
     Program PWSCF v.7.2 starts on 11Aug2025 at 10:29: 2 

     This program is part of the open-source Quantum ESPRESSO suite
     for quantum simulation of materials; please cite
         "P. Giannozzi et al., J. Phys.:Condens. Matter 21 395502 (2009);
         "P. Giannozzi et al., J. Phys.:Condens. Matter 29 465901 (2017);
         "P. Giannozzi et al., J. Chem. Phys. 152 154105 (2020);
          URL http://www.quantum-espresso.org", 
     in publications or presentations arising from this work. More details at
     http://www.quantum-espresso.org/quote

     Parallel version (MPI), running on    32 processors

     MPI processes distributed on     1 nodes
     125133 MiB available memory on the printing compute node when the environment starts

     Reading input from /home/jvc/QEspresso7.2/ZnO_database/scripts/cell233.in/ZnO-3.40-1.49-233.in
Warning: card &CELL ignored
Warning: card / ignored
Warning: card &FCP ignored
Warning: card / ignored
Warning: card &RISM ignored
Warning: card / ignored

     Current dimensions of program PWSCF are:
     Max number of different atomic species (ntypx) = 10
     Max number of k-points (npk) =  40000
     Max angular momentum in pseudopotentials (lmaxx) =  4
     file Zn.upf: wavefunction(s)  3D renormalized
     Found identity + (  0.0000  0.0000  0.3333) symmetry
     This is a supercell, fractional translations are disabled

     K-points division:     npool     =       8
     R & G space division:  proc/nbgrp/npool/nimage =       4
     Subspace diagonalization in iterative solution of the eigenvalue problem:
     one sub-group per band group will be used
     custom distributed-memory algorithm (size of sub-group:  2*  2 procs)


     Parallelization info
     --------------------
     sticks:   dense  smooth     PW     G-vecs:    dense   smooth      PW
     Min        1576     788    209               200477    70898    9719
     Max        1581     789    210               200478    70903    9724
     Sum        6311    3155    839               801909   283605   38887

     Using Slab Decomposition



     bravais-lattice index     =            0
     lattice parameter (alat)  =      12.3576  a.u.
     unit-cell volume          =    5936.3583 (a.u.)^3
     number of atoms/cell      =           72
     number of atomic types    =            2
     number of electrons       =       648.00
     number of Kohn-Sham states=          324
     kinetic-energy cutoff     =      50.0000  Ry
     charge density cutoff     =     400.0000  Ry
     scf convergence threshold =      1.0E-08
     mixing beta               =       0.3000
     number of iterations used =            8  plain     mixing
     Exchange-correlation= PBE
                           (   1   4   3   4   0   0   0)

     celldm(1)=  12.357644  celldm(2)=   0.000000  celldm(3)=   0.000000
     celldm(4)=   0.000000  celldm(5)=   0.000000  celldm(6)=   0.000000

     crystal axes: (cart. coord. in units of alat)
               a(1) = (   1.000000   0.000000   0.000000 )  
               a(2) = (  -0.750000   1.299038   0.000000 )  
               a(3) = (   0.000000   0.000000   2.421538 )  

     reciprocal axes: (cart. coord. in units 2 pi/alat)
               b(1) = (  1.000000  0.577350 -0.000000 )  
               b(2) = (  0.000000  0.769800  0.000000 )  
               b(3) = (  0.000000 -0.000000  0.412961 )  


     PseudoPot. # 1 for Zn read from file:
     /home/jvc/QEspresso7.2/ZnO_database/pseudos/Zn.upf
     MD5 check sum: 7f56cabf9682ed8c977c2f7d0c5985c5
     Pseudo is Ultrasoft + core correction, Zval = 12.0
     Generated using &quot;atomic&quot; code by A. Dal Corso  v.6.2.2
     Using radial grid of 1201 points,  6 beta functions with: 
                l(1) =   0
                l(2) =   0
                l(3) =   1
                l(4) =   1
                l(5) =   2
                l(6) =   2
     Q(r) pseudized with 0 coefficients 


     PseudoPot. # 2 for O  read from file:
     /home/jvc/QEspresso7.2/ZnO_database/pseudos/O.upf
     MD5 check sum: 91400c9766925bcf19f520983a725ff0
     Pseudo is Ultrasoft + core correction, Zval =  6.0
     Generated using &quot;atomic&quot; code by A. Dal Corso  v.6.3MaX
     Using radial grid of 1095 points,  4 beta functions with: 
                l(1) =   0
                l(2) =   0
                l(3) =   1
                l(4) =   1
     Q(r) pseudized with 0 coefficients 


     atomic species   valence    mass     pseudopotential
        Zn            12.00    65.38000     Zn( 1.00)
        O              6.00    15.99900     O ( 1.00)

     No symmetry found


                                    s                        frac. trans.

      isym =  1     identity                                     

 cryst.   s( 1) = (     1          0          0      )
                  (     0          1          0      )
                  (     0          0          1      )

 cart.    s( 1) = (  1.0000000  0.0000000  0.0000000 )
                  (  0.0000000  1.0000000  0.0000000 )
                  (  0.0000000  0.0000000  1.0000000 )


   Cartesian axes

     site n.     atom                  positions (alat units)
         1           Zn  tau(   1) = (   0.2500000   0.1443376   0.4041010  )
         2           Zn  tau(   2) = (   0.0000000   0.2886751   0.0005114  )
         3           O   tau(   3) = (   0.2500000   0.1443376   0.7100565  )
         4           O   tau(   4) = (   0.0000000   0.2886751   0.3064669  )
         5           Zn  tau(   5) = (   0.2500000   0.1443376   1.2112802  )
         6           Zn  tau(   6) = (   0.0000000   0.2886751   0.8076906  )
         7           O   tau(   7) = (   0.2500000   0.1443376   1.5172357  )
         8           O   tau(   8) = (   0.0000000   0.2886751   1.1136461  )
         9           Zn  tau(   9) = (   0.2500000   0.1443376   2.0184594  )
        10           Zn  tau(  10) = (   0.0000000   0.2886751   1.6148698  )
        11           O   tau(  11) = (   0.2500000   0.1443376   2.3244148  )
        12           O   tau(  12) = (   0.0000000   0.2886751   1.9208253  )
        13           Zn  tau(  13) = (   0.0000000   0.5773503   0.4041010  )
        14           Zn  tau(  14) = (  -0.2500000   0.7216878   0.0005114  )
        15           O   tau(  15) = (   0.0000000   0.5773503   0.7100565  )
        16           O   tau(  16) = (  -0.2500000   0.7216878   0.3064669  )
        17           Zn  tau(  17) = (   0.0000000   0.5773503   1.2112802  )
        18           Zn  tau(  18) = (  -0.2500000   0.7216878   0.8076906  )
        19           O   tau(  19) = (   0.0000000   0.5773503   1.5172357  )
        20           O   tau(  20) = (  -0.2500000   0.7216878   1.1136461  )
        21           Zn  tau(  21) = (   0.0000000   0.5773503   2.0184594  )
        22           Zn  tau(  22) = (  -0.2500000   0.7216878   1.6148698  )
        23           O   tau(  23) = (   0.0000000   0.5773503   2.3244148  )
        24           O   tau(  24) = (  -0.2500000   0.7216878   1.9208253  )
        25           Zn  tau(  25) = (  -0.2500000   1.0103630   0.4041010  )
        26           Zn  tau(  26) = (  -0.5000000   1.1547005   0.0005114  )
        27           O   tau(  27) = (  -0.2500000   1.0103630   0.7100565  )
        28           O   tau(  28) = (  -0.5000000   1.1547005   0.3064669  )
        29           Zn  tau(  29) = (  -0.2500000   1.0103630   1.2112802  )
        30           Zn  tau(  30) = (  -0.5000000   1.1547005   0.8076906  )
        31           O   tau(  31) = (  -0.2500000   1.0103630   1.5172357  )
        32           O   tau(  32) = (  -0.5000000   1.1547005   1.1136461  )
        33           Zn  tau(  33) = (  -0.2500000   1.0103630   2.0184594  )
        34           Zn  tau(  34) = (  -0.5000000   1.1547005   1.6148698  )
        35           O   tau(  35) = (  -0.2500000   1.0103630   2.3244148  )
        36           O   tau(  36) = (  -0.5000000   1.1547005   1.9208253  )
        37           Zn  tau(  37) = (   0.7500000   0.1443376   0.4041010  )
        38           Zn  tau(  38) = (   0.5000000   0.2886751   0.0005114  )
        39           O   tau(  39) = (   0.7500000   0.1443376   0.7100565  )
        40           O   tau(  40) = (   0.5000000   0.2886751   0.3064669  )
        41           Zn  tau(  41) = (   0.7500000   0.1443376   1.2112802  )
        42           Zn  tau(  42) = (   0.5000000   0.2886751   0.8076906  )
        43           O   tau(  43) = (   0.7500000   0.1443376   1.5172357  )
        44           O   tau(  44) = (   0.5000000   0.2886751   1.1136461  )
        45           Zn  tau(  45) = (   0.7500000   0.1443376   2.0184594  )
        46           Zn  tau(  46) = (   0.5000000   0.2886751   1.6148698  )
        47           O   tau(  47) = (   0.7500000   0.1443376   2.3244148  )
        48           O   tau(  48) = (   0.5000000   0.2886751   1.9208253  )
        49           Zn  tau(  49) = (   0.5000000   0.5773503   0.4041010  )
        50           Zn  tau(  50) = (   0.2500000   0.7216878   0.0005114  )
        51           O   tau(  51) = (   0.5000000   0.5773503   0.7100565  )
        52           O   tau(  52) = (   0.2500000   0.7216878   0.3064669  )
        53           Zn  tau(  53) = (   0.5000000   0.5773503   1.2112802  )
        54           Zn  tau(  54) = (   0.2500000   0.7216878   0.8076906  )
        55           O   tau(  55) = (   0.5000000   0.5773503   1.5172357  )
        56           O   tau(  56) = (   0.2500000   0.7216878   1.1136461  )
        57           Zn  tau(  57) = (   0.5000000   0.5773503   2.0184594  )
        58           Zn  tau(  58) = (   0.2500000   0.7216878   1.6148698  )
        59           O   tau(  59) = (   0.5000000   0.5773503   2.3244148  )
        60           O   tau(  60) = (   0.2500000   0.7216878   1.9208253  )
        61           Zn  tau(  61) = (   0.2500000   1.0103630   0.4041010  )
        62           Zn  tau(  62) = (   0.0000000   1.1547005   0.0005114  )
        63           O   tau(  63) = (   0.2500000   1.0103630   0.7100565  )
        64           O   tau(  64) = (   0.0000000   1.1547005   0.3064669  )
        65           Zn  tau(  65) = (   0.2500000   1.0103630   1.2112802  )
        66           Zn  tau(  66) = (   0.0000000   1.1547005   0.8076906  )
        67           O   tau(  67) = (   0.2500000   1.0103630   1.5172357  )
        68           O   tau(  68) = (   0.0000000   1.1547005   1.1136461  )
        69           Zn  tau(  69) = (   0.2500000   1.0103630   2.0184594  )
        70           Zn  tau(  70) = (   0.0000000   1.1547005   1.6148698  )
        71           O   tau(  71) = (   0.2500000   1.0103630   2.3244148  )
        72           O   tau(  72) = (   0.0000000   1.1547005   1.9208253  )

   Crystallographic axes

     site n.     atom                  positions (cryst. coord.)
         1           Zn  tau(   1) = (  0.3333333  0.1111111  0.1668779  )
         2           Zn  tau(   2) = (  0.1666667  0.2222222  0.0002112  )
         3           O   tau(   3) = (  0.3333333  0.1111111  0.2932255  )
         4           O   tau(   4) = (  0.1666667  0.2222222  0.1265588  )
         5           Zn  tau(   5) = (  0.3333333  0.1111111  0.5002112  )
         6           Zn  tau(   6) = (  0.1666667  0.2222222  0.3335445  )
         7           O   tau(   7) = (  0.3333333  0.1111111  0.6265588  )
         8           O   tau(   8) = (  0.1666667  0.2222222  0.4598921  )
         9           Zn  tau(   9) = (  0.3333333  0.1111111  0.8335445  )
        10           Zn  tau(  10) = (  0.1666667  0.2222222  0.6668779  )
        11           O   tau(  11) = (  0.3333333  0.1111111  0.9598921  )
        12           O   tau(  12) = (  0.1666667  0.2222222  0.7932255  )
        13           Zn  tau(  13) = (  0.3333333  0.4444444  0.1668779  )
        14           Zn  tau(  14) = (  0.1666667  0.5555556  0.0002112  )
        15           O   tau(  15) = (  0.3333333  0.4444444  0.2932255  )
        16           O   tau(  16) = (  0.1666667  0.5555556  0.1265588  )
        17           Zn  tau(  17) = (  0.3333333  0.4444444  0.5002112  )
        18           Zn  tau(  18) = (  0.1666667  0.5555556  0.3335445  )
        19           O   tau(  19) = (  0.3333333  0.4444444  0.6265588  )
        20           O   tau(  20) = (  0.1666667  0.5555556  0.4598921  )
        21           Zn  tau(  21) = (  0.3333333  0.4444444  0.8335445  )
        22           Zn  tau(  22) = (  0.1666667  0.5555556  0.6668779  )
        23           O   tau(  23) = (  0.3333333  0.4444444  0.9598921  )
        24           O   tau(  24) = (  0.1666667  0.5555556  0.7932255  )
        25           Zn  tau(  25) = (  0.3333333  0.7777778  0.1668779  )
        26           Zn  tau(  26) = (  0.1666667  0.8888889  0.0002112  )
        27           O   tau(  27) = (  0.3333333  0.7777778  0.2932255  )
        28           O   tau(  28) = (  0.1666667  0.8888889  0.1265588  )
        29           Zn  tau(  29) = (  0.3333333  0.7777778  0.5002112  )
        30           Zn  tau(  30) = (  0.1666667  0.8888889  0.3335445  )
        31           O   tau(  31) = (  0.3333333  0.7777778  0.6265588  )
        32           O   tau(  32) = (  0.1666667  0.8888889  0.4598921  )
        33           Zn  tau(  33) = (  0.3333333  0.7777778  0.8335445  )
        34           Zn  tau(  34) = (  0.1666667  0.8888889  0.6668779  )
        35           O   tau(  35) = (  0.3333333  0.7777778  0.9598921  )
        36           O   tau(  36) = (  0.1666667  0.8888889  0.7932255  )
        37           Zn  tau(  37) = (  0.8333333  0.1111111  0.1668779  )
        38           Zn  tau(  38) = (  0.6666667  0.2222222  0.0002112  )
        39           O   tau(  39) = (  0.8333333  0.1111111  0.2932255  )
        40           O   tau(  40) = (  0.6666667  0.2222222  0.1265588  )
        41           Zn  tau(  41) = (  0.8333333  0.1111111  0.5002112  )
        42           Zn  tau(  42) = (  0.6666667  0.2222222  0.3335445  )
        43           O   tau(  43) = (  0.8333333  0.1111111  0.6265588  )
        44           O   tau(  44) = (  0.6666667  0.2222222  0.4598921  )
        45           Zn  tau(  45) = (  0.8333333  0.1111111  0.8335445  )
        46           Zn  tau(  46) = (  0.6666667  0.2222222  0.6668779  )
        47           O   tau(  47) = (  0.8333333  0.1111111  0.9598921  )
        48           O   tau(  48) = (  0.6666667  0.2222222  0.7932255  )
        49           Zn  tau(  49) = (  0.8333333  0.4444444  0.1668779  )
        50           Zn  tau(  50) = (  0.6666667  0.5555556  0.0002112  )
        51           O   tau(  51) = (  0.8333333  0.4444444  0.2932255  )
        52           O   tau(  52) = (  0.6666667  0.5555556  0.1265588  )
        53           Zn  tau(  53) = (  0.8333333  0.4444444  0.5002112  )
        54           Zn  tau(  54) = (  0.6666667  0.5555556  0.3335445  )
        55           O   tau(  55) = (  0.8333333  0.4444444  0.6265588  )
        56           O   tau(  56) = (  0.6666667  0.5555556  0.4598921  )
        57           Zn  tau(  57) = (  0.8333333  0.4444444  0.8335445  )
        58           Zn  tau(  58) = (  0.6666667  0.5555556  0.6668779  )
        59           O   tau(  59) = (  0.8333333  0.4444444  0.9598921  )
        60           O   tau(  60) = (  0.6666667  0.5555556  0.7932255  )
        61           Zn  tau(  61) = (  0.8333333  0.7777778  0.1668779  )
        62           Zn  tau(  62) = (  0.6666667  0.8888889  0.0002112  )
        63           O   tau(  63) = (  0.8333333  0.7777778  0.2932255  )
        64           O   tau(  64) = (  0.6666667  0.8888889  0.1265588  )
        65           Zn  tau(  65) = (  0.8333333  0.7777778  0.5002112  )
        66           Zn  tau(  66) = (  0.6666667  0.8888889  0.3335445  )
        67           O   tau(  67) = (  0.8333333  0.7777778  0.6265588  )
        68           O   tau(  68) = (  0.6666667  0.8888889  0.4598921  )
        69           Zn  tau(  69) = (  0.8333333  0.7777778  0.8335445  )
        70           Zn  tau(  70) = (  0.6666667  0.8888889  0.6668779  )
        71           O   tau(  71) = (  0.8333333  0.7777778  0.9598921  )
        72           O   tau(  72) = (  0.6666667  0.8888889  0.7932255  )

     number of k points=     8
                       cart. coord. in units 2pi/alat
        k(    1) = (   0.0000000   0.0000000   0.0000000), wk =   0.1666667
        k(    2) = (   0.0000000   0.0000000  -0.2064804), wk =   0.1666667
        k(    3) = (   0.0000000  -0.3849002   0.0000000), wk =   0.1666667
        k(    4) = (   0.0000000  -0.3849002  -0.2064804), wk =   0.1666667
        k(    5) = (   0.3333333   0.1924501   0.0000000), wk =   0.3333333
        k(    6) = (   0.3333333   0.1924501  -0.2064804), wk =   0.3333333
        k(    7) = (   0.3333333  -0.1924501   0.0000000), wk =   0.3333333
        k(    8) = (   0.3333333  -0.1924501  -0.2064804), wk =   0.3333333

                       cryst. coord.
        k(    1) = (   0.0000000   0.0000000   0.0000000), wk =   0.1666667
        k(    2) = (   0.0000000   0.0000000  -0.5000000), wk =   0.1666667
        k(    3) = (   0.0000000  -0.5000000   0.0000000), wk =   0.1666667
        k(    4) = (   0.0000000  -0.5000000  -0.5000000), wk =   0.1666667
        k(    5) = (   0.3333333   0.0000000   0.0000000), wk =   0.3333333
        k(    6) = (   0.3333333   0.0000000  -0.5000000), wk =   0.3333333
        k(    7) = (   0.3333333  -0.5000000   0.0000000), wk =   0.3333333
        k(    8) = (   0.3333333  -0.5000000  -0.5000000), wk =   0.3333333

     Dense  grid:   801909 G-vectors     FFT dimensions: (  80, 120, 192)

     Smooth grid:   283605 G-vectors     FFT dimensions: (  60,  90, 135)

     Dynamical RAM for                 wfc:      43.80 MB

     Dynamical RAM for     wfc (w. buffer):      43.80 MB

     Dynamical RAM for           str. fact:       6.12 MB

     Dynamical RAM for           local pot:       0.00 MB

     Dynamical RAM for          nlocal pot:     126.54 MB

     Dynamical RAM for                qrad:       3.21 MB

     Dynamical RAM for          rho,v,vnew:      19.72 MB

     Dynamical RAM for               rhoin:       6.57 MB

     Dynamical RAM for            rho*nmix:      48.94 MB

     Dynamical RAM for           G-vectors:      12.01 MB

     Dynamical RAM for          h,s,v(r/c):       4.81 MB

     Dynamical RAM for          <psi|beta>:       4.63 MB

     Dynamical RAM for                 psi:      87.60 MB

     Dynamical RAM for                hpsi:      87.60 MB

     Dynamical RAM for                spsi:      87.60 MB

     Dynamical RAM for      wfcinit/wfcrot:     131.56 MB

     Dynamical RAM for           addusdens:      87.56 MB

     Dynamical RAM for          addusforce:     113.32 MB

     Estimated static dynamical RAM per process >     244.74 MB

     Estimated max dynamical RAM per process >     565.93 MB

     Estimated total dynamical RAM >      16.35 GB

     Check: negative core charge=   -0.000002

     Initial potential from superposition of free atoms

     starting charge     647.8659, renormalised to     648.0000
     Starting wfcs are  468 randomized atomic wfcs

     total cpu time spent up to now is       38.4 secs

     Self-consistent Calculation

     iteration #  1     ecut=    50.00 Ry     beta= 0.30
     Davidson diagonalization with overlap

---- Real-time Memory Report at c_bands before calling an iterative solver
           418 MiB given to the printing process from OS
             0 MiB allocation reported by mallinfo(arena+hblkhd)
        114739 MiB available memory on the node where the printing process lives
------------------
     ethr =  1.00E-02,  avg # of iterations =  2.0

     total cpu time spent up to now is       74.0 secs

     total energy              =   -6506.63319571 Ry
     estimated scf accuracy    <      12.41920864 Ry

     iteration #  2     ecut=    50.00 Ry     beta= 0.30
     Davidson diagonalization with overlap

---- Real-time Memory Report at c_bands before calling an iterative solver
           555 MiB given to the printing process from OS
             0 MiB allocation reported by mallinfo(arena+hblkhd)
        114339 MiB available memory on the node where the printing process lives
------------------
     ethr =  1.92E-03,  avg # of iterations =  2.0

     total cpu time spent up to now is      119.3 secs

     total energy              =   -6508.45208448 Ry
     estimated scf accuracy    <       1.56448228 Ry

     iteration #  3     ecut=    50.00 Ry     beta= 0.30
     Davidson diagonalization with overlap

---- Real-time Memory Report at c_bands before calling an iterative solver
           583 MiB given to the printing process from OS
             0 MiB allocation reported by mallinfo(arena+hblkhd)
        114401 MiB available memory on the node where the printing process lives
------------------
     ethr =  2.41E-04,  avg # of iterations =  8.6

     total cpu time spent up to now is      202.8 secs

     total energy              =   -6509.03854796 Ry
     estimated scf accuracy    <       0.95055062 Ry

     iteration #  4     ecut=    50.00 Ry     beta= 0.30
     Davidson diagonalization with overlap

---- Real-time Memory Report at c_bands before calling an iterative solver
           592 MiB given to the printing process from OS
             0 MiB allocation reported by mallinfo(arena+hblkhd)
        114368 MiB available memory on the node where the printing process lives
------------------
     ethr =  1.47E-04,  avg # of iterations =  8.6

     total cpu time spent up to now is      306.9 secs

     total energy              =   -6509.55092055 Ry
     estimated scf accuracy    <       3.44218034 Ry

     iteration #  5     ecut=    50.00 Ry     beta= 0.30
     Davidson diagonalization with overlap

---- Real-time Memory Report at c_bands before calling an iterative solver
           599 MiB given to the printing process from OS
             0 MiB allocation reported by mallinfo(arena+hblkhd)
        114347 MiB available memory on the node where the printing process lives
------------------
     ethr =  1.47E-04,  avg # of iterations =  2.0

     total cpu time spent up to now is      343.4 secs

     total energy              =   -6508.20700846 Ry
     estimated scf accuracy    <       1.85011381 Ry

     iteration #  6     ecut=    50.00 Ry     beta= 0.30
     Davidson diagonalization with overlap

---- Real-time Memory Report at c_bands before calling an iterative solver
           599 MiB given to the printing process from OS
             0 MiB allocation reported by mallinfo(arena+hblkhd)
        114288 MiB available memory on the node where the printing process lives
------------------
     ethr =  1.47E-04,  avg # of iterations = 12.9

     total cpu time spent up to now is      472.5 secs

     total energy              =   -6507.08616746 Ry
     estimated scf accuracy    <      22.36217873 Ry

     iteration #  7     ecut=    50.00 Ry     beta= 0.30
     Davidson diagonalization with overlap

---- Real-time Memory Report at c_bands before calling an iterative solver
           601 MiB given to the printing process from OS
             0 MiB allocation reported by mallinfo(arena+hblkhd)
        114170 MiB available memory on the node where the printing process lives
------------------
     ethr =  1.47E-04,  avg # of iterations = 12.0

     total cpu time spent up to now is      590.7 secs

     total energy              =   -6509.43971279 Ry
     estimated scf accuracy    <       0.98736236 Ry

     iteration #  8     ecut=    50.00 Ry     beta= 0.30
     Davidson diagonalization with overlap

---- Real-time Memory Report at c_bands before calling an iterative solver
           603 MiB given to the printing process from OS
             0 MiB allocation reported by mallinfo(arena+hblkhd)
        114266 MiB available memory on the node where the printing process lives
------------------
     ethr =  1.47E-04,  avg # of iterations =  2.0

     total cpu time spent up to now is      626.7 secs

     total energy              =   -6509.38638220 Ry
     estimated scf accuracy    <       0.55749163 Ry

     iteration #  9     ecut=    50.00 Ry     beta= 0.30
     Davidson diagonalization with overlap

---- Real-time Memory Report at c_bands before calling an iterative solver
           603 MiB given to the printing process from OS
             0 MiB allocation reported by mallinfo(arena+hblkhd)
        114278 MiB available memory on the node where the printing process lives
------------------
     ethr =  8.60E-05,  avg # of iterations =  3.0

     total cpu time spent up to now is      669.3 secs

     total energy              =   -6509.40051146 Ry
     estimated scf accuracy    <       0.19515761 Ry

     iteration # 10     ecut=    50.00 Ry     beta= 0.30
     Davidson diagonalization with overlap

---- Real-time Memory Report at c_bands before calling an iterative solver
           603 MiB given to the printing process from OS
             0 MiB allocation reported by mallinfo(arena+hblkhd)
        114165 MiB available memory on the node where the printing process lives
------------------
     ethr =  3.01E-05,  avg # of iterations =  6.4

     total cpu time spent up to now is      725.1 secs

     total energy              =   -6509.45835322 Ry
     estimated scf accuracy    <       0.00871943 Ry

     iteration # 11     ecut=    50.00 Ry     beta= 0.30
     Davidson diagonalization with overlap

---- Real-time Memory Report at c_bands before calling an iterative solver
           624 MiB given to the printing process from OS
             0 MiB allocation reported by mallinfo(arena+hblkhd)
        114050 MiB available memory on the node where the printing process lives
------------------
     ethr =  1.35E-06,  avg # of iterations =  7.5

     total cpu time spent up to now is      792.7 secs

     total energy              =   -6509.46761877 Ry
     estimated scf accuracy    <       0.00125796 Ry

     iteration # 12     ecut=    50.00 Ry     beta= 0.30
     Davidson diagonalization with overlap

---- Real-time Memory Report at c_bands before calling an iterative solver
           624 MiB given to the printing process from OS
             0 MiB allocation reported by mallinfo(arena+hblkhd)
        114130 MiB available memory on the node where the printing process lives
------------------
     ethr =  1.94E-07,  avg # of iterations = 10.6

     total cpu time spent up to now is      909.8 secs

     total energy              =   -6509.46615087 Ry
     estimated scf accuracy    <       0.02511746 Ry

     iteration # 13     ecut=    50.00 Ry     beta= 0.30
     Davidson diagonalization with overlap

---- Real-time Memory Report at c_bands before calling an iterative solver
           624 MiB given to the printing process from OS
             0 MiB allocation reported by mallinfo(arena+hblkhd)
        114201 MiB available memory on the node where the printing process lives
------------------
     ethr =  1.94E-07,  avg # of iterations =  5.4

     total cpu time spent up to now is      966.5 secs

     total energy              =   -6509.46306308 Ry
     estimated scf accuracy    <       0.01306128 Ry

     iteration # 14     ecut=    50.00 Ry     beta= 0.30
     Davidson diagonalization with overlap

---- Real-time Memory Report at c_bands before calling an iterative solver
           624 MiB given to the printing process from OS
             0 MiB allocation reported by mallinfo(arena+hblkhd)
        114193 MiB available memory on the node where the printing process lives
------------------
     ethr =  1.94E-07,  avg # of iterations =  7.8

     total cpu time spent up to now is     1056.4 secs

     total energy              =   -6509.46394096 Ry
     estimated scf accuracy    <       0.00169595 Ry

     iteration # 15     ecut=    50.00 Ry     beta= 0.30
     Davidson diagonalization with overlap

---- Real-time Memory Report at c_bands before calling an iterative solver
           624 MiB given to the printing process from OS
             0 MiB allocation reported by mallinfo(arena+hblkhd)
        114175 MiB available memory on the node where the printing process lives
------------------
     ethr =  1.94E-07,  avg # of iterations =  3.4

     total cpu time spent up to now is     1094.8 secs

     total energy              =   -6509.46369401 Ry
     estimated scf accuracy    <       0.00088471 Ry

     iteration # 16     ecut=    50.00 Ry     beta= 0.30
     Davidson diagonalization with overlap

---- Real-time Memory Report at c_bands before calling an iterative solver
           625 MiB given to the printing process from OS
             0 MiB allocation reported by mallinfo(arena+hblkhd)
        114133 MiB available memory on the node where the printing process lives
------------------
     ethr =  1.37E-07,  avg # of iterations =  5.5

     total cpu time spent up to now is     1149.7 secs

     total energy              =   -6509.46396036 Ry
     estimated scf accuracy    <       0.00000219 Ry

     iteration # 17     ecut=    50.00 Ry     beta= 0.30
     Davidson diagonalization with overlap

---- Real-time Memory Report at c_bands before calling an iterative solver
           625 MiB given to the printing process from OS
             0 MiB allocation reported by mallinfo(arena+hblkhd)
        114244 MiB available memory on the node where the printing process lives
------------------
     c_bands:  1 eigenvalues not converged
     ethr =  3.37E-10,  avg # of iterations = 15.6

     total cpu time spent up to now is     1296.2 secs

     total energy              =   -6509.46399580 Ry
     estimated scf accuracy    <       0.00003223 Ry

     iteration # 18     ecut=    50.00 Ry     beta= 0.30
     Davidson diagonalization with overlap

---- Real-time Memory Report at c_bands before calling an iterative solver
           625 MiB given to the printing process from OS
             0 MiB allocation reported by mallinfo(arena+hblkhd)
        114128 MiB available memory on the node where the printing process lives
------------------
     ethr =  3.37E-10,  avg # of iterations =  7.5

     total cpu time spent up to now is     1350.4 secs

     total energy              =   -6509.46398100 Ry
     estimated scf accuracy    <       0.00004722 Ry

     iteration # 19     ecut=    50.00 Ry     beta= 0.30
     Davidson diagonalization with overlap

---- Real-time Memory Report at c_bands before calling an iterative solver
           625 MiB given to the printing process from OS
             0 MiB allocation reported by mallinfo(arena+hblkhd)
        114118 MiB available memory on the node where the printing process lives
------------------
     ethr =  3.37E-10,  avg # of iterations = 10.4

     total cpu time spent up to now is     1453.4 secs

     total energy              =   -6509.46398887 Ry
     estimated scf accuracy    <       0.00000746 Ry

     iteration # 20     ecut=    50.00 Ry     beta= 0.30
     Davidson diagonalization with overlap

---- Real-time Memory Report at c_bands before calling an iterative solver
           625 MiB given to the printing process from OS
             0 MiB allocation reported by mallinfo(arena+hblkhd)
        114180 MiB available memory on the node where the printing process lives
------------------
     ethr =  3.37E-10,  avg # of iterations =  7.9

     total cpu time spent up to now is     1536.3 secs

     total energy              =   -6509.46398417 Ry
     estimated scf accuracy    <       0.00002810 Ry

     iteration # 21     ecut=    50.00 Ry     beta= 0.30
     Davidson diagonalization with overlap

---- Real-time Memory Report at c_bands before calling an iterative solver
           625 MiB given to the printing process from OS
             0 MiB allocation reported by mallinfo(arena+hblkhd)
        114220 MiB available memory on the node where the printing process lives
------------------
     ethr =  3.37E-10,  avg # of iterations =  6.1

     total cpu time spent up to now is     1592.9 secs

     total energy              =   -6509.46398018 Ry
     estimated scf accuracy    <       0.00001214 Ry

     iteration # 22     ecut=    50.00 Ry     beta= 0.30
     Davidson diagonalization with overlap

---- Real-time Memory Report at c_bands before calling an iterative solver
           625 MiB given to the printing process from OS
             0 MiB allocation reported by mallinfo(arena+hblkhd)
        114092 MiB available memory on the node where the printing process lives
------------------
     ethr =  3.37E-10,  avg # of iterations =  8.2

     total cpu time spent up to now is     1682.1 secs

     total energy              =   -6509.46398223 Ry
     estimated scf accuracy    <       0.00000015 Ry

     iteration # 23     ecut=    50.00 Ry     beta= 0.30
     Davidson diagonalization with overlap

---- Real-time Memory Report at c_bands before calling an iterative solver
           625 MiB given to the printing process from OS
             0 MiB allocation reported by mallinfo(arena+hblkhd)
        114171 MiB available memory on the node where the printing process lives
------------------
     ethr =  2.36E-11,  avg # of iterations = 14.6

     total cpu time spent up to now is     1794.9 secs

     total energy              =   -6509.46398239 Ry
     estimated scf accuracy    <       0.00000083 Ry

     iteration # 24     ecut=    50.00 Ry     beta= 0.30
     Davidson diagonalization with overlap

---- Real-time Memory Report at c_bands before calling an iterative solver
           625 MiB given to the printing process from OS
             0 MiB allocation reported by mallinfo(arena+hblkhd)
        114176 MiB available memory on the node where the printing process lives
------------------
     ethr =  2.36E-11,  avg # of iterations =  5.4

     total cpu time spent up to now is     1841.1 secs

     total energy              =   -6509.46398223 Ry
     estimated scf accuracy    <       0.00000037 Ry

     iteration # 25     ecut=    50.00 Ry     beta= 0.30
     Davidson diagonalization with overlap

---- Real-time Memory Report at c_bands before calling an iterative solver
           625 MiB given to the printing process from OS
             0 MiB allocation reported by mallinfo(arena+hblkhd)
        114118 MiB available memory on the node where the printing process lives
------------------
     ethr =  2.36E-11,  avg # of iterations =  8.4

     total cpu time spent up to now is     1934.7 secs

     total energy              =   -6509.46398239 Ry
     estimated scf accuracy    <       0.00000010 Ry

     iteration # 26     ecut=    50.00 Ry     beta= 0.30
     Davidson diagonalization with overlap

---- Real-time Memory Report at c_bands before calling an iterative solver
           625 MiB given to the printing process from OS
             0 MiB allocation reported by mallinfo(arena+hblkhd)
        113896 MiB available memory on the node where the printing process lives
------------------
[perseu][[29291,1],5][../../../../../../opal/mca/btl/tcp/btl_tcp.c:559:mca_btl_tcp_recv_blocking] recv(18) failed: Connection reset by peer (104)
     ethr =  1.55E-11,  avg # of iterations =  2.0

     total cpu time spent up to now is     1974.2 secs

     total energy              =   -6509.46398238 Ry
     estimated scf accuracy    <       0.00000003 Ry

     iteration # 27     ecut=    50.00 Ry     beta= 0.30
     Davidson diagonalization with overlap

---- Real-time Memory Report at c_bands before calling an iterative solver
           625 MiB given to the printing process from OS
             0 MiB allocation reported by mallinfo(arena+hblkhd)
        114185 MiB available memory on the node where the printing process lives
------------------
     ethr =  4.02E-12,  avg # of iterations =  9.1

     total cpu time spent up to now is     2072.4 secs

     total energy              =   -6509.46398240 Ry
     estimated scf accuracy    <       0.00000009 Ry

     iteration # 28     ecut=    50.00 Ry     beta= 0.30
     Davidson diagonalization with overlap

---- Real-time Memory Report at c_bands before calling an iterative solver
           625 MiB given to the printing process from OS
             0 MiB allocation reported by mallinfo(arena+hblkhd)
        114149 MiB available memory on the node where the printing process lives
------------------
     ethr =  4.02E-12,  avg # of iterations =  4.8

     total cpu time spent up to now is     2118.5 secs

     total energy              =   -6509.46398239 Ry
     estimated scf accuracy    <       0.00000003 Ry

     iteration # 29     ecut=    50.00 Ry     beta= 0.30
     Davidson diagonalization with overlap

---- Real-time Memory Report at c_bands before calling an iterative solver
           625 MiB given to the printing process from OS
             0 MiB allocation reported by mallinfo(arena+hblkhd)
        114122 MiB available memory on the node where the printing process lives
------------------
     ethr =  4.02E-12,  avg # of iterations =  5.2

     total cpu time spent up to now is     2180.2 secs

     End of self-consistent calculation

          k = 0.0000 0.0000 0.0000 ( 35443 PWs)   bands (ev):

   -10.9985 -10.8352 -10.8352 -10.5470 -10.5470 -10.4952 -10.4952 -10.4472
   -10.4472 -10.4472 -10.4472 -10.3567 -10.3567 -10.3493 -10.3183 -10.2962
   -10.2962 -10.2962 -10.2962 -10.2915 -10.2915 -10.2520 -10.2520 -10.2520
   -10.2520 -10.1868 -10.1868 -10.1859 -10.1859 -10.1859 -10.1859 -10.1575
   -10.1575 -10.1407 -10.1368 -10.1368   0.9558   0.9558   0.9558   0.9558
     0.9825   0.9825   1.0419   1.0419   1.0471   1.0471   1.0906   1.0906
     1.0906   1.0906   1.1038   1.1038   1.1038   1.1038   1.1141   1.1614
     1.1614   1.1968   1.1968   1.1968   1.1968   1.2062   1.2062   1.2098
     1.2098   1.3159   1.3159   1.3230   1.3451   1.3451   1.3451   1.3451
     1.3565   1.3780   1.3780   1.4366   1.4366   1.4366   1.4366   1.4392
     1.4529   1.4529   1.5014   1.5014   1.5196   1.5196   1.5609   1.5839
     1.5839   1.5839   1.5839   1.5839   1.5839   1.5967   1.5967   1.5967
     1.5967   1.6641   1.6641   1.6673   1.6673   1.6673   1.6673   1.7197
     1.7197   1.7338   1.7338   1.7338   1.7338   1.7583   1.7583   1.7583
     1.7583   1.7846   1.7846   1.7846   1.7846   1.7926   1.7926   1.8687
     1.8687   1.8803   1.8803   1.8904   1.8904   1.8904   1.8904   1.9005
     1.9005   1.9133   1.9133   1.9133   1.9133   1.9178   1.9178   1.9413
     1.9538   2.0312   2.0312   2.0460   2.0460   2.0753   2.1149   2.1149
     2.3484   2.3484   2.4055   2.4055   2.4282   2.4282   2.4642   2.4731
     2.4731   2.4787   2.4787   2.4787   2.4787   2.4918   2.4918   2.4918
     2.4918   2.4958   2.4958   2.4958   2.4958   2.4988   2.4988   2.5339
     2.5339   2.5339   2.5339   2.5677   2.5677   2.5677   2.5677   2.5909
     2.5918   2.5918   2.5918   2.5918   2.6003   2.6003   2.6097   2.6097
     2.6097   2.6097   2.6248   2.6248   2.6268   2.6268   2.6330   2.6330
     2.6552   2.6552   2.6705   2.6819   2.6819   2.6819   2.6819   2.6836
     2.6836   2.6913   2.6913   2.6913   2.6913   2.7318   2.7318   2.7418
     2.8116   2.8116   2.8116   2.8116   2.8131   2.8131   2.8732   2.8732
     2.8918   3.0747   3.0747   3.0838   3.0838   3.1456   3.1456   3.2047
     3.2568   3.2568   3.2568   3.2568   3.2754   3.2754   3.4268   3.5916
     3.5916   3.5916   3.5916   3.6415   3.6415   3.6415   3.6415   3.6813
     3.6813   3.7941   3.7941   3.8753   3.8753   4.0473   4.0473   4.0473
     4.0473   4.1030   4.1030   4.1406   4.4220   4.4220   4.5350   4.5350
     4.5350   4.5350   4.6506   4.6506   4.7139   4.9084   4.9084   4.9084
     4.9084   5.0141   5.0141   5.0817   5.0817   5.0817   5.0817   5.0927
     5.0927   5.0972   5.0972   5.3813   5.3813   5.3813   5.3813   5.4185
     5.4185   5.4185   5.4185   5.4566   5.4566   5.6135   5.6135   5.6402
     5.7659   5.7659   5.7926   5.7926   5.7975   5.7975   5.8447   5.8447
     5.8447   5.8447   5.9792   5.9792   5.9792   5.9792   6.0154   6.0154
     6.0154   6.0154   6.0830   6.0930   6.0930   6.1251   6.1251   6.3016
     6.3016   6.3189   6.3189   6.3189   6.3189   6.7003   6.7003   6.7003
     6.7003   6.8049   6.8873   6.8873

     occupation numbers 
     1.0000   1.0000   1.0000   1.0000   1.0000   1.0000   1.0000   1.0000
     1.0000   1.0000   1.0000   1.0000   1.0000   1.0000   1.0000   1.0000
     1.0000   1.0000   1.0000   1.0000   1.0000   1.0000   1.0000   1.0000
     1.0000   1.0000   1.0000   1.0000   1.0000   1.0000   1.0000   1.0000
     1.0000   1.0000   1.0000   1.0000   1.0000   1.0000   1.0000   1.0000
     1.0000   1.0000   1.0000   1.0000   1.0000   1.0000   1.0000   1.0000
     1.0000   1.0000   1.0000   1.0000   1.0000   1.0000   1.0000   1.0000
     1.0000   1.0000   1.0000   1.0000   1.0000   1.0000   1.0000   1.0000
     1.0000   1.0000   1.0000   1.0000   1.0000   1.0000   1.0000   1.0000
     1.0000   1.0000   1.0000   1.0000   1.0000   1.0000   1.0000   1.0000
     1.0000   1.0000   1.0000   1.0000   1.0000   1.0000   1.0000   1.0000
     1.0000   1.0000   1.0000   1.0000   1.0000   1.0000   1.0000   1.0000
     1.0000   1.0000   1.0000   1.0000   1.0000   1.0000   1.0000   1.0000
     1.0000   1.0000   1.0000   1.0000   1.0000   1.0000   1.0000   1.0000
     1.0000   1.0000   1.0000   1.0000   1.0000   1.0000   1.0000   1.0000
     1.0000   1.0000   1.0000   1.0000   1.0000   1.0000   1.0000   1.0000
     1.0000   1.0000   1.0000   1.0000   1.0000   1.0000   1.0000   1.0000
     1.0000   1.0000   1.0000   1.0000   1.0000   1.0000   1.0000   1.0000
     1.0000   1.0000   1.0000   1.0000   1.0000   1.0000   1.0000   1.0000
     1.0000   1.0000   1.0000   1.0000   1.0000   1.0000   1.0000   1.0000
     1.0000   1.0000   1.0000   1.0000   1.0000   1.0000   1.0000   1.0000
     1.0000   1.0000   1.0000   1.0000   1.0000   1.0000   1.0000   1.0000
     1.0000   1.0000   1.0000   1.0000   1.0000   1.0000   1.0000   1.0000
     1.0000   1.0000   1.0000   1.0000   1.0000   1.0000   1.0000   1.0000
     1.0000   1.0000   1.0000   1.0000   1.0000   1.0000   1.0000   1.0000
     1.0000   1.0000   1.0000   1.0000   1.0000   1.0000   1.0000   1.0000
     1.0000   1.0000   1.0000   1.0000   1.0000   1.0000   1.0000   1.0000
     1.0000   1.0000   1.0000   1.0000   1.0000   1.0000   1.0000   1.0000
     1.0000   1.0000   1.0000   1.0000   1.0000   1.0000   1.0000   1.0000
     1.0000   1.0000   1.0000   1.0000   1.0000   1.0000   1.0000   1.0000
     1.0000   1.0000   1.0000   1.0000   1.0000   1.0000   1.0000   1.0000
     1.0000   1.0000   1.0000   1.0000   1.0000   1.0000   1.0000   1.0000
     1.0000   1.0000   1.0000   1.0000   1.0000   1.0000   1.0000   1.0000
     1.0000   1.0000   1.0000   1.0000   1.0000   1.0000   1.0000   1.0000
     1.0000   1.0000   1.0000   1.0000   1.0000   1.0000   1.0000   1.0000
     1.0000   1.0000   1.0000   1.0000   1.0000   1.0000   1.0000   1.0000
     1.0000   1.0000   1.0000   1.0000   1.0000   1.0000   1.0000   1.0000
     1.0000   1.0000   1.0000   1.0000   1.0000   1.0000   1.0000   1.0000
     1.0000   1.0000   1.0000   1.0000   1.0000   1.0000   1.0000   1.0000
     1.0000   1.0000   1.0000   1.0000   1.0000   1.0000   1.0000   1.0000
     1.0000   1.0000   1.0000   1.0000

          k = 0.0000 0.0000-0.2065 ( 35412 PWs)   bands (ev):

   -10.9552 -10.9552 -10.6675 -10.6675 -10.5201 -10.5201 -10.5201 -10.5201
   -10.3661 -10.3661 -10.3487 -10.3487 -10.3487 -10.3487 -10.3402 -10.3402
   -10.3402 -10.3402 -10.3335 -10.3335 -10.2392 -10.2392 -10.2391 -10.2391
   -10.2372 -10.2372 -10.1826 -10.1826 -10.1826 -10.1825 -10.1527 -10.1527
   -10.1495 -10.1495 -10.1495 -10.1495   0.9527   0.9527   0.9620   0.9620
     0.9620   0.9620   1.0113   1.0113   1.0113   1.0113   1.0697   1.0697
     1.0856   1.0856   1.0856   1.0856   1.1297   1.1297   1.1780   1.1780
     1.1780   1.1780   1.2255   1.2255   1.2878   1.2878   1.2878   1.2878
     1.3102   1.3102   1.3169   1.3169   1.3225   1.3225   1.3225   1.3225
     1.3762   1.3762   1.3762   1.3762   1.3852   1.3852   1.3852   1.3852
     1.4826   1.4826   1.4826   1.4826   1.5395   1.5395   1.5395   1.5395
     1.5637   1.5637   1.5637   1.5637   1.5871   1.5871   1.6623   1.6623
     1.6623   1.6623   1.6841   1.6841   1.6841   1.6841   1.6874   1.6874
     1.6874   1.6874   1.6945   1.6945   1.6945   1.6945   1.7730   1.7730
     1.7730   1.7730   1.7821   1.7821   1.8586   1.8586   1.8597   1.8597
     1.8597   1.8597   1.8679   1.8679   1.8679   1.8679   1.8969   1.8969
     1.8969   1.8969   1.9133   1.9133   1.9195   1.9195   1.9824   1.9824
     1.9824   1.9824   2.0290   2.0290   2.0290   2.0290   2.0308   2.0308
     2.3853   2.3853   2.3853   2.3853   2.4172   2.4172   2.4172   2.4172
     2.4460   2.4460   2.4460   2.4460   2.5083   2.5083   2.5083   2.5083
     2.5266   2.5266   2.5393   2.5393   2.5393   2.5393   2.5468   2.5468
     2.5468   2.5468   2.5532   2.5532   2.5532   2.5532   2.5702   2.5702
     2.5702   2.5702   2.5851   2.5851   2.5851   2.5851   2.5930   2.5930
     2.6133   2.6133   2.6172   2.6172   2.6172   2.6172   2.6425   2.6425
     2.6425   2.6425   2.6574   2.6574   2.6804   2.6804   2.6804   2.6804
     2.6978   2.6978   2.7390   2.7390   2.7390   2.7390   2.7411   2.7411
     2.7606   2.7606   2.7606   2.7606   2.8696   2.8696   2.8696   2.8696
     3.1154   3.1154   3.1154   3.1154   3.1660   3.1660   3.1878   3.1878
     3.2007   3.2007   3.3424   3.3424   3.3424   3.3424   3.3761   3.3761
     3.4275   3.4275   3.4275   3.4275   3.6971   3.6971   3.6971   3.6971
     3.8757   3.8757   3.8757   3.8757   3.9351   3.9351   3.9351   3.9351
     4.2091   4.2091   4.2091   4.2091   4.4237   4.4237   4.6167   4.6167
     4.6168   4.6168   4.6229   4.6229   4.6229   4.6229   4.6601   4.6601
     4.8200   4.8200   4.9299   4.9299   4.9299   4.9299   5.1856   5.1856
     5.1856   5.1856   5.4385   5.4385   5.5303   5.5303   5.5303   5.5303
     5.5539   5.5539   5.5972   5.5972   5.5972   5.5972   5.6422   5.6422
     5.6422   5.6422   5.7224   5.7224   5.7224   5.7224   5.7267   5.7267
     5.7986   5.7986   5.7986   5.7986   5.9986   5.9986   6.1084   6.1084
     6.1085   6.1085   6.1772   6.1772   6.1772   6.1772   6.2254   6.2254
     6.2254   6.2254   6.2429   6.2429   6.5108   6.5108   6.5108   6.5108
     6.8374   6.8374   6.8374   6.8374

     occupation numbers 
     1.0000   1.0000   1.0000   1.0000   1.0000   1.0000   1.0000   1.0000
     1.0000   1.0000   1.0000   1.0000   1.0000   1.0000   1.0000   1.0000
     1.0000   1.0000   1.0000   1.0000   1.0000   1.0000   1.0000   1.0000
     1.0000   1.0000   1.0000   1.0000   1.0000   1.0000   1.0000   1.0000
     1.0000   1.0000   1.0000   1.0000   1.0000   1.0000   1.0000   1.0000
     1.0000   1.0000   1.0000   1.0000   1.0000   1.0000   1.0000   1.0000
     1.0000   1.0000   1.0000   1.0000   1.0000   1.0000   1.0000   1.0000
     1.0000   1.0000   1.0000   1.0000   1.0000   1.0000   1.0000   1.0000
     1.0000   1.0000   1.0000   1.0000   1.0000   1.0000   1.0000   1.0000
     1.0000   1.0000   1.0000   1.0000   1.0000   1.0000   1.0000   1.0000
     1.0000   1.0000   1.0000   1.0000   1.0000   1.0000   1.0000   1.0000
     1.0000   1.0000   1.0000   1.0000   1.0000   1.0000   1.0000   1.0000
     1.0000   1.0000   1.0000   1.0000   1.0000   1.0000   1.0000   1.0000
     1.0000   1.0000   1.0000   1.0000   1.0000   1.0000   1.0000   1.0000
     1.0000   1.0000   1.0000   1.0000   1.0000   1.0000   1.0000   1.0000
     1.0000   1.0000   1.0000   1.0000   1.0000   1.0000   1.0000   1.0000
     1.0000   1.0000   1.0000   1.0000   1.0000   1.0000   1.0000   1.0000
     1.0000   1.0000   1.0000   1.0000   1.0000   1.0000   1.0000   1.0000
     1.0000   1.0000   1.0000   1.0000   1.0000   1.0000   1.0000   1.0000
     1.0000   1.0000   1.0000   1.0000   1.0000   1.0000   1.0000   1.0000
     1.0000   1.0000   1.0000   1.0000   1.0000   1.0000   1.0000   1.0000
     1.0000   1.0000   1.0000   1.0000   1.0000   1.0000   1.0000   1.0000
     1.0000   1.0000   1.0000   1.0000   1.0000   1.0000   1.0000   1.0000
     1.0000   1.0000   1.0000   1.0000   1.0000   1.0000   1.0000   1.0000
     1.0000   1.0000   1.0000   1.0000   1.0000   1.0000   1.0000   1.0000
     1.0000   1.0000   1.0000   1.0000   1.0000   1.0000   1.0000   1.0000
     1.0000   1.0000   1.0000   1.0000   1.0000   1.0000   1.0000   1.0000
     1.0000   1.0000   1.0000   1.0000   1.0000   1.0000   1.0000   1.0000
     1.0000   1.0000   1.0000   1.0000   1.0000   1.0000   1.0000   1.0000
     1.0000   1.0000   1.0000   1.0000   1.0000   1.0000   1.0000   1.0000
     1.0000   1.0000   1.0000   1.0000   1.0000   1.0000   1.0000   1.0000
     1.0000   1.0000   1.0000   1.0000   1.0000   1.0000   1.0000   1.0000
     1.0000   1.0000   1.0000   1.0000   1.0000   1.0000   1.0000   1.0000
     1.0000   1.0000   1.0000   1.0000   1.0000   1.0000   1.0000   1.0000
     1.0000   1.0000   1.0000   1.0000   1.0000   1.0000   1.0000   1.0000
     1.0000   1.0000   1.0000   1.0000   1.0000   1.0000   1.0000   1.0000
     1.0000   1.0000   1.0000   1.0000   1.0000   1.0000   1.0000   1.0000
     1.0000   1.0000   1.0000   1.0000   1.0000   1.0000   1.0000   1.0000
     1.0000   1.0000   1.0000   1.0000   1.0000   1.0000   1.0000   1.0000
     1.0000   1.0000   1.0000   1.0000   1.0000   1.0000   1.0000   1.0000
     1.0000   1.0000   1.0000   1.0000

          k = 0.0000-0.3849 0.0000 ( 35424 PWs)   bands (ev):

   -10.8594 -10.8594 -10.7128 -10.7128 -10.7128 -10.7128 -10.4121 -10.4121
   -10.4121 -10.4121 -10.3567 -10.3567 -10.3493 -10.3493 -10.2962 -10.2962
   -10.2962 -10.2962 -10.2915 -10.2915 -10.2915 -10.2915 -10.2582 -10.2582
   -10.1869 -10.1868 -10.1868 -10.1868 -10.1859 -10.1859 -10.1859 -10.1859
   -10.1407 -10.1407 -10.1368 -10.1368   0.9825   0.9825   0.9825   0.9825
     1.0471   1.0471   1.0471   1.0471   1.0820   1.0820   1.0820   1.0820
     1.1038   1.1038   1.1038   1.1038   1.1141   1.1141   1.1443   1.1443
     1.1443   1.1443   1.1787   1.1787   1.1968   1.1968   1.1968   1.1968
     1.2098   1.2098   1.3230   1.3230   1.3939   1.3939   1.4175   1.4175
     1.4331   1.4331   1.4331   1.4331   1.4425   1.4425   1.4425   1.4425
     1.4529   1.4529   1.4978   1.4978   1.5220   1.5220   1.5220   1.5220
     1.5437   1.5437   1.5437   1.5437   1.5609   1.5609   1.5839   1.5839
     1.5839   1.5839   1.5839   1.5839   1.6182   1.6182   1.6641   1.6641
     1.6641   1.6641   1.6647   1.6647   1.7338   1.7338   1.7338   1.7338
     1.7926   1.7926   1.8687   1.8687   1.8687   1.8687   1.8803   1.8803
     1.8803   1.8803   1.8904   1.8904   1.8904   1.8904   1.9133   1.9133
     1.9133   1.9133   1.9178   1.9178   1.9178   1.9178   1.9413   1.9413
     1.9538   1.9538   2.0460   2.0460   2.0753   2.0753   2.1149   2.1149
     2.3719   2.3719   2.4055   2.4055   2.4269   2.4269   2.4642   2.4642
     2.4695   2.4695   2.4695   2.4695   2.4731   2.4731   2.4884   2.4884
     2.4884   2.4884   2.4958   2.4958   2.4958   2.4958   2.5677   2.5677
     2.5677   2.5677   2.5909   2.5909   2.5935   2.5935   2.5935   2.5935
     2.6003   2.6003   2.6003   2.6003   2.6172   2.6172   2.6172   2.6172
     2.6268   2.6268   2.6268   2.6268   2.6330   2.6330   2.6330   2.6330
     2.6358   2.6358   2.6705   2.6705   2.6836   2.6836   2.6913   2.6913
     2.6913   2.6913   2.7318   2.7318   2.7318   2.7318   2.7418   2.7418
     2.7479   2.7479   2.8116   2.8116   2.8116   2.8116   2.8614   2.8614
     2.8732   2.8732   3.0747   3.0747   3.1456   3.1456   3.1456   3.1456
     3.2047   3.2047   3.2568   3.2568   3.2568   3.2568   3.2754   3.2754
     3.2754   3.2754   3.4268   3.4268   3.5916   3.5916   3.5916   3.5916
     3.6813   3.6813   3.9342   3.9342   3.9342   3.9342   4.1030   4.1030
     4.1406   4.1406   4.4220   4.4220   4.5350   4.5350   4.5350   4.5350
     4.7139   4.7139   5.0141   5.0141   5.0141   5.0141   5.0817   5.0817
     5.0817   5.0817   5.0927   5.0927   5.0927   5.0927   5.1229   5.1229
     5.1229   5.1229   5.2256   5.2256   5.3813   5.3813   5.3813   5.3813
     5.5974   5.5974   5.5974   5.5974   5.6135   5.6135   5.6402   5.6402
     5.7659   5.7659   5.7659   5.7659   5.7793   5.7793   5.7885   5.7885
     5.7926   5.7926   5.7926   5.7926   5.7975   5.7975   5.8447   5.8447
     5.8447   5.8447   6.0234   6.0234   6.0234   6.0234   6.0830   6.0830
     6.2837   6.2837   6.2837   6.2837   6.4800   6.4800   6.4800   6.4800
     6.6255   6.6255   6.7030   6.7030

     occupation numbers 
     1.0000   1.0000   1.0000   1.0000   1.0000   1.0000   1.0000   1.0000
     1.0000   1.0000   1.0000   1.0000   1.0000   1.0000   1.0000   1.0000
     1.0000   1.0000   1.0000   1.0000   1.0000   1.0000   1.0000   1.0000
     1.0000   1.0000   1.0000   1.0000   1.0000   1.0000   1.0000   1.0000
     1.0000   1.0000   1.0000   1.0000   1.0000   1.0000   1.0000   1.0000
     1.0000   1.0000   1.0000   1.0000   1.0000   1.0000   1.0000   1.0000
     1.0000   1.0000   1.0000   1.0000   1.0000   1.0000   1.0000   1.0000
     1.0000   1.0000   1.0000   1.0000   1.0000   1.0000   1.0000   1.0000
     1.0000   1.0000   1.0000   1.0000   1.0000   1.0000   1.0000   1.0000
     1.0000   1.0000   1.0000   1.0000   1.0000   1.0000   1.0000   1.0000
     1.0000   1.0000   1.0000   1.0000   1.0000   1.0000   1.0000   1.0000
     1.0000   1.0000   1.0000   1.0000   1.0000   1.0000   1.0000   1.0000
     1.0000   1.0000   1.0000   1.0000   1.0000   1.0000   1.0000   1.0000
     1.0000   1.0000   1.0000   1.0000   1.0000   1.0000   1.0000   1.0000
     1.0000   1.0000   1.0000   1.0000   1.0000   1.0000   1.0000   1.0000
     1.0000   1.0000   1.0000   1.0000   1.0000   1.0000   1.0000   1.0000
     1.0000   1.0000   1.0000   1.0000   1.0000   1.0000   1.0000   1.0000
     1.0000   1.0000   1.0000   1.0000   1.0000   1.0000   1.0000   1.0000
     1.0000   1.0000   1.0000   1.0000   1.0000   1.0000   1.0000   1.0000
     1.0000   1.0000   1.0000   1.0000   1.0000   1.0000   1.0000   1.0000
     1.0000   1.0000   1.0000   1.0000   1.0000   1.0000   1.0000   1.0000
     1.0000   1.0000   1.0000   1.0000   1.0000   1.0000   1.0000   1.0000
     1.0000   1.0000   1.0000   1.0000   1.0000   1.0000   1.0000   1.0000
     1.0000   1.0000   1.0000   1.0000   1.0000   1.0000   1.0000   1.0000
     1.0000   1.0000   1.0000   1.0000   1.0000   1.0000   1.0000   1.0000
     1.0000   1.0000   1.0000   1.0000   1.0000   1.0000   1.0000   1.0000
     1.0000   1.0000   1.0000   1.0000   1.0000   1.0000   1.0000   1.0000
     1.0000   1.0000   1.0000   1.0000   1.0000   1.0000   1.0000   1.0000
     1.0000   1.0000   1.0000   1.0000   1.0000   1.0000   1.0000   1.0000
     1.0000   1.0000   1.0000   1.0000   1.0000   1.0000   1.0000   1.0000
     1.0000   1.0000   1.0000   1.0000   1.0000   1.0000   1.0000   1.0000
     1.0000   1.0000   1.0000   1.0000   1.0000   1.0000   1.0000   1.0000
     1.0000   1.0000   1.0000   1.0000   1.0000   1.0000   1.0000   1.0000
     1.0000   1.0000   1.0000   1.0000   1.0000   1.0000   1.0000   1.0000
     1.0000   1.0000   1.0000   1.0000   1.0000   1.0000   1.0000   1.0000
     1.0000   1.0000   1.0000   1.0000   1.0000   1.0000   1.0000   1.0000
     1.0000   1.0000   1.0000   1.0000   1.0000   1.0000   1.0000   1.0000
     1.0000   1.0000   1.0000   1.0000   1.0000   1.0000   1.0000   1.0000
     1.0000   1.0000   1.0000   1.0000   1.0000   1.0000   1.0000   1.0000
     1.0000   1.0000   1.0000   1.0000   1.0000   1.0000   1.0000   1.0000
     1.0000   1.0000   1.0000   1.0000

          k = 0.0000-0.3849-0.2065 ( 35428 PWs)   bands (ev):

   -10.8204 -10.8204 -10.8204 -10.8204 -10.5637 -10.5637 -10.5637 -10.5637
   -10.3402 -10.3402 -10.3402 -10.3402 -10.3335 -10.3335 -10.3335 -10.3335
   -10.2996 -10.2996 -10.2996 -10.2996 -10.2392 -10.2392 -10.2391 -10.2391
   -10.2372 -10.2372 -10.2372 -10.2372 -10.1527 -10.1527 -10.1527 -10.1527
   -10.1495 -10.1495 -10.1495 -10.1495   0.9527   0.9527   0.9527   0.9527
     1.0549   1.0549   1.0549   1.0549   1.0697   1.0697   1.0697   1.0697
     1.0856   1.0856   1.0856   1.0856   1.1496   1.1496   1.1496   1.1496
     1.1780   1.1780   1.1780   1.1780   1.2255   1.2255   1.2255   1.2255
     1.3367   1.3367   1.3367   1.3367   1.3762   1.3762   1.3762   1.3762
     1.4035   1.4035   1.4035   1.4035   1.4548   1.4548   1.4548   1.4548
     1.4698   1.4698   1.4698   1.4698   1.4827   1.4827   1.4827   1.4827
     1.5637   1.5637   1.5637   1.5637   1.5871   1.5871   1.5871   1.5871
     1.5905   1.5905   1.5905   1.5905   1.5969   1.5969   1.5969   1.5969
     1.6623   1.6623   1.6623   1.6623   1.7730   1.7730   1.7730   1.7730
     1.7821   1.7821   1.7821   1.7821   1.8586   1.8586   1.8586   1.8586
     1.8597   1.8597   1.8597   1.8597   1.9133   1.9133   1.9133   1.9133
     1.9195   1.9195   1.9195   1.9195   1.9824   1.9824   1.9824   1.9824
     2.0290   2.0290   2.0290   2.0290   2.0308   2.0308   2.0308   2.0308
     2.4014   2.4014   2.4014   2.4014   2.4172   2.4172   2.4172   2.4172
     2.4440   2.4440   2.4440   2.4440   2.5266   2.5266   2.5266   2.5266
     2.5393   2.5393   2.5393   2.5393   2.5440   2.5440   2.5440   2.5440
     2.5485   2.5485   2.5485   2.5485   2.5532   2.5532   2.5532   2.5532
     2.5930   2.5930   2.5930   2.5930   2.6133   2.6133   2.6133   2.6133
     2.6255   2.6255   2.6256   2.6256   2.6574   2.6574   2.6574   2.6574
     2.6725   2.6725   2.6725   2.6725   2.6804   2.6804   2.6804   2.6804
     2.6978   2.6978   2.6978   2.6978   2.7390   2.7390   2.7390   2.7390
     2.7411   2.7411   2.7411   2.7411   2.8696   2.8696   2.8696   2.8696
     3.1154   3.1154   3.1154   3.1154   3.1660   3.1660   3.1660   3.1660
     3.1878   3.1878   3.1878   3.1878   3.2560   3.2560   3.2560   3.2560
     3.3761   3.3761   3.3761   3.3761   3.4275   3.4275   3.4275   3.4275
     3.6971   3.6971   3.6971   3.6971   4.2091   4.2091   4.2091   4.2091
     4.4237   4.4237   4.4237   4.4237   4.6007   4.6007   4.6007   4.6007
     4.6167   4.6167   4.6168   4.6168   4.8200   4.8200   4.8200   4.8200
     4.9299   4.9299   4.9299   4.9299   5.2750   5.2750   5.2750   5.2750
     5.4385   5.4385   5.4385   5.4385   5.5539   5.5539   5.5539   5.5539
     5.5972   5.5972   5.5972   5.5972   5.6314   5.6314   5.6314   5.6314
     5.6422   5.6422   5.6422   5.6422   5.7267   5.7267   5.7267   5.7267
     5.7986   5.7986   5.7986   5.7986   5.8519   5.8519   5.8519   5.8519
     5.9119   5.9119   5.9119   5.9119   5.9986   5.9986   5.9986   5.9986
     6.2537   6.2537   6.2537   6.2537   6.5472   6.5472   6.5472   6.5472
     6.6435   6.6435   6.6435   6.6435

     occupation numbers 
     1.0000   1.0000   1.0000   1.0000   1.0000   1.0000   1.0000   1.0000
     1.0000   1.0000   1.0000   1.0000   1.0000   1.0000   1.0000   1.0000
     1.0000   1.0000   1.0000   1.0000   1.0000   1.0000   1.0000   1.0000
     1.0000   1.0000   1.0000   1.0000   1.0000   1.0000   1.0000   1.0000
     1.0000   1.0000   1.0000   1.0000   1.0000   1.0000   1.0000   1.0000
     1.0000   1.0000   1.0000   1.0000   1.0000   1.0000   1.0000   1.0000
     1.0000   1.0000   1.0000   1.0000   1.0000   1.0000   1.0000   1.0000
     1.0000   1.0000   1.0000   1.0000   1.0000   1.0000   1.0000   1.0000
     1.0000   1.0000   1.0000   1.0000   1.0000   1.0000   1.0000   1.0000
     1.0000   1.0000   1.0000   1.0000   1.0000   1.0000   1.0000   1.0000
     1.0000   1.0000   1.0000   1.0000   1.0000   1.0000   1.0000   1.0000
     1.0000   1.0000   1.0000   1.0000   1.0000   1.0000   1.0000   1.0000
     1.0000   1.0000   1.0000   1.0000   1.0000   1.0000   1.0000   1.0000
     1.0000   1.0000   1.0000   1.0000   1.0000   1.0000   1.0000   1.0000
     1.0000   1.0000   1.0000   1.0000   1.0000   1.0000   1.0000   1.0000
     1.0000   1.0000   1.0000   1.0000   1.0000   1.0000   1.0000   1.0000
     1.0000   1.0000   1.0000   1.0000   1.0000   1.0000   1.0000   1.0000
     1.0000   1.0000   1.0000   1.0000   1.0000   1.0000   1.0000   1.0000
     1.0000   1.0000   1.0000   1.0000   1.0000   1.0000   1.0000   1.0000
     1.0000   1.0000   1.0000   1.0000   1.0000   1.0000   1.0000   1.0000
     1.0000   1.0000   1.0000   1.0000   1.0000   1.0000   1.0000   1.0000
     1.0000   1.0000   1.0000   1.0000   1.0000   1.0000   1.0000   1.0000
     1.0000   1.0000   1.0000   1.0000   1.0000   1.0000   1.0000   1.0000
     1.0000   1.0000   1.0000   1.0000   1.0000   1.0000   1.0000   1.0000
     1.0000   1.0000   1.0000   1.0000   1.0000   1.0000   1.0000   1.0000
     1.0000   1.0000   1.0000   1.0000   1.0000   1.0000   1.0000   1.0000
     1.0000   1.0000   1.0000   1.0000   1.0000   1.0000   1.0000   1.0000
     1.0000   1.0000   1.0000   1.0000   1.0000   1.0000   1.0000   1.0000
     1.0000   1.0000   1.0000   1.0000   1.0000   1.0000   1.0000   1.0000
     1.0000   1.0000   1.0000   1.0000   1.0000   1.0000   1.0000   1.0000
     1.0000   1.0000   1.0000   1.0000   1.0000   1.0000   1.0000   1.0000
     1.0000   1.0000   1.0000   1.0000   1.0000   1.0000   1.0000   1.0000
     1.0000   1.0000   1.0000   1.0000   1.0000   1.0000   1.0000   1.0000
     1.0000   1.0000   1.0000   1.0000   1.0000   1.0000   1.0000   1.0000
     1.0000   1.0000   1.0000   1.0000   1.0000   1.0000   1.0000   1.0000
     1.0000   1.0000   1.0000   1.0000   1.0000   1.0000   1.0000   1.0000
     1.0000   1.0000   1.0000   1.0000   1.0000   1.0000   1.0000   1.0000
     1.0000   1.0000   1.0000   1.0000   1.0000   1.0000   1.0000   1.0000
     1.0000   1.0000   1.0000   1.0000   1.0000   1.0000   1.0000   1.0000
     1.0000   1.0000   1.0000   1.0000   1.0000   1.0000   1.0000   1.0000
     1.0000   1.0000   1.0000   1.0000

          k = 0.3333 0.1925 0.0000 ( 35452 PWs)   bands (ev):

   -10.8594 -10.7128 -10.7128 -10.6322 -10.5470 -10.5470 -10.5179 -10.5179
   -10.4472 -10.4472 -10.4472 -10.4472 -10.4121 -10.4121 -10.3567 -10.2962
   -10.2962 -10.2905 -10.2905 -10.2582 -10.2520 -10.2520 -10.2520 -10.2520
   -10.1943 -10.1943 -10.1873 -10.1873 -10.1873 -10.1873 -10.1859 -10.1859
   -10.1782 -10.1575 -10.1575 -10.1368   0.9558   0.9558   0.9558   0.9558
     1.0368   1.0368   1.0419   1.0419   1.0820   1.0820   1.0906   1.0906
     1.0906   1.0906   1.1038   1.1038   1.1268   1.1268   1.1443   1.1443
     1.1448   1.1787   1.1968   1.1968   1.2098   1.2800   1.3347   1.3780
     1.3780   1.3917   1.3917   1.3939   1.4031   1.4031   1.4031   1.4031
     1.4175   1.4331   1.4331   1.4425   1.4425   1.4529   1.4978   1.5169
     1.5169   1.5196   1.5196   1.5220   1.5220   1.5272   1.5381   1.5381
     1.5437   1.5437   1.5839   1.5839   1.5839   1.5845   1.5967   1.5967
     1.5967   1.5967   1.6182   1.6647   1.6673   1.6673   1.6673   1.6673
     1.6688   1.6688   1.6853   1.6853   1.7170   1.7170   1.7197   1.7197
     1.7338   1.7338   1.7417   1.7417   1.7583   1.7583   1.7583   1.7583
     1.7846   1.7846   1.7846   1.7846   1.7926   1.8373   1.8904   1.8904
     1.9005   1.9005   1.9133   1.9133   1.9688   2.0258   2.0312   2.0312
     2.0460   2.0771   2.0771   2.0771   2.0771   2.1149   2.2690   2.2690
     2.3226   2.3484   2.3484   2.3627   2.3719   2.4055   2.4064   2.4064
     2.4269   2.4473   2.4607   2.4607   2.4609   2.4609   2.4695   2.4695
     2.4731   2.4787   2.4787   2.4787   2.4787   2.4858   2.4884   2.4884
     2.4958   2.4958   2.4988   2.4988   2.5183   2.5183   2.5316   2.5316
     2.5339   2.5339   2.5339   2.5339   2.5677   2.5677   2.5935   2.5935
     2.6056   2.6056   2.6097   2.6097   2.6097   2.6097   2.6172   2.6172
     2.6358   2.6485   2.6552   2.6552   2.6725   2.6725   2.6819   2.6819
     2.6819   2.6819   2.6836   2.6913   2.6913   2.7479   2.8116   2.8116
     2.8131   2.8131   2.8198   2.8530   2.8530   2.8530   2.8530   2.8614
     2.8732   3.0203   3.0747   3.0838   3.0838   3.2410   3.2568   3.2568
     3.2872   3.2872   3.2872   3.2872   3.4120   3.4120   3.5916   3.5916
     3.6415   3.6415   3.6415   3.6415   3.6813   3.7941   3.7941   3.8035
     3.8035   3.8659   3.8659   3.9342   3.9342   4.0473   4.0473   4.0473
     4.0473   4.1030   4.4220   4.4226   4.4657   4.4657   4.5350   4.5350
     4.6354   4.6506   4.6506   4.7452   4.7452   4.9084   4.9084   4.9084
     4.9084   4.9825   4.9825   5.0283   5.0283   5.0817   5.0817   5.0972
     5.0972   5.1229   5.1229   5.2182   5.2256   5.2290   5.3664   5.3664
     5.3813   5.3813   5.4185   5.4185   5.4185   5.4185   5.5234   5.5234
     5.5234   5.5234   5.5974   5.5974   5.6135   5.7793   5.7885   5.7975
     5.8447   5.8447   5.9570   5.9570   5.9792   5.9792   5.9792   5.9792
     6.0154   6.0154   6.0154   6.0154   6.0234   6.0234   6.0904   6.0904
     6.0930   6.0930   6.2536   6.2837   6.2837   6.2863   6.3016   6.3016
     6.4800   6.4800   6.6255   6.7030

     occupation numbers 
     1.0000   1.0000   1.0000   1.0000   1.0000   1.0000   1.0000   1.0000
     1.0000   1.0000   1.0000   1.0000   1.0000   1.0000   1.0000   1.0000
     1.0000   1.0000   1.0000   1.0000   1.0000   1.0000   1.0000   1.0000
     1.0000   1.0000   1.0000   1.0000   1.0000   1.0000   1.0000   1.0000
     1.0000   1.0000   1.0000   1.0000   1.0000   1.0000   1.0000   1.0000
     1.0000   1.0000   1.0000   1.0000   1.0000   1.0000   1.0000   1.0000
     1.0000   1.0000   1.0000   1.0000   1.0000   1.0000   1.0000   1.0000
     1.0000   1.0000   1.0000   1.0000   1.0000   1.0000   1.0000   1.0000
     1.0000   1.0000   1.0000   1.0000   1.0000   1.0000   1.0000   1.0000
     1.0000   1.0000   1.0000   1.0000   1.0000   1.0000   1.0000   1.0000
     1.0000   1.0000   1.0000   1.0000   1.0000   1.0000   1.0000   1.0000
     1.0000   1.0000   1.0000   1.0000   1.0000   1.0000   1.0000   1.0000
     1.0000   1.0000   1.0000   1.0000   1.0000   1.0000   1.0000   1.0000
     1.0000   1.0000   1.0000   1.0000   1.0000   1.0000   1.0000   1.0000
     1.0000   1.0000   1.0000   1.0000   1.0000   1.0000   1.0000   1.0000
     1.0000   1.0000   1.0000   1.0000   1.0000   1.0000   1.0000   1.0000
     1.0000   1.0000   1.0000   1.0000   1.0000   1.0000   1.0000   1.0000
     1.0000   1.0000   1.0000   1.0000   1.0000   1.0000   1.0000   1.0000
     1.0000   1.0000   1.0000   1.0000   1.0000   1.0000   1.0000   1.0000
     1.0000   1.0000   1.0000   1.0000   1.0000   1.0000   1.0000   1.0000
     1.0000   1.0000   1.0000   1.0000   1.0000   1.0000   1.0000   1.0000
     1.0000   1.0000   1.0000   1.0000   1.0000   1.0000   1.0000   1.0000
     1.0000   1.0000   1.0000   1.0000   1.0000   1.0000   1.0000   1.0000
     1.0000   1.0000   1.0000   1.0000   1.0000   1.0000   1.0000   1.0000
     1.0000   1.0000   1.0000   1.0000   1.0000   1.0000   1.0000   1.0000
     1.0000   1.0000   1.0000   1.0000   1.0000   1.0000   1.0000   1.0000
     1.0000   1.0000   1.0000   1.0000   1.0000   1.0000   1.0000   1.0000
     1.0000   1.0000   1.0000   1.0000   1.0000   1.0000   1.0000   1.0000
     1.0000   1.0000   1.0000   1.0000   1.0000   1.0000   1.0000   1.0000
     1.0000   1.0000   1.0000   1.0000   1.0000   1.0000   1.0000   1.0000
     1.0000   1.0000   1.0000   1.0000   1.0000   1.0000   1.0000   1.0000
     1.0000   1.0000   1.0000   1.0000   1.0000   1.0000   1.0000   1.0000
     1.0000   1.0000   1.0000   1.0000   1.0000   1.0000   1.0000   1.0000
     1.0000   1.0000   1.0000   1.0000   1.0000   1.0000   1.0000   1.0000
     1.0000   1.0000   1.0000   1.0000   1.0000   1.0000   1.0000   1.0000
     1.0000   1.0000   1.0000   1.0000   1.0000   1.0000   1.0000   1.0000
     1.0000   1.0000   1.0000   1.0000   1.0000   1.0000   1.0000   1.0000
     1.0000   1.0000   1.0000   1.0000   1.0000   1.0000   1.0000   1.0000
     1.0000   1.0000   1.0000   1.0000   1.0000   1.0000   1.0000   1.0000
     1.0000   1.0000   1.0000   1.0000   1.0000   1.0000   1.0000   1.0000
     1.0000   1.0000   1.0000   1.0000

          k = 0.3333 0.1925-0.2065 ( 35404 PWs)   bands (ev):

   -10.8204 -10.8204 -10.6016 -10.6016 -10.5637 -10.5637 -10.5201 -10.5201
   -10.5201 -10.5201 -10.4039 -10.4039 -10.3487 -10.3487 -10.3487 -10.3487
   -10.3402 -10.3402 -10.2996 -10.2996 -10.2391 -10.2391 -10.2082 -10.2082
   -10.1920 -10.1920 -10.1920 -10.1920 -10.1849 -10.1849 -10.1826 -10.1826
   -10.1826 -10.1826 -10.1495 -10.1495   0.9620   0.9620   0.9620   0.9620
     1.0113   1.0113   1.0113   1.0113   1.0209   1.0209   1.0549   1.0549
     1.0856   1.0856   1.1086   1.1086   1.1496   1.1496   1.1780   1.1780
     1.2850   1.2850   1.2878   1.2878   1.2878   1.2878   1.3081   1.3081
     1.3212   1.3212   1.3367   1.3367   1.3762   1.3762   1.4035   1.4035
     1.4548   1.4548   1.4698   1.4698   1.4827   1.4827   1.5188   1.5188
     1.5305   1.5305   1.5328   1.5328   1.5395   1.5395   1.5395   1.5395
     1.5573   1.5573   1.5637   1.5637   1.5787   1.5787   1.5787   1.5787
     1.5905   1.5905   1.5969   1.5969   1.6623   1.6623   1.6781   1.6781
     1.6841   1.6841   1.6841   1.6841   1.6874   1.6874   1.6874   1.6874
     1.6945   1.6945   1.6945   1.6945   1.7730   1.7730   1.8092   1.8092
     1.8094   1.8094   1.8597   1.8597   1.8679   1.8679   1.8679   1.8679
     1.8969   1.8969   1.8969   1.8969   1.9187   1.9187   1.9824   1.9824
     2.0290   2.0290   2.0556   2.0556   2.1585   2.1585   2.1585   2.1585
     2.3643   2.3643   2.3793   2.3793   2.3853   2.3853   2.3853   2.3853
     2.4014   2.4014   2.4172   2.4172   2.4346   2.4346   2.4440   2.4440
     2.4789   2.4789   2.4792   2.4792   2.5083   2.5083   2.5083   2.5083
     2.5393   2.5393   2.5440   2.5440   2.5485   2.5485   2.5519   2.5519
     2.5532   2.5532   2.5702   2.5702   2.5702   2.5702   2.5835   2.5835
     2.5851   2.5851   2.5851   2.5851   2.6255   2.6256   2.6364   2.6364
     2.6425   2.6425   2.6425   2.6425   2.6725   2.6725   2.6804   2.6804
     2.6812   2.6812   2.6812   2.6812   2.7390   2.7390   2.7501   2.7501
     2.7606   2.7606   2.7606   2.7606   2.8696   2.8696   2.9255   2.9255
     3.1154   3.1154   3.2429   3.2429   3.2560   3.2560   3.3424   3.3424
     3.3424   3.3424   3.3685   3.3685   3.3685   3.3685   3.3752   3.3752
     3.4090   3.4090   3.4275   3.4275   3.6971   3.6971   3.8757   3.8757
     3.8757   3.8757   3.9351   3.9351   3.9351   3.9351   4.2091   4.2091
     4.2135   4.2135   4.2827   4.2827   4.5550   4.5550   4.6007   4.6007
     4.6101   4.6101   4.6167   4.6168   4.6229   4.6229   4.6229   4.6229
     4.9299   4.9299   5.0893   5.0893   5.1856   5.1856   5.1856   5.1856
     5.1982   5.1982   5.1982   5.1982   5.2327   5.2327   5.2750   5.2750
     5.5300   5.5300   5.5303   5.5303   5.5303   5.5303   5.5972   5.5972
     5.6314   5.6314   5.6422   5.6422   5.6817   5.6817   5.7224   5.7224
     5.7224   5.7224   5.7236   5.7236   5.7986   5.7986   5.8519   5.8519
     5.9119   5.9119   6.1084   6.1084   6.1085   6.1085   6.1732   6.1732
     6.2254   6.2254   6.2254   6.2254   6.2537   6.2537   6.2738   6.2738
     6.5472   6.5472   6.6435   6.6435

     occupation numbers 
     1.0000   1.0000   1.0000   1.0000   1.0000   1.0000   1.0000   1.0000
     1.0000   1.0000   1.0000   1.0000   1.0000   1.0000   1.0000   1.0000
     1.0000   1.0000   1.0000   1.0000   1.0000   1.0000   1.0000   1.0000
     1.0000   1.0000   1.0000   1.0000   1.0000   1.0000   1.0000   1.0000
     1.0000   1.0000   1.0000   1.0000   1.0000   1.0000   1.0000   1.0000
     1.0000   1.0000   1.0000   1.0000   1.0000   1.0000   1.0000   1.0000
     1.0000   1.0000   1.0000   1.0000   1.0000   1.0000   1.0000   1.0000
     1.0000   1.0000   1.0000   1.0000   1.0000   1.0000   1.0000   1.0000
     1.0000   1.0000   1.0000   1.0000   1.0000   1.0000   1.0000   1.0000
     1.0000   1.0000   1.0000   1.0000   1.0000   1.0000   1.0000   1.0000
     1.0000   1.0000   1.0000   1.0000   1.0000   1.0000   1.0000   1.0000
     1.0000   1.0000   1.0000   1.0000   1.0000   1.0000   1.0000   1.0000
     1.0000   1.0000   1.0000   1.0000   1.0000   1.0000   1.0000   1.0000
     1.0000   1.0000   1.0000   1.0000   1.0000   1.0000   1.0000   1.0000
     1.0000   1.0000   1.0000   1.0000   1.0000   1.0000   1.0000   1.0000
     1.0000   1.0000   1.0000   1.0000   1.0000   1.0000   1.0000   1.0000
     1.0000   1.0000   1.0000   1.0000   1.0000   1.0000   1.0000   1.0000
     1.0000   1.0000   1.0000   1.0000   1.0000   1.0000   1.0000   1.0000
     1.0000   1.0000   1.0000   1.0000   1.0000   1.0000   1.0000   1.0000
     1.0000   1.0000   1.0000   1.0000   1.0000   1.0000   1.0000   1.0000
     1.0000   1.0000   1.0000   1.0000   1.0000   1.0000   1.0000   1.0000
     1.0000   1.0000   1.0000   1.0000   1.0000   1.0000   1.0000   1.0000
     1.0000   1.0000   1.0000   1.0000   1.0000   1.0000   1.0000   1.0000
     1.0000   1.0000   1.0000   1.0000   1.0000   1.0000   1.0000   1.0000
     1.0000   1.0000   1.0000   1.0000   1.0000   1.0000   1.0000   1.0000
     1.0000   1.0000   1.0000   1.0000   1.0000   1.0000   1.0000   1.0000
     1.0000   1.0000   1.0000   1.0000   1.0000   1.0000   1.0000   1.0000
     1.0000   1.0000   1.0000   1.0000   1.0000   1.0000   1.0000   1.0000
     1.0000   1.0000   1.0000   1.0000   1.0000   1.0000   1.0000   1.0000
     1.0000   1.0000   1.0000   1.0000   1.0000   1.0000   1.0000   1.0000
     1.0000   1.0000   1.0000   1.0000   1.0000   1.0000   1.0000   1.0000
     1.0000   1.0000   1.0000   1.0000   1.0000   1.0000   1.0000   1.0000
     1.0000   1.0000   1.0000   1.0000   1.0000   1.0000   1.0000   1.0000
     1.0000   1.0000   1.0000   1.0000   1.0000   1.0000   1.0000   1.0000
     1.0000   1.0000   1.0000   1.0000   1.0000   1.0000   1.0000   1.0000
     1.0000   1.0000   1.0000   1.0000   1.0000   1.0000   1.0000   1.0000
     1.0000   1.0000   1.0000   1.0000   1.0000   1.0000   1.0000   1.0000
     1.0000   1.0000   1.0000   1.0000   1.0000   1.0000   1.0000   1.0000
     1.0000   1.0000   1.0000   1.0000   1.0000   1.0000   1.0000   1.0000
     1.0000   1.0000   1.0000   1.0000   1.0000   1.0000   1.0000   1.0000
     1.0000   1.0000   1.0000   1.0000

          k = 0.3333-0.1925 0.0000 ( 35468 PWs)   bands (ev):

   -10.8594 -10.7128 -10.7128 -10.6322 -10.6322 -10.5179 -10.5179 -10.5179
   -10.5179 -10.4121 -10.4121 -10.3567 -10.3567 -10.3567 -10.2962 -10.2962
   -10.2962 -10.2962 -10.2962 -10.2962 -10.2905 -10.2905 -10.2905 -10.2905
   -10.2582 -10.1859 -10.1859 -10.1859 -10.1859 -10.1859 -10.1859 -10.1782
   -10.1782 -10.1368 -10.1368 -10.1368   1.0368   1.0368   1.0368   1.0368
     1.0820   1.0820   1.1038   1.1038   1.1038   1.1038   1.1038   1.1038
     1.1268   1.1268   1.1268   1.1268   1.1443   1.1443   1.1448   1.1448
     1.1787   1.1968   1.1968   1.1968   1.1968   1.1968   1.1968   1.2098
     1.2098   1.2098   1.3347   1.3347   1.3939   1.4175   1.4331   1.4331
     1.4425   1.4425   1.4529   1.4529   1.4529   1.4978   1.5169   1.5169
     1.5169   1.5169   1.5220   1.5220   1.5272   1.5272   1.5381   1.5381
     1.5381   1.5381   1.5437   1.5437   1.5839   1.5839   1.5839   1.5839
     1.5839   1.5839   1.5839   1.5839   1.5839   1.5845   1.5845   1.6182
     1.6647   1.6853   1.6853   1.6853   1.6853   1.7338   1.7338   1.7338
     1.7338   1.7338   1.7338   1.7417   1.7417   1.7417   1.7417   1.7926
     1.7926   1.7926   1.8373   1.8373   1.8904   1.8904   1.8904   1.8904
     1.8904   1.8904   1.9133   1.9133   1.9133   1.9133   1.9133   1.9133
     1.9688   1.9688   2.0460   2.0460   2.0460   2.1149   2.1149   2.1149
     2.3226   2.3226   2.3719   2.4055   2.4055   2.4055   2.4269   2.4473
     2.4473   2.4609   2.4609   2.4609   2.4609   2.4695   2.4695   2.4731
     2.4731   2.4731   2.4884   2.4884   2.4958   2.4958   2.4958   2.4958
     2.4958   2.4958   2.5183   2.5183   2.5183   2.5183   2.5677   2.5677
     2.5677   2.5677   2.5677   2.5677   2.5935   2.5935   2.6056   2.6056
     2.6056   2.6056   2.6172   2.6172   2.6358   2.6485   2.6485   2.6725
     2.6725   2.6725   2.6725   2.6836   2.6836   2.6836   2.6913   2.6913
     2.6913   2.6913   2.6913   2.6913   2.7479   2.8116   2.8116   2.8116
     2.8116   2.8116   2.8116   2.8198   2.8198   2.8614   2.8732   2.8732
     2.8732   3.0203   3.0203   3.0747   3.0747   3.0747   3.2568   3.2568
     3.2568   3.2568   3.2568   3.2568   3.5916   3.5916   3.5916   3.5916
     3.5916   3.5916   3.6813   3.6813   3.6813   3.8659   3.8659   3.8659
     3.8659   3.9342   3.9342   4.1030   4.1030   4.1030   4.4220   4.4220
     4.4220   4.4226   4.4226   4.4657   4.4657   4.4657   4.4657   4.5350
     4.5350   4.5350   4.5350   4.5350   4.5350   4.6354   4.6354   4.9825
     4.9825   4.9825   4.9825   5.0817   5.0817   5.0817   5.0817   5.0817
     5.0817   5.1229   5.1229   5.2256   5.2290   5.2290   5.3664   5.3664
     5.3664   5.3664   5.3813   5.3813   5.3813   5.3813   5.3813   5.3813
     5.5974   5.5974   5.6135   5.6135   5.6135   5.7793   5.7885   5.7975
     5.7975   5.7975   5.8447   5.8447   5.8447   5.8447   5.8447   5.8447
     5.9570   5.9570   5.9570   5.9570   6.0234   6.0234   6.0904   6.0904
     6.0904   6.0904   6.2536   6.2536   6.2837   6.2837   6.2863   6.2863
     6.4800   6.4800   6.6255   6.7030

     occupation numbers 
     1.0000   1.0000   1.0000   1.0000   1.0000   1.0000   1.0000   1.0000
     1.0000   1.0000   1.0000   1.0000   1.0000   1.0000   1.0000   1.0000
     1.0000   1.0000   1.0000   1.0000   1.0000   1.0000   1.0000   1.0000
     1.0000   1.0000   1.0000   1.0000   1.0000   1.0000   1.0000   1.0000
     1.0000   1.0000   1.0000   1.0000   1.0000   1.0000   1.0000   1.0000
     1.0000   1.0000   1.0000   1.0000   1.0000   1.0000   1.0000   1.0000
     1.0000   1.0000   1.0000   1.0000   1.0000   1.0000   1.0000   1.0000
     1.0000   1.0000   1.0000   1.0000   1.0000   1.0000   1.0000   1.0000
     1.0000   1.0000   1.0000   1.0000   1.0000   1.0000   1.0000   1.0000
     1.0000   1.0000   1.0000   1.0000   1.0000   1.0000   1.0000   1.0000
     1.0000   1.0000   1.0000   1.0000   1.0000   1.0000   1.0000   1.0000
     1.0000   1.0000   1.0000   1.0000   1.0000   1.0000   1.0000   1.0000
     1.0000   1.0000   1.0000   1.0000   1.0000   1.0000   1.0000   1.0000
     1.0000   1.0000   1.0000   1.0000   1.0000   1.0000   1.0000   1.0000
     1.0000   1.0000   1.0000   1.0000   1.0000   1.0000   1.0000   1.0000
     1.0000   1.0000   1.0000   1.0000   1.0000   1.0000   1.0000   1.0000
     1.0000   1.0000   1.0000   1.0000   1.0000   1.0000   1.0000   1.0000
     1.0000   1.0000   1.0000   1.0000   1.0000   1.0000   1.0000   1.0000
     1.0000   1.0000   1.0000   1.0000   1.0000   1.0000   1.0000   1.0000
     1.0000   1.0000   1.0000   1.0000   1.0000   1.0000   1.0000   1.0000
     1.0000   1.0000   1.0000   1.0000   1.0000   1.0000   1.0000   1.0000
     1.0000   1.0000   1.0000   1.0000   1.0000   1.0000   1.0000   1.0000
     1.0000   1.0000   1.0000   1.0000   1.0000   1.0000   1.0000   1.0000
     1.0000   1.0000   1.0000   1.0000   1.0000   1.0000   1.0000   1.0000
     1.0000   1.0000   1.0000   1.0000   1.0000   1.0000   1.0000   1.0000
     1.0000   1.0000   1.0000   1.0000   1.0000   1.0000   1.0000   1.0000
     1.0000   1.0000   1.0000   1.0000   1.0000   1.0000   1.0000   1.0000
     1.0000   1.0000   1.0000   1.0000   1.0000   1.0000   1.0000   1.0000
     1.0000   1.0000   1.0000   1.0000   1.0000   1.0000   1.0000   1.0000
     1.0000   1.0000   1.0000   1.0000   1.0000   1.0000   1.0000   1.0000
     1.0000   1.0000   1.0000   1.0000   1.0000   1.0000   1.0000   1.0000
     1.0000   1.0000   1.0000   1.0000   1.0000   1.0000   1.0000   1.0000
     1.0000   1.0000   1.0000   1.0000   1.0000   1.0000   1.0000   1.0000
     1.0000   1.0000   1.0000   1.0000   1.0000   1.0000   1.0000   1.0000
     1.0000   1.0000   1.0000   1.0000   1.0000   1.0000   1.0000   1.0000
[...]
     atom   20 type  2   force =     0.00000000   -0.00000000   -0.00006502
     atom   21 type  1   force =     0.00000001   -0.00000001    0.00046401
     atom   22 type  1   force =    -0.00000000   -0.00000001    0.00046401
     atom   23 type  2   force =    -0.00000000   -0.00000000   -0.00006503
     atom   24 type  2   force =    -0.00000000   -0.00000000   -0.00006503
     atom   25 type  1   force =     0.00000001    0.00000001    0.00046400
     atom   26 type  1   force =     0.00000001    0.00000001    0.00046401
     atom   27 type  2   force =     0.00000000    0.00000000   -0.00006503
     atom   28 type  2   force =    -0.00000000    0.00000000   -0.00006503
     atom   29 type  1   force =     0.00000001    0.00000000    0.00046402
     atom   30 type  1   force =     0.00000000   -0.00000001    0.00046401
     atom   31 type  2   force =     0.00000000   -0.00000000   -0.00006502
     atom   32 type  2   force =     0.00000000    0.00000001   -0.00006502
     atom   33 type  1   force =     0.00000001    0.00000001    0.00046401
     atom   34 type  1   force =     0.00000000    0.00000000    0.00046401
     atom   35 type  2   force =     0.00000000    0.00000000   -0.00006503
     atom   36 type  2   force =     0.00000000    0.00000000   -0.00006503
     atom   37 type  1   force =    -0.00000000   -0.00000001    0.00046400
     atom   38 type  1   force =    -0.00000001    0.00000000    0.00046401
     atom   39 type  2   force =     0.00000000    0.00000000   -0.00006503
     atom   40 type  2   force =    -0.00000000   -0.00000000   -0.00006503
     atom   41 type  1   force =     0.00000000    0.00000000    0.00046401
     atom   42 type  1   force =    -0.00000000    0.00000001    0.00046400
     atom   43 type  2   force =     0.00000000    0.00000000   -0.00006503
     atom   44 type  2   force =    -0.00000000   -0.00000000   -0.00006502
     atom   45 type  1   force =     0.00000001    0.00000000    0.00046400
     atom   46 type  1   force =     0.00000000    0.00000000    0.00046402
     atom   47 type  2   force =     0.00000000    0.00000001   -0.00006503
     atom   48 type  2   force =    -0.00000000   -0.00000000   -0.00006503
     atom   49 type  1   force =    -0.00000000   -0.00000000    0.00046400
     atom   50 type  1   force =     0.00000000   -0.00000001    0.00046400
     atom   51 type  2   force =    -0.00000000    0.00000000   -0.00006503
     atom   52 type  2   force =    -0.00000000   -0.00000000   -0.00006503
     atom   53 type  1   force =     0.00000001   -0.00000000    0.00046401
     atom   54 type  1   force =     0.00000000   -0.00000001    0.00046401
     atom   55 type  2   force =    -0.00000000   -0.00000000   -0.00006503
     atom   56 type  2   force =    -0.00000000    0.00000000   -0.00006502
     atom   57 type  1   force =    -0.00000001   -0.00000001    0.00046401
     atom   58 type  1   force =    -0.00000000   -0.00000000    0.00046402
     atom   59 type  2   force =    -0.00000000   -0.00000000   -0.00006503
     atom   60 type  2   force =    -0.00000000    0.00000000   -0.00006503
     atom   61 type  1   force =    -0.00000001   -0.00000000    0.00046399
     atom   62 type  1   force =    -0.00000000   -0.00000000    0.00046402
     atom   63 type  2   force =     0.00000000   -0.00000000   -0.00006503
     atom   64 type  2   force =     0.00000000    0.00000000   -0.00006503
     atom   65 type  1   force =     0.00000000   -0.00000000    0.00046402
     atom   66 type  1   force =    -0.00000001    0.00000000    0.00046401
     atom   67 type  2   force =    -0.00000000   -0.00000000   -0.00006503
     atom   68 type  2   force =     0.00000000    0.00000000   -0.00006502
     atom   69 type  1   force =    -0.00000001    0.00000000    0.00046401
     atom   70 type  1   force =    -0.00000000    0.00000000    0.00046402
     atom   71 type  2   force =    -0.00000000    0.00000000   -0.00006503
     atom   72 type  2   force =    -0.00000000    0.00000001   -0.00006503
     The Hubbard contrib.    to forces
     atom    1 type  1   force =     0.00000000    0.00000000    0.00000000
     atom    2 type  1   force =     0.00000000    0.00000000    0.00000000
     atom    3 type  2   force =     0.00000000    0.00000000    0.00000000
     atom    4 type  2   force =     0.00000000    0.00000000    0.00000000
     atom    5 type  1   force =     0.00000000    0.00000000    0.00000000
     atom    6 type  1   force =     0.00000000    0.00000000    0.00000000
     atom    7 type  2   force =     0.00000000    0.00000000    0.00000000
     atom    8 type  2   force =     0.00000000    0.00000000    0.00000000
     atom    9 type  1   force =     0.00000000    0.00000000    0.00000000
     atom   10 type  1   force =     0.00000000    0.00000000    0.00000000
     atom   11 type  2   force =     0.00000000    0.00000000    0.00000000
     atom   12 type  2   force =     0.00000000    0.00000000    0.00000000
     atom   13 type  1   force =     0.00000000    0.00000000    0.00000000
     atom   14 type  1   force =     0.00000000    0.00000000    0.00000000
     atom   15 type  2   force =     0.00000000    0.00000000    0.00000000
     atom   16 type  2   force =     0.00000000    0.00000000    0.00000000
     atom   17 type  1   force =     0.00000000    0.00000000    0.00000000
     atom   18 type  1   force =     0.00000000    0.00000000    0.00000000
     atom   19 type  2   force =     0.00000000    0.00000000    0.00000000
     atom   20 type  2   force =     0.00000000    0.00000000    0.00000000
     atom   21 type  1   force =     0.00000000    0.00000000    0.00000000
     atom   22 type  1   force =     0.00000000    0.00000000    0.00000000
     atom   23 type  2   force =     0.00000000    0.00000000    0.00000000
     atom   24 type  2   force =     0.00000000    0.00000000    0.00000000
     atom   25 type  1   force =     0.00000000    0.00000000    0.00000000
     atom   26 type  1   force =     0.00000000    0.00000000    0.00000000
     atom   27 type  2   force =     0.00000000    0.00000000    0.00000000
     atom   28 type  2   force =     0.00000000    0.00000000    0.00000000
     atom   29 type  1   force =     0.00000000    0.00000000    0.00000000
     atom   30 type  1   force =     0.00000000    0.00000000    0.00000000
     atom   31 type  2   force =     0.00000000    0.00000000    0.00000000
     atom   32 type  2   force =     0.00000000    0.00000000    0.00000000
     atom   33 type  1   force =     0.00000000    0.00000000    0.00000000
     atom   34 type  1   force =     0.00000000    0.00000000    0.00000000
     atom   35 type  2   force =     0.00000000    0.00000000    0.00000000
     atom   36 type  2   force =     0.00000000    0.00000000    0.00000000
     atom   37 type  1   force =     0.00000000    0.00000000    0.00000000
     atom   38 type  1   force =     0.00000000    0.00000000    0.00000000
     atom   39 type  2   force =     0.00000000    0.00000000    0.00000000
     atom   40 type  2   force =     0.00000000    0.00000000    0.00000000
     atom   41 type  1   force =     0.00000000    0.00000000    0.00000000
     atom   42 type  1   force =     0.00000000    0.00000000    0.00000000
     atom   43 type  2   force =     0.00000000    0.00000000    0.00000000
     atom   44 type  2   force =     0.00000000    0.00000000    0.00000000
     atom   45 type  1   force =     0.00000000    0.00000000    0.00000000
     atom   46 type  1   force =     0.00000000    0.00000000    0.00000000
     atom   47 type  2   force =     0.00000000    0.00000000    0.00000000
     atom   48 type  2   force =     0.00000000    0.00000000    0.00000000
     atom   49 type  1   force =     0.00000000    0.00000000    0.00000000
     atom   50 type  1   force =     0.00000000    0.00000000    0.00000000
     atom   51 type  2   force =     0.00000000    0.00000000    0.00000000
     atom   52 type  2   force =     0.00000000    0.00000000    0.00000000
     atom   53 type  1   force =     0.00000000    0.00000000    0.00000000
     atom   54 type  1   force =     0.00000000    0.00000000    0.00000000
     atom   55 type  2   force =     0.00000000    0.00000000    0.00000000
     atom   56 type  2   force =     0.00000000    0.00000000    0.00000000
     atom   57 type  1   force =     0.00000000    0.00000000    0.00000000
     atom   58 type  1   force =     0.00000000    0.00000000    0.00000000
     atom   59 type  2   force =     0.00000000    0.00000000    0.00000000
     atom   60 type  2   force =     0.00000000    0.00000000    0.00000000
     atom   61 type  1   force =     0.00000000    0.00000000    0.00000000
     atom   62 type  1   force =     0.00000000    0.00000000    0.00000000
     atom   63 type  2   force =     0.00000000    0.00000000    0.00000000
     atom   64 type  2   force =     0.00000000    0.00000000    0.00000000
     atom   65 type  1   force =     0.00000000    0.00000000    0.00000000
     atom   66 type  1   force =     0.00000000    0.00000000    0.00000000
     atom   67 type  2   force =     0.00000000    0.00000000    0.00000000
     atom   68 type  2   force =     0.00000000    0.00000000    0.00000000
     atom   69 type  1   force =     0.00000000    0.00000000    0.00000000
     atom   70 type  1   force =     0.00000000    0.00000000    0.00000000
     atom   71 type  2   force =     0.00000000    0.00000000    0.00000000
     atom   72 type  2   force =     0.00000000    0.00000000    0.00000000
     The SCF correction term to forces
     atom    1 type  1   force =    -0.00000046   -0.00000012   -0.00000005
     atom    2 type  1   force =     0.00000024    0.00000034    0.00000025
     atom    3 type  2   force =    -0.00000016   -0.00000028    0.00000010
     atom    4 type  2   force =     0.00000014   -0.00000009    0.00000069
     atom    5 type  1   force =    -0.00000041   -0.00000002   -0.00000107
     atom    6 type  1   force =    -0.00000057    0.00000008   -0.00000039
     atom    7 type  2   force =    -0.00000021    0.00000030    0.00000049
     atom    8 type  2   force =    -0.00000002    0.00000018   -0.00000085
     atom    9 type  1   force =    -0.00000051    0.00000022    0.00000075
     atom   10 type  1   force =    -0.00000031    0.00000048    0.00000028
     atom   11 type  2   force =    -0.00000024    0.00000008    0.00000048
     atom   12 type  2   force =    -0.00000005   -0.00000011    0.00000092
     atom   13 type  1   force =    -0.00000019   -0.00000015    0.00000078
     atom   14 type  1   force =     0.00000034    0.00000031   -0.00000044
     atom   15 type  2   force =    -0.00000042   -0.00000009   -0.00000030
     atom   16 type  2   force =     0.00000009   -0.00000016    0.00000045
     atom   17 type  1   force =    -0.00000022    0.00000003   -0.00000071
     atom   18 type  1   force =    -0.00000062   -0.00000019   -0.00000109
     atom   19 type  2   force =    -0.00000033    0.00000030    0.00000027
     atom   20 type  2   force =    -0.00000015   -0.00000035   -0.00000038
     atom   21 type  1   force =     0.00000058   -0.00000046    0.00000084
     atom   22 type  1   force =     0.00000020   -0.00000001   -0.00000058
     atom   23 type  2   force =    -0.00000014   -0.00000008    0.00000046
     atom   24 type  2   force =    -0.00000008    0.00000006    0.00000064
     atom   25 type  1   force =     0.00000084    0.00000025    0.00000088
     atom   26 type  1   force =     0.00000013    0.00000043    0.00000024
     atom   27 type  2   force =    -0.00000011   -0.00000004   -0.00000027
     atom   28 type  2   force =    -0.00000007    0.00000023    0.00000074
     atom   29 type  1   force =    -0.00000023   -0.00000082   -0.00000070
     atom   30 type  1   force =     0.00000029    0.00000034   -0.00000075
     atom   31 type  2   force =    -0.00000036   -0.00000030    0.00000040
     atom   32 type  2   force =    -0.00000013   -0.00000013   -0.00000073
     atom   33 type  1   force =     0.00000040    0.00000030    0.00000075
     atom   34 type  1   force =    -0.00000023   -0.00000039   -0.00000005
     atom   35 type  2   force =     0.00000008   -0.00000041    0.00000075
     atom   36 type  2   force =    -0.00000001    0.00000008    0.00000065
     atom   37 type  1   force =     0.00000037   -0.00000046    0.00000030
     atom   38 type  1   force =    -0.00000019    0.00000032   -0.00000028
     atom   39 type  2   force =     0.00000016    0.00000030   -0.00000014
     atom   40 type  2   force =     0.00000039   -0.00000016    0.00000064
     atom   41 type  1   force =     0.00000058    0.00000028   -0.00000143
     atom   42 type  1   force =     0.00000075    0.00000054   -0.00000042
     atom   43 type  2   force =     0.00000036    0.00000042    0.00000051
     atom   44 type  2   force =     0.00000009    0.00000034   -0.00000078
     atom   45 type  1   force =     0.00000006   -0.00000036    0.00000027
     atom   46 type  1   force =    -0.00000027    0.00000046    0.00000018
     atom   47 type  2   force =     0.00000002   -0.00000024    0.00000023
     atom   48 type  2   force =     0.00000015   -0.00000001    0.00000093
     atom   49 type  1   force =     0.00000010    0.00000013    0.00000133
     atom   50 type  1   force =    -0.00000014   -0.00000000    0.00000047
     atom   51 type  2   force =     0.00000014    0.00000015    0.00000010
     atom   52 type  2   force =    -0.00000010    0.00000015    0.00000069
     atom   53 type  1   force =    -0.00000018    0.00000045   -0.00000044
     atom   54 type  1   force =     0.00000092    0.00000043   -0.00000040
     atom   55 type  2   force =     0.00000018    0.00000044    0.00000023
     atom   56 type  2   force =     0.00000027   -0.00000004   -0.00000056
     atom   57 type  1   force =    -0.00000037   -0.00000011    0.00000073
     atom   58 type  1   force =     0.00000005    0.00000070   -0.00000013
     atom   59 type  2   force =     0.00000018   -0.00000015    0.00000031
     atom   60 type  2   force =     0.00000012   -0.00000012    0.00000075
     atom   61 type  1   force =    -0.00000132    0.00000058    0.00000040
     atom   62 type  1   force =     0.00000012   -0.00000027    0.00000037
     atom   63 type  2   force =    -0.00000035   -0.00000014   -0.00000022
     atom   64 type  2   force =     0.00000023   -0.00000037    0.00000103
     atom   65 type  1   force =    -0.00000014   -0.00000056   -0.00000068
     atom   66 type  1   force =     0.00000033    0.00000004   -0.00000079
     atom   67 type  2   force =     0.00000027   -0.00000023    0.00000028
     atom   68 type  2   force =     0.00000034   -0.00000019   -0.00000087
     atom   69 type  1   force =    -0.00000088   -0.00000022    0.00000029
     atom   70 type  1   force =     0.00000061   -0.00000055    0.00000089
     atom   71 type  2   force =    -0.00000025    0.00000020    0.00000039
     atom   72 type  2   force =     0.00000019   -0.00000009    0.00000080

     Total force =     0.000522     Total SCF correction =     0.000007

     init_run     :     44.82s CPU     37.55s WALL (       1 calls)
     electrons    :   3133.09s CPU   2141.82s WALL (       1 calls)
     forces       :     27.81s CPU     22.51s WALL (       1 calls)

     Called by init_run:
     wfcinit      :     24.19s CPU     16.72s WALL (       1 calls)
     wfcinit:atom :      0.08s CPU      0.14s WALL (       1 calls)
     wfcinit:wfcr :     23.58s CPU     15.92s WALL (       1 calls)
     potinit      :     10.53s CPU     10.67s WALL (       1 calls)
     hinit0       :      8.22s CPU      8.28s WALL (       1 calls)

     Called by electrons:
     c_bands      :   2903.63s CPU   1948.95s WALL (      29 calls)
     sum_band     :    188.90s CPU    151.41s WALL (      29 calls)
     v_of_rho     :     20.37s CPU     21.64s WALL (      30 calls)
     v_h          :      1.51s CPU      1.69s WALL (      30 calls)
     v_xc         :     19.49s CPU     20.67s WALL (      31 calls)
     newd         :     17.11s CPU     16.50s WALL (      30 calls)
     mix_rho      :      2.83s CPU      2.97s WALL (      29 calls)

     Called by c_bands:
     init_us_2    :      5.47s CPU      5.57s WALL (      59 calls)
     init_us_2:cp :      5.47s CPU      5.57s WALL (      59 calls)
     cegterg      :   2730.28s CPU   1775.96s WALL (      29 calls)

     Called by sum_band:
     sum_band:wei :      0.03s CPU      0.03s WALL (      29 calls)
     sum_band:loo :    169.12s CPU    132.83s WALL (      29 calls)
     sum_band:buf :      0.00s CPU      0.00s WALL (      29 calls)
     sum_band:ini :      2.68s CPU      2.67s WALL (      29 calls)
     sum_band:cal :     78.25s CPU     39.47s WALL (      29 calls)
     sum_band:bec :      0.30s CPU      0.26s WALL (      29 calls)
     addusdens    :     12.98s CPU     11.86s WALL (      29 calls)
                                        0.00s GPU  (      29 calls)
     addusd:skk   :      0.50s CPU      0.51s WALL (      58 calls)
                                        0.00s GPU  (      58 calls)

     Called by *egterg:
     cdiaghg      :    197.52s CPU    173.48s WALL (     238 calls)
     cegterg:over :    299.15s CPU    155.49s WALL (     209 calls)
     cegterg:upda :    189.58s CPU     99.96s WALL (     209 calls)
     cegterg:last :    501.01s CPU    262.27s WALL (     115 calls)
     cdiaghg:chol :      4.52s CPU      3.84s WALL (     238 calls)
     cdiaghg:inve :      2.60s CPU      1.78s WALL (     238 calls)
     cdiaghg:para :     35.77s CPU     23.38s WALL (     476 calls)
     h_psi        :   1187.18s CPU    897.82s WALL (     239 calls)
     s_psi        :    319.10s CPU    162.64s WALL (     239 calls)
     g_psi        :      3.34s CPU      2.80s WALL (     209 calls)

     Called by h_psi:
     h_psi:calbec :    319.85s CPU    168.03s WALL (     239 calls)
     vloc_psi     :    543.39s CPU    560.54s WALL (     239 calls)
     add_vuspsi   :    321.09s CPU    164.37s WALL (     239 calls)

     General routines
     calbec       :    408.92s CPU    212.97s WALL (     272 calls)
     fft          :     12.86s CPU     14.14s WALL (     399 calls)
     ffts         :      0.75s CPU      0.82s WALL (      59 calls)
     fftw         :    474.84s CPU    494.09s WALL (   84204 calls)
     interpolate  :      1.57s CPU      1.69s WALL (      30 calls)

     Parallel routines

     PWSCF        :  53m28.64s CPU  36m44.84s WALL


   This run was terminated on:  11: 5:47  11Aug2025            

=------------------------------------------------------------------------------=
   JOB DONE.
=------------------------------------------------------------------------------=
Note: The following floating-point exceptions are signalling: IEEE_DENORMAL
Note: The following floating-point exceptions are signalling: IEEE_DENORMAL
Note: The following floating-point exceptions are signalling: IEEE_DENORMAL
Note: The following floating-point exceptions are signalling: IEEE_INVALID_FLAG
Note: The following floating-point exceptions are signalling: IEEE_DENORMAL
Note: The following floating-point exceptions are signalling: IEEE_DENORMAL
Note: The following floating-point exceptions are signalling: IEEE_INVALID_FLAG
Note: The following floating-point exceptions are signalling: IEEE_INVALID_FLAG
Note: The following floating-point exceptions are signalling: IEEE_INVALID_FLAG
Note: The following floating-point exceptions are signalling: IEEE_DENORMAL
Note: The following floating-point exceptions are signalling: IEEE_INVALID_FLAG
Note: The following floating-point exceptions are signalling: IEEE_DENORMAL
Note: The following floating-point exceptions are signalling: IEEE_INVALID_FLAG
Note: The following floating-point exceptions are signalling: IEEE_DENORMAL
Note: The following floating-point exceptions are signalling: IEEE_INVALID_FLAG
Note: The following floating-point exceptions are signalling: IEEE_INVALID_FLAG
