Authorization required, but no authorization protocol specified

Authorization required, but no authorization protocol specified

Authorization required, but no authorization protocol specified

Authorization required, but no authorization protocol specified

Authorization required, but no authorization protocol specified

Authorization required, but no authorization protocol specified

Authorization required, but no authorization protocol specified

Authorization required, but no authorization protocol specified

Authorization required, but no authorization protocol specified

Authorization required, but no authorization protocol specified

Authorization required, but no authorization protocol specified

Authorization required, but no authorization protocol specified

Authorization required, but no authorization protocol specified

Authorization required, but no authorization protocol specified

Authorization required, but no authorization protocol specified

Authorization required, but no authorization protocol specified

Authorization required, but no authorization protocol specified

Authorization required, but no authorization protocol specified


     Program PWSCF v.7.2 starts on 15Jul2025 at  8:36:40 

     This program is part of the open-source Quantum ESPRESSO suite
     for quantum simulation of materials; please cite
         "P. Giannozzi et al., J. Phys.:Condens. Matter 21 395502 (2009);
         "P. Giannozzi et al., J. Phys.:Condens. Matter 29 465901 (2017);
         "P. Giannozzi et al., J. Chem. Phys. 152 154105 (2020);
          URL http://www.quantum-espresso.org", 
     in publications or presentations arising from this work. More details at
     http://www.quantum-espresso.org/quote

     Parallel version (MPI), running on    16 processors

     MPI processes distributed on     1 nodes
     79818 MiB available memory on the printing compute node when the environment starts

     Reading input from /home/jvc/QEspresso7.2/ZnO_database/scripts/cell211.in/ZnO-2.94-1.58-211.in
Warning: card &CELL ignored
Warning: card / ignored
Warning: card &FCP ignored
Warning: card / ignored
Warning: card &RISM ignored
Warning: card / ignored

     Current dimensions of program PWSCF are:
     Max number of different atomic species (ntypx) = 10
     Max number of k-points (npk) =  40000
     Max angular momentum in pseudopotentials (lmaxx) =  4
     file Zn.upf: wavefunction(s)  3D renormalized
     Found identity + (  0.5000  0.0000  0.0000) symmetry
     This is a supercell, fractional translations are disabled
     Message from routine setup:
     using ibrav=0 with symmetry is DISCOURAGED, use correct ibrav instead

     K-points division:     npool     =       2
     R & G space division:  proc/nbgrp/npool/nimage =       8
     Subspace diagonalization in iterative solution of the eigenvalue problem:
     a serial algorithm will be used


     Parallelization info
     --------------------
     sticks:   dense  smooth     PW     G-vecs:    dense   smooth      PW
     Min         262     130     40                11140     3924     646
     Max         263     131     41                11143     3927     649
     Sum        2103    1047    321                89129    31407    5181

     Using Slab Decomposition



     bravais-lattice index     =            0
     lattice parameter (alat)  =      12.3576  a.u.
     unit-cell volume          =     659.5954 (a.u.)^3
     number of atoms/cell      =            8
     number of atomic types    =            2
     number of electrons       =        72.00
     number of Kohn-Sham states=           36
     kinetic-energy cutoff     =      50.0000  Ry
     charge density cutoff     =     400.0000  Ry
     scf convergence threshold =      1.0E-08
     mixing beta               =       0.3000
     number of iterations used =            8  plain     mixing
     Exchange-correlation= PBE
                           (   1   4   3   4   0   0   0)

     celldm(1)=  12.357644  celldm(2)=   0.000000  celldm(3)=   0.000000
     celldm(4)=   0.000000  celldm(5)=   0.000000  celldm(6)=   0.000000

     crystal axes: (cart. coord. in units of alat)
               a(1) = (   1.000000   0.000000   0.000000 )  
               a(2) = (  -0.250000   0.433013   0.000000 )  
               a(3) = (   0.000000   0.000000   0.807179 )  

     reciprocal axes: (cart. coord. in units 2 pi/alat)
               b(1) = (  1.000000  0.577350 -0.000000 )  
               b(2) = (  0.000000  2.309401  0.000000 )  
               b(3) = (  0.000000 -0.000000  1.238882 )  


     PseudoPot. # 1 for Zn read from file:
     /home/jvc/QEspresso7.2/ZnO_database/pseudos/Zn.upf
     MD5 check sum: 7f56cabf9682ed8c977c2f7d0c5985c5
     Pseudo is Ultrasoft + core correction, Zval = 12.0
     Generated using &quot;atomic&quot; code by A. Dal Corso  v.6.2.2
     Using radial grid of 1201 points,  6 beta functions with: 
                l(1) =   0
                l(2) =   0
                l(3) =   1
                l(4) =   1
                l(5) =   2
                l(6) =   2
     Q(r) pseudized with 0 coefficients 


     PseudoPot. # 2 for O  read from file:
     /home/jvc/QEspresso7.2/ZnO_database/pseudos/O.upf
     MD5 check sum: 91400c9766925bcf19f520983a725ff0
     Pseudo is Ultrasoft + core correction, Zval =  6.0
     Generated using &quot;atomic&quot; code by A. Dal Corso  v.6.3MaX
     Using radial grid of 1095 points,  4 beta functions with: 
                l(1) =   0
                l(2) =   0
                l(3) =   1
                l(4) =   1
     Q(r) pseudized with 0 coefficients 


     atomic species   valence    mass     pseudopotential
        Zn            12.00    65.38000     Zn( 1.00)
        O              6.00    15.99900     O ( 1.00)

      2 Sym. Ops. (no inversion) found


                                    s                        frac. trans.

      isym =  1     identity                                     

 cryst.   s( 1) = (     1          0          0      )
                  (     0          1          0      )
                  (     0          0          1      )

 cart.    s( 1) = (  1.0000000 -0.0000000  0.0000000 )
                  (  0.0000000  1.0000000  0.0000000 )
                  (  0.0000000  0.0000000  1.0000000 )


      isym =  2     inv. 180 deg rotation - cryst. axis [0,1,0]  

 cryst.   s( 2) = (     1          2          0      )
                  (     0         -1          0      )
                  (     0          0          1      )

 cart.    s( 2) = (  0.5000000  0.8660254  0.0000000 )
                  (  0.8660254 -0.5000000  0.0000000 )
                  (  0.0000000  0.0000000  1.0000000 )


   Cartesian axes

     site n.     atom                  positions (alat units)
         1           Zn  tau(   1) = (   0.2500000   0.1443376   0.4041010  )
         2           Zn  tau(   2) = (  -0.0000000   0.2886751   0.0005114  )
         3           O   tau(   3) = (   0.2500000   0.1443376   0.7100565  )
         4           O   tau(   4) = (  -0.0000000   0.2886751   0.3064669  )
         5           Zn  tau(   5) = (   0.7500000   0.1443376   0.4041010  )
         6           Zn  tau(   6) = (   0.5000000   0.2886751   0.0005114  )
         7           O   tau(   7) = (   0.7500000   0.1443376   0.7100565  )
         8           O   tau(   8) = (   0.5000000   0.2886751   0.3064669  )

   Crystallographic axes

     site n.     atom                  positions (cryst. coord.)
         1           Zn  tau(   1) = (  0.3333333  0.3333333  0.5006336  )
         2           Zn  tau(   2) = (  0.1666667  0.6666667  0.0006336  )
         3           O   tau(   3) = (  0.3333333  0.3333333  0.8796764  )
         4           O   tau(   4) = (  0.1666667  0.6666667  0.3796764  )
         5           Zn  tau(   5) = (  0.8333333  0.3333333  0.5006336  )
         6           Zn  tau(   6) = (  0.6666667  0.6666667  0.0006336  )
         7           O   tau(   7) = (  0.8333333  0.3333333  0.8796764  )
         8           O   tau(   8) = (  0.6666667  0.6666667  0.3796764  )

     number of k points=    40
                       cart. coord. in units 2pi/alat
        k(    1) = (   0.0000000   0.0000000   0.0000000), wk =   0.0185185
        k(    2) = (   0.0000000   0.0000000   0.2064804), wk =   0.0370370
        k(    3) = (   0.0000000   0.0000000   0.4129608), wk =   0.0370370
        k(    4) = (   0.0000000   0.0000000  -0.6194412), wk =   0.0185185
        k(    5) = (   0.0000000   0.3849002   0.0000000), wk =   0.0740741
        k(    6) = (   0.0000000   0.3849002   0.2064804), wk =   0.0740741
        k(    7) = (   0.0000000   0.3849002   0.4129608), wk =   0.0740741
        k(    8) = (   0.0000000   0.3849002  -0.6194412), wk =   0.0740741
        k(    9) = (   0.0000000   0.7698004   0.0000000), wk =   0.0740741
        k(   10) = (   0.0000000   0.7698004   0.2064804), wk =   0.0740741
        k(   11) = (   0.0000000   0.7698004   0.4129608), wk =   0.0740741
        k(   12) = (   0.0000000   0.7698004  -0.6194412), wk =   0.0740741
        k(   13) = (   0.0000000  -1.1547005   0.0000000), wk =   0.0185185
        k(   14) = (   0.0000000  -1.1547005   0.2064804), wk =   0.0370370
        k(   15) = (   0.0000000  -1.1547005   0.4129608), wk =   0.0370370
        k(   16) = (   0.0000000  -1.1547005  -0.6194412), wk =   0.0185185
        k(   17) = (   0.3333333   0.1924501   0.0000000), wk =   0.0370370
        k(   18) = (   0.3333333   0.1924501   0.2064804), wk =   0.0370370
        k(   19) = (   0.3333333   0.1924501   0.4129608), wk =   0.0370370
        k(   20) = (   0.3333333   0.1924501  -0.6194412), wk =   0.0370370
        k(   21) = (   0.3333333   0.5773503   0.0000000), wk =   0.0370370
        k(   22) = (   0.3333333   0.5773503   0.2064804), wk =   0.0740741
        k(   23) = (   0.3333333   0.5773503   0.4129608), wk =   0.0740741
        k(   24) = (   0.3333333   0.5773503  -0.6194412), wk =   0.0370370
        k(   25) = (   0.3333333  -0.9622504   0.0000000), wk =   0.0370370
        k(   26) = (   0.3333333  -0.9622504   0.2064804), wk =   0.0370370
        k(   27) = (   0.3333333  -0.9622504   0.4129608), wk =   0.0370370
        k(   28) = (   0.3333333  -0.9622504  -0.6194412), wk =   0.0370370
        k(   29) = (   0.3333333  -0.5773503   0.0000000), wk =   0.0370370
        k(   30) = (   0.3333333  -0.5773503   0.2064804), wk =   0.0740741
        k(   31) = (   0.3333333  -0.5773503   0.4129608), wk =   0.0740741
        k(   32) = (   0.3333333  -0.5773503  -0.6194412), wk =   0.0370370
        k(   33) = (   0.3333333  -0.1924501  -0.2064804), wk =   0.0740741
        k(   34) = (   0.3333333  -0.1924501  -0.4129608), wk =   0.0740741
        k(   35) = (   0.6666667  -0.3849002  -0.2064804), wk =   0.0740741
        k(   36) = (   0.6666667  -0.3849002  -0.4129608), wk =   0.0740741
        k(   37) = (   0.3333333   0.1924501  -0.2064804), wk =   0.0370370
        k(   38) = (   0.3333333   0.1924501  -0.4129608), wk =   0.0370370
        k(   39) = (  -0.6666667   0.7698004  -0.2064804), wk =   0.0370370
        k(   40) = (  -0.6666667   0.7698004  -0.4129608), wk =   0.0370370

                       cryst. coord.
        k(    1) = (   0.0000000   0.0000000   0.0000000), wk =   0.0185185
        k(    2) = (   0.0000000   0.0000000   0.1666667), wk =   0.0370370
        k(    3) = (   0.0000000   0.0000000   0.3333333), wk =   0.0370370
        k(    4) = (   0.0000000   0.0000000  -0.5000000), wk =   0.0185185
        k(    5) = (   0.0000000   0.1666667   0.0000000), wk =   0.0740741
        k(    6) = (   0.0000000   0.1666667   0.1666667), wk =   0.0740741
        k(    7) = (   0.0000000   0.1666667   0.3333333), wk =   0.0740741
        k(    8) = (   0.0000000   0.1666667  -0.5000000), wk =   0.0740741
        k(    9) = (   0.0000000   0.3333333   0.0000000), wk =   0.0740741
        k(   10) = (   0.0000000   0.3333333   0.1666667), wk =   0.0740741
        k(   11) = (   0.0000000   0.3333333   0.3333333), wk =   0.0740741
        k(   12) = (   0.0000000   0.3333333  -0.5000000), wk =   0.0740741
        k(   13) = (   0.0000000  -0.5000000   0.0000000), wk =   0.0185185
        k(   14) = (   0.0000000  -0.5000000   0.1666667), wk =   0.0370370
        k(   15) = (   0.0000000  -0.5000000   0.3333333), wk =   0.0370370
        k(   16) = (   0.0000000  -0.5000000  -0.5000000), wk =   0.0185185
        k(   17) = (   0.3333333  -0.0000000   0.0000000), wk =   0.0370370
        k(   18) = (   0.3333333  -0.0000000   0.1666667), wk =   0.0370370
        k(   19) = (   0.3333333  -0.0000000   0.3333333), wk =   0.0370370
        k(   20) = (   0.3333333  -0.0000000  -0.5000000), wk =   0.0370370
        k(   21) = (   0.3333333   0.1666667   0.0000000), wk =   0.0370370
        k(   22) = (   0.3333333   0.1666667   0.1666667), wk =   0.0740741
        k(   23) = (   0.3333333   0.1666667   0.3333333), wk =   0.0740741
        k(   24) = (   0.3333333   0.1666667  -0.5000000), wk =   0.0370370
        k(   25) = (   0.3333333  -0.5000000   0.0000000), wk =   0.0370370
        k(   26) = (   0.3333333  -0.5000000   0.1666667), wk =   0.0370370
        k(   27) = (   0.3333333  -0.5000000   0.3333333), wk =   0.0370370
        k(   28) = (   0.3333333  -0.5000000  -0.5000000), wk =   0.0370370
        k(   29) = (   0.3333333  -0.3333333   0.0000000), wk =   0.0370370
        k(   30) = (   0.3333333  -0.3333333   0.1666667), wk =   0.0740741
        k(   31) = (   0.3333333  -0.3333333   0.3333333), wk =   0.0740741
        k(   32) = (   0.3333333  -0.3333333  -0.5000000), wk =   0.0370370
        k(   33) = (   0.3333333  -0.1666667  -0.1666667), wk =   0.0740741
        k(   34) = (   0.3333333  -0.1666667  -0.3333333), wk =   0.0740741
        k(   35) = (   0.6666667  -0.3333333  -0.1666667), wk =   0.0740741
        k(   36) = (   0.6666667  -0.3333333  -0.3333333), wk =   0.0740741
        k(   37) = (   0.3333333   0.0000000  -0.1666667), wk =   0.0370370
        k(   38) = (   0.3333333   0.0000000  -0.3333333), wk =   0.0370370
        k(   39) = (  -0.6666667   0.5000000  -0.1666667), wk =   0.0370370
        k(   40) = (  -0.6666667   0.5000000  -0.3333333), wk =   0.0370370

     Dense  grid:    89129 G-vectors     FFT dimensions: (  80,  40,  64)

     Smooth grid:    31407 G-vectors     FFT dimensions: (  60,  27,  45)

     Dynamical RAM for                 wfc:       0.27 MB

     Dynamical RAM for     wfc (w. buffer):       5.68 MB

     Dynamical RAM for           str. fact:       0.34 MB

     Dynamical RAM for           local pot:       0.00 MB

     Dynamical RAM for          nlocal pot:       0.78 MB

     Dynamical RAM for                qrad:       3.21 MB

     Dynamical RAM for          rho,v,vnew:       1.10 MB

     Dynamical RAM for               rhoin:       0.37 MB

     Dynamical RAM for            rho*nmix:       2.72 MB

     Dynamical RAM for           G-vectors:       0.67 MB

     Dynamical RAM for          h,s,v(r/c):       0.24 MB

     Dynamical RAM for          <psi|beta>:       0.06 MB

     Dynamical RAM for                 psi:       0.54 MB

     Dynamical RAM for                hpsi:       0.54 MB

     Dynamical RAM for                spsi:       0.54 MB

     Dynamical RAM for      wfcinit/wfcrot:       0.84 MB

     Dynamical RAM for           addusdens:      16.24 MB

     Dynamical RAM for          addusforce:      16.76 MB

     Estimated static dynamical RAM per process >      13.62 MB

     Estimated max dynamical RAM per process >      33.11 MB

     Estimated total dynamical RAM >     507.92 MB

     Check: negative core charge=   -0.000002

     Initial potential from superposition of free atoms

     starting charge      71.9851, renormalised to      72.0000
     Starting wfcs are   52 randomized atomic wfcs

     total cpu time spent up to now is        3.0 secs

     Self-consistent Calculation

     iteration #  1     ecut=    50.00 Ry     beta= 0.30
     Davidson diagonalization with overlap

---- Real-time Memory Report at c_bands before calling an iterative solver
            59 MiB given to the printing process from OS
             0 MiB allocation reported by mallinfo(arena+hblkhd)
         79191 MiB available memory on the node where the printing process lives
------------------
     ethr =  1.00E-02,  avg # of iterations =  1.9

     total cpu time spent up to now is        5.2 secs

     total energy              =    -722.95951212 Ry
     estimated scf accuracy    <       1.38372270 Ry

     iteration #  2     ecut=    50.00 Ry     beta= 0.30
     Davidson diagonalization with overlap

---- Real-time Memory Report at c_bands before calling an iterative solver
            69 MiB given to the printing process from OS
             0 MiB allocation reported by mallinfo(arena+hblkhd)
         79076 MiB available memory on the node where the printing process lives
------------------
     ethr =  1.92E-03,  avg # of iterations =  2.0

     total cpu time spent up to now is        7.9 secs

     total energy              =    -723.15669396 Ry
     estimated scf accuracy    <       0.17771341 Ry

     iteration #  3     ecut=    50.00 Ry     beta= 0.30
     Davidson diagonalization with overlap

---- Real-time Memory Report at c_bands before calling an iterative solver
            69 MiB given to the printing process from OS
             0 MiB allocation reported by mallinfo(arena+hblkhd)
         79079 MiB available memory on the node where the printing process lives
------------------
     ethr =  2.47E-04,  avg # of iterations =  6.3

     total cpu time spent up to now is       12.4 secs

     total energy              =    -723.21831611 Ry
     estimated scf accuracy    <       0.12087859 Ry

     iteration #  4     ecut=    50.00 Ry     beta= 0.30
     Davidson diagonalization with overlap

---- Real-time Memory Report at c_bands before calling an iterative solver
            70 MiB given to the printing process from OS
             0 MiB allocation reported by mallinfo(arena+hblkhd)
         79082 MiB available memory on the node where the printing process lives
------------------
     ethr =  1.68E-04,  avg # of iterations =  8.6

     total cpu time spent up to now is       18.1 secs

     total energy              =    -723.30642126 Ry
     estimated scf accuracy    <       0.53714682 Ry

     iteration #  5     ecut=    50.00 Ry     beta= 0.30
     Davidson diagonalization with overlap

---- Real-time Memory Report at c_bands before calling an iterative solver
            70 MiB given to the printing process from OS
             0 MiB allocation reported by mallinfo(arena+hblkhd)
         79113 MiB available memory on the node where the printing process lives
------------------
     ethr =  1.68E-04,  avg # of iterations =  2.0

     total cpu time spent up to now is       20.3 secs

     total energy              =    -723.06677777 Ry
     estimated scf accuracy    <       0.31861887 Ry

     iteration #  6     ecut=    50.00 Ry     beta= 0.30
     Davidson diagonalization with overlap

---- Real-time Memory Report at c_bands before calling an iterative solver
            70 MiB given to the printing process from OS
             0 MiB allocation reported by mallinfo(arena+hblkhd)
         79117 MiB available memory on the node where the printing process lives
------------------
     ethr =  1.68E-04,  avg # of iterations =  9.9

     total cpu time spent up to now is       26.3 secs

     total energy              =    -723.23413845 Ry
     estimated scf accuracy    <       0.78843715 Ry

     iteration #  7     ecut=    50.00 Ry     beta= 0.30
     Davidson diagonalization with overlap

---- Real-time Memory Report at c_bands before calling an iterative solver
            70 MiB given to the printing process from OS
             0 MiB allocation reported by mallinfo(arena+hblkhd)
         79118 MiB available memory on the node where the printing process lives
------------------
     ethr =  1.68E-04,  avg # of iterations =  4.5

     total cpu time spent up to now is       29.7 secs

     total energy              =    -723.29906640 Ry
     estimated scf accuracy    <       0.14453813 Ry

     iteration #  8     ecut=    50.00 Ry     beta= 0.30
     Davidson diagonalization with overlap

---- Real-time Memory Report at c_bands before calling an iterative solver
            70 MiB given to the printing process from OS
             0 MiB allocation reported by mallinfo(arena+hblkhd)
         79118 MiB available memory on the node where the printing process lives
------------------
     ethr =  1.68E-04,  avg # of iterations =  1.4

     total cpu time spent up to now is       31.8 secs

     total energy              =    -723.31155997 Ry
     estimated scf accuracy    <       0.15414221 Ry

     iteration #  9     ecut=    50.00 Ry     beta= 0.30
     Davidson diagonalization with overlap

---- Real-time Memory Report at c_bands before calling an iterative solver
            70 MiB given to the printing process from OS
             0 MiB allocation reported by mallinfo(arena+hblkhd)
         79119 MiB available memory on the node where the printing process lives
------------------
     ethr =  1.68E-04,  avg # of iterations =  1.0

     total cpu time spent up to now is       33.8 secs

     total energy              =    -723.32190707 Ry
     estimated scf accuracy    <       0.17672222 Ry

     iteration # 10     ecut=    50.00 Ry     beta= 0.30
     Davidson diagonalization with overlap

---- Real-time Memory Report at c_bands before calling an iterative solver
            70 MiB given to the printing process from OS
             0 MiB allocation reported by mallinfo(arena+hblkhd)
         79119 MiB available memory on the node where the printing process lives
------------------
     ethr =  1.68E-04,  avg # of iterations =  1.0

     total cpu time spent up to now is       35.8 secs

     total energy              =    -723.24449280 Ry
     estimated scf accuracy    <       0.20091523 Ry

     iteration # 11     ecut=    50.00 Ry     beta= 0.30
     Davidson diagonalization with overlap

---- Real-time Memory Report at c_bands before calling an iterative solver
            70 MiB given to the printing process from OS
             0 MiB allocation reported by mallinfo(arena+hblkhd)
         79120 MiB available memory on the node where the printing process lives
------------------
     ethr =  1.68E-04,  avg # of iterations =  2.4

     total cpu time spent up to now is       38.1 secs

     total energy              =    -723.24772355 Ry
     estimated scf accuracy    <       0.06137431 Ry

     iteration # 12     ecut=    50.00 Ry     beta= 0.30
     Davidson diagonalization with overlap

---- Real-time Memory Report at c_bands before calling an iterative solver
            70 MiB given to the printing process from OS
             0 MiB allocation reported by mallinfo(arena+hblkhd)
         79120 MiB available memory on the node where the printing process lives
------------------
     ethr =  8.52E-05,  avg # of iterations =  5.0

     total cpu time spent up to now is       41.6 secs

     total energy              =    -723.27079412 Ry
     estimated scf accuracy    <       0.00142641 Ry

     iteration # 13     ecut=    50.00 Ry     beta= 0.30
     Davidson diagonalization with overlap

---- Real-time Memory Report at c_bands before calling an iterative solver
            70 MiB given to the printing process from OS
             0 MiB allocation reported by mallinfo(arena+hblkhd)
         79119 MiB available memory on the node where the printing process lives
------------------
     ethr =  1.98E-06,  avg # of iterations =  8.9

     total cpu time spent up to now is       47.2 secs

     total energy              =    -723.27387252 Ry
     estimated scf accuracy    <       0.00131908 Ry

     iteration # 14     ecut=    50.00 Ry     beta= 0.30
     Davidson diagonalization with overlap

---- Real-time Memory Report at c_bands before calling an iterative solver
            70 MiB given to the printing process from OS
             0 MiB allocation reported by mallinfo(arena+hblkhd)
         79119 MiB available memory on the node where the printing process lives
------------------
     ethr =  1.83E-06,  avg # of iterations =  1.0

     total cpu time spent up to now is       49.2 secs

     total energy              =    -723.27381839 Ry
     estimated scf accuracy    <       0.00085505 Ry

     iteration # 15     ecut=    50.00 Ry     beta= 0.30
     Davidson diagonalization with overlap

---- Real-time Memory Report at c_bands before calling an iterative solver
            70 MiB given to the printing process from OS
             0 MiB allocation reported by mallinfo(arena+hblkhd)
         79119 MiB available memory on the node where the printing process lives
------------------
     ethr =  1.19E-06,  avg # of iterations = 11.0

     total cpu time spent up to now is       56.4 secs

     total energy              =    -723.28234680 Ry
     estimated scf accuracy    <       0.02332606 Ry

     iteration # 16     ecut=    50.00 Ry     beta= 0.30
     Davidson diagonalization with overlap

---- Real-time Memory Report at c_bands before calling an iterative solver
            70 MiB given to the printing process from OS
             0 MiB allocation reported by mallinfo(arena+hblkhd)
         79121 MiB available memory on the node where the printing process lives
------------------
     ethr =  1.19E-06,  avg # of iterations =  3.9

     total cpu time spent up to now is       59.1 secs

     total energy              =    -723.27566048 Ry
     estimated scf accuracy    <       0.02976131 Ry

     iteration # 17     ecut=    50.00 Ry     beta= 0.30
     Davidson diagonalization with overlap

---- Real-time Memory Report at c_bands before calling an iterative solver
            70 MiB given to the printing process from OS
             0 MiB allocation reported by mallinfo(arena+hblkhd)
         79122 MiB available memory on the node where the printing process lives
------------------
     ethr =  1.19E-06,  avg # of iterations =  6.4

     total cpu time spent up to now is       63.7 secs

     total energy              =    -723.27417163 Ry
     estimated scf accuracy    <       0.01134638 Ry

     iteration # 18     ecut=    50.00 Ry     beta= 0.30
     Davidson diagonalization with overlap

---- Real-time Memory Report at c_bands before calling an iterative solver
            70 MiB given to the printing process from OS
             0 MiB allocation reported by mallinfo(arena+hblkhd)
         79122 MiB available memory on the node where the printing process lives
------------------
     ethr =  1.19E-06,  avg # of iterations =  5.3

     total cpu time spent up to now is       67.4 secs

     total energy              =    -723.27389196 Ry
     estimated scf accuracy    <       0.00410666 Ry

     iteration # 19     ecut=    50.00 Ry     beta= 0.30
     Davidson diagonalization with overlap

---- Real-time Memory Report at c_bands before calling an iterative solver
            70 MiB given to the printing process from OS
             0 MiB allocation reported by mallinfo(arena+hblkhd)
         79121 MiB available memory on the node where the printing process lives
------------------
     ethr =  1.19E-06,  avg # of iterations =  4.1

     total cpu time spent up to now is       70.2 secs

     total energy              =    -723.27300979 Ry
     estimated scf accuracy    <       0.00219397 Ry

     iteration # 20     ecut=    50.00 Ry     beta= 0.30
     Davidson diagonalization with overlap

---- Real-time Memory Report at c_bands before calling an iterative solver
            70 MiB given to the printing process from OS
             0 MiB allocation reported by mallinfo(arena+hblkhd)
         79121 MiB available memory on the node where the printing process lives
------------------
     ethr =  1.19E-06,  avg # of iterations =  6.7

     total cpu time spent up to now is       74.8 secs

     total energy              =    -723.27468749 Ry
     estimated scf accuracy    <       0.00015455 Ry

     iteration # 21     ecut=    50.00 Ry     beta= 0.30
     Davidson diagonalization with overlap

---- Real-time Memory Report at c_bands before calling an iterative solver
            70 MiB given to the printing process from OS
             0 MiB allocation reported by mallinfo(arena+hblkhd)
         79122 MiB available memory on the node where the printing process lives
------------------
     ethr =  2.15E-07,  avg # of iterations = 11.5

     total cpu time spent up to now is       82.1 secs

     total energy              =    -723.27340750 Ry
     estimated scf accuracy    <       0.00777228 Ry

     iteration # 22     ecut=    50.00 Ry     beta= 0.30
     Davidson diagonalization with overlap

---- Real-time Memory Report at c_bands before calling an iterative solver
            70 MiB given to the printing process from OS
             0 MiB allocation reported by mallinfo(arena+hblkhd)
         79121 MiB available memory on the node where the printing process lives
------------------
     ethr =  2.15E-07,  avg # of iterations = 10.2

     total cpu time spent up to now is       88.6 secs

     total energy              =    -723.27359589 Ry
     estimated scf accuracy    <       0.00096704 Ry

     iteration # 23     ecut=    50.00 Ry     beta= 0.30
     Davidson diagonalization with overlap

---- Real-time Memory Report at c_bands before calling an iterative solver
            70 MiB given to the printing process from OS
             0 MiB allocation reported by mallinfo(arena+hblkhd)
         79120 MiB available memory on the node where the printing process lives
------------------
     ethr =  2.15E-07,  avg # of iterations =  7.7

     total cpu time spent up to now is       93.6 secs

     total energy              =    -723.27377003 Ry
     estimated scf accuracy    <       0.00000299 Ry

     iteration # 24     ecut=    50.00 Ry     beta= 0.30
     Davidson diagonalization with overlap

---- Real-time Memory Report at c_bands before calling an iterative solver
            70 MiB given to the printing process from OS
             0 MiB allocation reported by mallinfo(arena+hblkhd)
         79121 MiB available memory on the node where the printing process lives
------------------
     ethr =  4.15E-09,  avg # of iterations = 11.2

     total cpu time spent up to now is      100.4 secs

     total energy              =    -723.27377215 Ry
     estimated scf accuracy    <       0.00003449 Ry

     iteration # 25     ecut=    50.00 Ry     beta= 0.30
     Davidson diagonalization with overlap

---- Real-time Memory Report at c_bands before calling an iterative solver
            70 MiB given to the printing process from OS
             0 MiB allocation reported by mallinfo(arena+hblkhd)
         79121 MiB available memory on the node where the printing process lives
------------------
     ethr =  4.15E-09,  avg # of iterations =  7.9

     total cpu time spent up to now is      105.7 secs

     total energy              =    -723.27377538 Ry
     estimated scf accuracy    <       0.00000180 Ry

     iteration # 26     ecut=    50.00 Ry     beta= 0.30
     Davidson diagonalization with overlap

---- Real-time Memory Report at c_bands before calling an iterative solver
            70 MiB given to the printing process from OS
             0 MiB allocation reported by mallinfo(arena+hblkhd)
         79121 MiB available memory on the node where the printing process lives
------------------
     ethr =  2.50E-09,  avg # of iterations =  3.8

     total cpu time spent up to now is      108.4 secs

     total energy              =    -723.27377539 Ry
     estimated scf accuracy    <       0.00000038 Ry

     iteration # 27     ecut=    50.00 Ry     beta= 0.30
     Davidson diagonalization with overlap

---- Real-time Memory Report at c_bands before calling an iterative solver
            70 MiB given to the printing process from OS
             0 MiB allocation reported by mallinfo(arena+hblkhd)
         79121 MiB available memory on the node where the printing process lives
------------------
     ethr =  5.21E-10,  avg # of iterations =  7.8

     total cpu time spent up to now is      113.4 secs

     total energy              =    -723.27377577 Ry
     estimated scf accuracy    <       0.00000052 Ry

     iteration # 28     ecut=    50.00 Ry     beta= 0.30
     Davidson diagonalization with overlap

---- Real-time Memory Report at c_bands before calling an iterative solver
            70 MiB given to the printing process from OS
             0 MiB allocation reported by mallinfo(arena+hblkhd)
         79121 MiB available memory on the node where the printing process lives
------------------
     ethr =  5.21E-10,  avg # of iterations =  2.0

     total cpu time spent up to now is      115.6 secs

     total energy              =    -723.27377566 Ry
     estimated scf accuracy    <       0.00000020 Ry

     iteration # 29     ecut=    50.00 Ry     beta= 0.30
     Davidson diagonalization with overlap

---- Real-time Memory Report at c_bands before calling an iterative solver
            70 MiB given to the printing process from OS
             0 MiB allocation reported by mallinfo(arena+hblkhd)
         79121 MiB available memory on the node where the printing process lives
------------------
     ethr =  2.81E-10,  avg # of iterations =  7.0

     total cpu time spent up to now is      120.3 secs

     total energy              =    -723.27377581 Ry
     estimated scf accuracy    <       0.00000023 Ry

     iteration # 30     ecut=    50.00 Ry     beta= 0.30
     Davidson diagonalization with overlap

---- Real-time Memory Report at c_bands before calling an iterative solver
            70 MiB given to the printing process from OS
             0 MiB allocation reported by mallinfo(arena+hblkhd)
         79121 MiB available memory on the node where the printing process lives
------------------
     ethr =  2.81E-10,  avg # of iterations =  1.0

     total cpu time spent up to now is      122.3 secs

     total energy              =    -723.27377577 Ry
     estimated scf accuracy    <       0.00000012 Ry

     iteration # 31     ecut=    50.00 Ry     beta= 0.30
     Davidson diagonalization with overlap

---- Real-time Memory Report at c_bands before calling an iterative solver
            70 MiB given to the printing process from OS
             0 MiB allocation reported by mallinfo(arena+hblkhd)
         79121 MiB available memory on the node where the printing process lives
------------------
     ethr =  1.67E-10,  avg # of iterations =  3.7

     total cpu time spent up to now is      125.2 secs

     End of self-consistent calculation

          k = 0.0000 0.0000 0.0000 (  3907 PWs)   bands (ev):

   -10.9985 -10.3493 -10.3183 -10.1408   1.1141   1.3159   1.3159   1.3230
     1.3565   1.4392   1.5014   1.5014   1.5609   1.9413   1.9538   2.0753
     2.4282   2.4282   2.4642   2.5909   2.6248   2.6248   2.6705   2.7418
     2.8918   3.2047   3.4268   4.1406   4.7139   5.6402   6.0830   6.1251
     6.1251   6.8049   6.8873   6.8873

     occupation numbers 
     1.0000   1.0000   1.0000   1.0000   1.0000   1.0000   1.0000   1.0000
     1.0000   1.0000   1.0000   1.0000   1.0000   1.0000   1.0000   1.0000
     1.0000   1.0000   1.0000   1.0000   1.0000   1.0000   1.0000   1.0000
     1.0000   1.0000   1.0000   1.0000   1.0000   1.0000   1.0000   1.0000
     1.0000   1.0000   1.0000   1.0000

          k = 0.0000 0.0000 0.2065 (  3923 PWs)   bands (ev):

   -10.9552 -10.3662 -10.3335 -10.1527   1.0697   1.2255   1.3102   1.3169
     1.3225   1.3225   1.4826   1.4826   1.5871   1.9133   1.9195   2.0308
     2.4460   2.4460   2.5266   2.5930   2.6172   2.6172   2.6574   2.7411
     3.1660   3.2007   3.3761   4.4237   4.8200   5.7267   5.9986   6.1772
     6.1772   6.2429   6.8374   6.8374

     occupation numbers 
     1.0000   1.0000   1.0000   1.0000   1.0000   1.0000   1.0000   1.0000
     1.0000   1.0000   1.0000   1.0000   1.0000   1.0000   1.0000   1.0000
     1.0000   1.0000   1.0000   1.0000   1.0000   1.0000   1.0000   1.0000
     1.0000   1.0000   1.0000   1.0000   1.0000   1.0000   1.0000   1.0000
     1.0000   1.0000   1.0000   1.0000

          k = 0.0000 0.0000 0.4130 (  3918 PWs)   bands (ev):

   -10.8352 -10.4952 -10.2915 -10.1869   0.9825   1.0471   1.1614   1.2062
     1.3450   1.3450   1.4366   1.4366   1.6641   1.8687   1.8803   1.9178
     2.4918   2.4918   2.5918   2.5918   2.6003   2.6268   2.6330   2.7318
     3.1456   3.2754   3.8753   5.0141   5.0927   5.4566   5.7659   5.7926
     6.3189   6.3189   6.7003   6.7003

     occupation numbers 
     1.0000   1.0000   1.0000   1.0000   1.0000   1.0000   1.0000   1.0000
     1.0000   1.0000   1.0000   1.0000   1.0000   1.0000   1.0000   1.0000
     1.0000   1.0000   1.0000   1.0000   1.0000   1.0000   1.0000   1.0000
     1.0000   1.0000   1.0000   1.0000   1.0000   1.0000   1.0000   1.0000
     1.0000   1.0000   1.0000   1.0000

          k = 0.0000 0.0000-0.6194 (  3898 PWs)   bands (ev):

   -10.6675 -10.6675 -10.2372 -10.2372   0.9527   0.9527   1.1297   1.1297
     1.3852   1.3852   1.3852   1.3852   1.7821   1.7821   1.8586   1.8586
     2.5468   2.5468   2.5468   2.5468   2.6133   2.6133   2.6978   2.6978
     3.1878   3.1878   4.6601   4.6601   5.4385   5.4385   5.5539   5.5539
     6.5108   6.5108   6.5108   6.5108

     occupation numbers 
     1.0000   1.0000   1.0000   1.0000   1.0000   1.0000   1.0000   1.0000
     1.0000   1.0000   1.0000   1.0000   1.0000   1.0000   1.0000   1.0000
     1.0000   1.0000   1.0000   1.0000   1.0000   1.0000   1.0000   1.0000
     1.0000   1.0000   1.0000   1.0000   1.0000   1.0000   1.0000   1.0000
     1.0000   1.0000   1.0000   1.0000

          k = 0.0000 0.3849 0.0000 (  3928 PWs)   bands (ev):

   -10.8594 -10.3567 -10.2582 -10.1368   1.1787   1.2098   1.3939   1.4175
     1.4529   1.4978   1.5839   1.6182   1.6647   1.7926   2.0460   2.1149
     2.3719   2.4055   2.4269   2.4731   2.6358   2.6836   2.7479   2.8614
     2.8732   3.0747   3.6813   4.1030   4.4220   5.2256   5.6135   5.7793
     5.7884   5.7975   6.6255   6.7030

     occupation numbers 
     1.0000   1.0000   1.0000   1.0000   1.0000   1.0000   1.0000   1.0000
     1.0000   1.0000   1.0000   1.0000   1.0000   1.0000   1.0000   1.0000
     1.0000   1.0000   1.0000   1.0000   1.0000   1.0000   1.0000   1.0000
     1.0000   1.0000   1.0000   1.0000   1.0000   1.0000   1.0000   1.0000
     1.0000   1.0000   1.0000   1.0000

          k = 0.0000 0.3849 0.2065 (  3929 PWs)   bands (ev):

   -10.8204 -10.3402 -10.2996 -10.1495   1.1496   1.1780   1.3367   1.3762
     1.4035   1.4548   1.5637   1.5905   1.5969   1.7730   1.9824   2.0290
     2.4014   2.4172   2.4440   2.5393   2.6256   2.6725   2.6804   2.8696
     3.1154   3.2560   3.6971   4.2091   4.6167   5.2750   5.5972   5.6314
     5.7986   5.8519   6.5472   6.6435

     occupation numbers 
     1.0000   1.0000   1.0000   1.0000   1.0000   1.0000   1.0000   1.0000
     1.0000   1.0000   1.0000   1.0000   1.0000   1.0000   1.0000   1.0000
     1.0000   1.0000   1.0000   1.0000   1.0000   1.0000   1.0000   1.0000
     1.0000   1.0000   1.0000   1.0000   1.0000   1.0000   1.0000   1.0000
     1.0000   1.0000   1.0000   1.0000

          k = 0.0000 0.3849 0.4130 (  3937 PWs)   bands (ev):

   -10.7128 -10.4121 -10.2962 -10.1859   1.0820   1.1038   1.1443   1.1968
     1.4331   1.4425   1.5220   1.5437   1.5839   1.7338   1.8904   1.9133
     2.4695   2.4884   2.4958   2.5677   2.5935   2.6172   2.6913   2.8116
     3.2568   3.5916   3.9342   4.5350   5.0817   5.1229   5.3813   5.5974
     5.8447   6.0234   6.2837   6.4800

     occupation numbers 
     1.0000   1.0000   1.0000   1.0000   1.0000   1.0000   1.0000   1.0000
     1.0000   1.0000   1.0000   1.0000   1.0000   1.0000   1.0000   1.0000
     1.0000   1.0000   1.0000   1.0000   1.0000   1.0000   1.0000   1.0000
     1.0000   1.0000   1.0000   1.0000   1.0000   1.0000   1.0000   1.0000
     1.0000   1.0000   1.0000   1.0000

          k = 0.0000 0.3849-0.6194 (  3940 PWs)   bands (ev):

   -10.5637 -10.5637 -10.2392 -10.2392   1.0549   1.0549   1.0856   1.0856
     1.4697   1.4698   1.4827   1.4827   1.6623   1.6623   1.8597   1.8597
     2.5440   2.5440   2.5485   2.5485   2.5532   2.5532   2.7390   2.7390
     3.4275   3.4275   4.6007   4.6007   4.9299   4.9299   5.6422   5.6422
     5.9119   5.9119   6.2537   6.2537

     occupation numbers 
     1.0000   1.0000   1.0000   1.0000   1.0000   1.0000   1.0000   1.0000
     1.0000   1.0000   1.0000   1.0000   1.0000   1.0000   1.0000   1.0000
     1.0000   1.0000   1.0000   1.0000   1.0000   1.0000   1.0000   1.0000
     1.0000   1.0000   1.0000   1.0000   1.0000   1.0000   1.0000   1.0000
     1.0000   1.0000   1.0000   1.0000

          k = 0.0000 0.7698 0.0000 (  3954 PWs)   bands (ev):

   -10.5470 -10.3567 -10.1575 -10.1368   1.0419   1.2098   1.3780   1.4529
     1.5196   1.5839   1.7197   1.7926   1.9005   2.0312   2.0460   2.1149
     2.3484   2.4055   2.4731   2.4988   2.6552   2.6836   2.8131   2.8732
     3.0747   3.0838   3.6813   3.7941   4.1030   4.4220   4.6506   5.0972
     5.6135   5.7975   6.0930   6.3015

     occupation numbers 
     1.0000   1.0000   1.0000   1.0000   1.0000   1.0000   1.0000   1.0000
     1.0000   1.0000   1.0000   1.0000   1.0000   1.0000   1.0000   1.0000
     1.0000   1.0000   1.0000   1.0000   1.0000   1.0000   1.0000   1.0000
     1.0000   1.0000   1.0000   1.0000   1.0000   1.0000   1.0000   1.0000
     1.0000   1.0000   1.0000   1.0000

          k = 0.0000 0.7698 0.2065 (  3940 PWs)   bands (ev):

   -10.5202 -10.3402 -10.1826 -10.1495   1.0113   1.1780   1.2878   1.3762
     1.5395   1.5637   1.6945   1.7730   1.8679   1.8969   1.9824   2.0290
     2.3853   2.4172   2.5083   2.5393   2.6425   2.6804   2.7606   2.8696
     3.1154   3.3424   3.6971   3.9351   4.2091   4.6167   4.6229   5.1856
     5.5972   5.7986   6.1084   6.2254

     occupation numbers 
     1.0000   1.0000   1.0000   1.0000   1.0000   1.0000   1.0000   1.0000
     1.0000   1.0000   1.0000   1.0000   1.0000   1.0000   1.0000   1.0000
     1.0000   1.0000   1.0000   1.0000   1.0000   1.0000   1.0000   1.0000
     1.0000   1.0000   1.0000   1.0000   1.0000   1.0000   1.0000   1.0000
     1.0000   1.0000   1.0000   1.0000

          k = 0.0000 0.7698 0.4130 (  3948 PWs)   bands (ev):

   -10.4472 -10.2962 -10.2520 -10.1859   0.9558   1.0906   1.1038   1.1968
     1.5839   1.5967   1.6673   1.7338   1.7583   1.7846   1.8904   1.9133
     2.4787   2.4958   2.5339   2.5677   2.6097   2.6819   2.6913   2.8116
     3.2568   3.5916   3.6415   4.0473   4.5350   4.9084   5.0817   5.3813
     5.4185   5.8447   5.9792   6.0154

     occupation numbers 
     1.0000   1.0000   1.0000   1.0000   1.0000   1.0000   1.0000   1.0000
     1.0000   1.0000   1.0000   1.0000   1.0000   1.0000   1.0000   1.0000
     1.0000   1.0000   1.0000   1.0000   1.0000   1.0000   1.0000   1.0000
     1.0000   1.0000   1.0000   1.0000   1.0000   1.0000   1.0000   1.0000
     1.0000   1.0000   1.0000   1.0000

          k = 0.0000 0.7698-0.6194 (  3954 PWs)   bands (ev):

   -10.3487 -10.3487 -10.2392 -10.2392   0.9620   0.9620   1.0856   1.0856
     1.6623   1.6623   1.6841   1.6841   1.6874   1.6874   1.8597   1.8597
     2.5532   2.5532   2.5702   2.5702   2.5851   2.5851   2.7390   2.7390
     3.4275   3.4275   3.8757   3.8757   4.9299   4.9299   5.5303   5.5303
     5.6422   5.6422   5.7224   5.7224

     occupation numbers 
     1.0000   1.0000   1.0000   1.0000   1.0000   1.0000   1.0000   1.0000
     1.0000   1.0000   1.0000   1.0000   1.0000   1.0000   1.0000   1.0000
     1.0000   1.0000   1.0000   1.0000   1.0000   1.0000   1.0000   1.0000
     1.0000   1.0000   1.0000   1.0000   1.0000   1.0000   1.0000   1.0000
     1.0000   1.0000   1.0000   1.0000

          k = 0.0000-1.1547 0.0000 (  3916 PWs)   bands (ev):

   -10.3493 -10.3493 -10.1408 -10.1408   1.1141   1.1141   1.3230   1.3230
     1.5609   1.5609   1.9413   1.9413   1.9538   1.9538   2.0753   2.0753
     2.4642   2.4642   2.5909   2.5909   2.6705   2.6705   2.7418   2.7418
     3.2047   3.2047   3.4268   3.4268   4.1406   4.1406   4.7139   4.7139
     5.6402   5.6402   6.0829   6.0830

     occupation numbers 
     1.0000   1.0000   1.0000   1.0000   1.0000   1.0000   1.0000   1.0000
     1.0000   1.0000   1.0000   1.0000   1.0000   1.0000   1.0000   1.0000
     1.0000   1.0000   1.0000   1.0000   1.0000   1.0000   1.0000   1.0000
     1.0000   1.0000   1.0000   1.0000   1.0000   1.0000   1.0000   1.0000
     1.0000   1.0000   1.0000   1.0000

          k = 0.0000-1.1547 0.2065 (  3948 PWs)   bands (ev):

   -10.3335 -10.3335 -10.1527 -10.1527   1.0697   1.0697   1.2255   1.2255
     1.5871   1.5871   1.9133   1.9133   1.9195   1.9195   2.0308   2.0308
     2.5266   2.5266   2.5930   2.5930   2.6574   2.6574   2.7411   2.7411
     3.1660   3.1660   3.3761   3.3761   4.4237   4.4237   4.8200   4.8200
     5.7267   5.7267   5.9986   5.9986

     occupation numbers 
     1.0000   1.0000   1.0000   1.0000   1.0000   1.0000   1.0000   1.0000
     1.0000   1.0000   1.0000   1.0000   1.0000   1.0000   1.0000   1.0000
     1.0000   1.0000   1.0000   1.0000   1.0000   1.0000   1.0000   1.0000
     1.0000   1.0000   1.0000   1.0000   1.0000   1.0000   1.0000   1.0000
     1.0000   1.0000   1.0000   1.0000

          k = 0.0000-1.1547 0.4130 (  3952 PWs)   bands (ev):

   -10.2915 -10.2915 -10.1869 -10.1869   0.9825   0.9825   1.0471   1.0471
     1.6641   1.6641   1.8687   1.8687   1.8803   1.8803   1.9178   1.9178
     2.6003   2.6003   2.6268   2.6268   2.6330   2.6330   2.7318   2.7318
     3.1456   3.1456   3.2754   3.2754   5.0141   5.0141   5.0927   5.0927
     5.7659   5.7659   5.7926   5.7926

     occupation numbers 
     1.0000   1.0000   1.0000   1.0000   1.0000   1.0000   1.0000   1.0000
     1.0000   1.0000   1.0000   1.0000   1.0000   1.0000   1.0000   1.0000
     1.0000   1.0000   1.0000   1.0000   1.0000   1.0000   1.0000   1.0000
     1.0000   1.0000   1.0000   1.0000   1.0000   1.0000   1.0000   1.0000
     1.0000   1.0000   1.0000   1.0000

          k = 0.0000-1.1547-0.6194 (  3936 PWs)   bands (ev):

   -10.2372 -10.2372 -10.2372 -10.2372   0.9527   0.9527   0.9527   0.9527
     1.7821   1.7821   1.7821   1.7821   1.8586   1.8586   1.8586   1.8586
     2.6133   2.6133   2.6133   2.6133   2.6978   2.6978   2.6978   2.6978
     3.1878   3.1878   3.1878   3.1878   5.4384   5.4385   5.4385   5.4385
     5.5539   5.5539   5.5539   5.5539

     occupation numbers 
     1.0000   1.0000   1.0000   1.0000   1.0000   1.0000   1.0000   1.0000
     1.0000   1.0000   1.0000   1.0000   1.0000   1.0000   1.0000   1.0000
     1.0000   1.0000   1.0000   1.0000   1.0000   1.0000   1.0000   1.0000
     1.0000   1.0000   1.0000   1.0000   1.0000   1.0000   1.0000   1.0000
     1.0000   1.0000   1.0000   1.0000

          k = 0.3333 0.1925 0.0000 (  3930 PWs)   bands (ev):

   -10.8594 -10.5470 -10.2582 -10.1575   1.0419   1.1787   1.3780   1.3939
     1.4175   1.4978   1.5196   1.6182   1.6647   1.7197   1.9005   2.0312
     2.3484   2.3719   2.4269   2.4988   2.6358   2.6552   2.7479   2.8131
     2.8614   3.0838   3.7941   4.6506   5.0972   5.2256   5.7793   5.7885
     6.0930   6.3015   6.6255   6.7030

     occupation numbers 
     1.0000   1.0000   1.0000   1.0000   1.0000   1.0000   1.0000   1.0000
     1.0000   1.0000   1.0000   1.0000   1.0000   1.0000   1.0000   1.0000
     1.0000   1.0000   1.0000   1.0000   1.0000   1.0000   1.0000   1.0000
     1.0000   1.0000   1.0000   1.0000   1.0000   1.0000   1.0000   1.0000
     1.0000   1.0000   1.0000   1.0000

          k = 0.3333 0.1925 0.2065 (  3907 PWs)   bands (ev):

   -10.8204 -10.5202 -10.2996 -10.1826   1.0113   1.1496   1.2878   1.3367
     1.4035   1.4548   1.5395   1.5905   1.5969   1.6945   1.8679   1.8969
     2.3853   2.4014   2.4440   2.5083   2.6256   2.6425   2.6725   2.7606
     3.2560   3.3424   3.9351   4.6229   5.1856   5.2750   5.6314   5.8519
     6.1084   6.2254   6.5472   6.6435

     occupation numbers 
     1.0000   1.0000   1.0000   1.0000   1.0000   1.0000   1.0000   1.0000
     1.0000   1.0000   1.0000   1.0000   1.0000   1.0000   1.0000   1.0000
     1.0000   1.0000   1.0000   1.0000   1.0000   1.0000   1.0000   1.0000
     1.0000   1.0000   1.0000   1.0000   1.0000   1.0000   1.0000   1.0000
     1.0000   1.0000   1.0000   1.0000

          k = 0.3333 0.1925 0.4130 (  3933 PWs)   bands (ev):

   -10.7128 -10.4472 -10.4121 -10.2520   0.9558   1.0820   1.0906   1.1443
     1.4331   1.4425   1.5220   1.5437   1.5967   1.6673   1.7583   1.7846
     2.4695   2.4787   2.4884   2.5339   2.5935   2.6097   2.6172   2.6819
     3.6415   3.9342   4.0473   4.9084   5.1229   5.4185   5.5974   5.9792
     6.0154   6.0234   6.2837   6.4800

     occupation numbers 
     1.0000   1.0000   1.0000   1.0000   1.0000   1.0000   1.0000   1.0000
     1.0000   1.0000   1.0000   1.0000   1.0000   1.0000   1.0000   1.0000
     1.0000   1.0000   1.0000   1.0000   1.0000   1.0000   1.0000   1.0000
     1.0000   1.0000   1.0000   1.0000   1.0000   1.0000   1.0000   1.0000
     1.0000   1.0000   1.0000   1.0000

          k = 0.3333 0.1925-0.6194 (  3946 PWs)   bands (ev):

   -10.5637 -10.5637 -10.3487 -10.3487   0.9620   0.9620   1.0549   1.0549
     1.4697   1.4698   1.4827   1.4827   1.6841   1.6841   1.6874   1.6874
     2.5440   2.5440   2.5485   2.5485   2.5702   2.5702   2.5851   2.5851
     3.8757   3.8757   4.6007   4.6007   5.5303   5.5303   5.7224   5.7224
     5.9119   5.9119   6.2537   6.2537

     occupation numbers 
     1.0000   1.0000   1.0000   1.0000   1.0000   1.0000   1.0000   1.0000
     1.0000   1.0000   1.0000   1.0000   1.0000   1.0000   1.0000   1.0000
     1.0000   1.0000   1.0000   1.0000   1.0000   1.0000   1.0000   1.0000
     1.0000   1.0000   1.0000   1.0000   1.0000   1.0000   1.0000   1.0000
     1.0000   1.0000   1.0000   1.0000

          k = 0.3333 0.5774 0.0000 (  3938 PWs)   bands (ev):

   -10.6323 -10.6322 -10.1782 -10.1782   1.1448   1.1448   1.3347   1.3347
     1.5272   1.5272   1.5845   1.5845   1.8373   1.8373   1.9688   1.9688
     2.3226   2.3226   2.4473   2.4473   2.6485   2.6485   2.8198   2.8198
     3.0203   3.0203   4.4226   4.4226   4.6354   4.6354   5.2290   5.2290
     6.2536   6.2536   6.2863   6.2863

     occupation numbers 
     1.0000   1.0000   1.0000   1.0000   1.0000   1.0000   1.0000   1.0000
     1.0000   1.0000   1.0000   1.0000   1.0000   1.0000   1.0000   1.0000
     1.0000   1.0000   1.0000   1.0000   1.0000   1.0000   1.0000   1.0000
     1.0000   1.0000   1.0000   1.0000   1.0000   1.0000   1.0000   1.0000
     1.0000   1.0000   1.0000   1.0000

          k = 0.3333 0.5774 0.2065 (  3932 PWs)   bands (ev):

   -10.6016 -10.6016 -10.2082 -10.2082   1.1086   1.1086   1.2850   1.2850
     1.5188   1.5188   1.5573   1.5573   1.8092   1.8092   1.8094   1.8094
     2.3643   2.3643   2.4789   2.4789   2.6364   2.6364   2.7501   2.7501
     3.3752   3.3752   4.5550   4.5550   4.6101   4.6101   5.2327   5.2327
     6.1732   6.1732   6.2738   6.2738

     occupation numbers 
     1.0000   1.0000   1.0000   1.0000   1.0000   1.0000   1.0000   1.0000
     1.0000   1.0000   1.0000   1.0000   1.0000   1.0000   1.0000   1.0000
     1.0000   1.0000   1.0000   1.0000   1.0000   1.0000   1.0000   1.0000
     1.0000   1.0000   1.0000   1.0000   1.0000   1.0000   1.0000   1.0000
     1.0000   1.0000   1.0000   1.0000

          k = 0.3333 0.5774 0.4130 (  3936 PWs)   bands (ev):

   -10.5179 -10.5179 -10.2905 -10.2905   1.0368   1.0368   1.1268   1.1268
     1.5169   1.5169   1.5381   1.5381   1.6853   1.6853   1.7417   1.7417
     2.4609   2.4609   2.5183   2.5183   2.6056   2.6056   2.6725   2.6725
     3.8659   3.8659   4.4657   4.4657   4.9825   4.9825   5.3664   5.3664
     5.9570   5.9570   6.0904   6.0904

     occupation numbers 
     1.0000   1.0000   1.0000   1.0000   1.0000   1.0000   1.0000   1.0000
     1.0000   1.0000   1.0000   1.0000   1.0000   1.0000   1.0000   1.0000
     1.0000   1.0000   1.0000   1.0000   1.0000   1.0000   1.0000   1.0000
     1.0000   1.0000   1.0000   1.0000   1.0000   1.0000   1.0000   1.0000
     1.0000   1.0000   1.0000   1.0000

          k = 0.3333 0.5774-0.6194 (  3936 PWs)   bands (ev):

   -10.4039 -10.4039 -10.4039 -10.4039   1.0209   1.0209   1.0209   1.0209
     1.5328   1.5328   1.5328   1.5328   1.6781   1.6781   1.6781   1.6781
     2.5519   2.5519   2.5519   2.5519   2.5835   2.5835   2.5835   2.5835
     4.2135   4.2135   4.2135   4.2135   5.5300   5.5300   5.5300   5.5300
     5.7236   5.7236   5.7236   5.7236

     occupation numbers 
     1.0000   1.0000   1.0000   1.0000   1.0000   1.0000   1.0000   1.0000
     1.0000   1.0000   1.0000   1.0000   1.0000   1.0000   1.0000   1.0000
     1.0000   1.0000   1.0000   1.0000   1.0000   1.0000   1.0000   1.0000
     1.0000   1.0000   1.0000   1.0000   1.0000   1.0000   1.0000   1.0000
     1.0000   1.0000   1.0000   1.0000

          k = 0.3333-0.9623 0.0000 (  3952 PWs)   bands (ev):

   -10.3568 -10.3567 -10.1368 -10.1368   1.2098   1.2098   1.4529   1.4529
     1.5839   1.5839   1.7926   1.7926   2.0460   2.0460   2.1149   2.1149
     2.4055   2.4055   2.4731   2.4731   2.6836   2.6836   2.8732   2.8732
     3.0747   3.0747   3.6813   3.6813   4.1030   4.1030   4.4220   4.4220
     5.6135   5.6135   5.7975   5.7975

     occupation numbers 
     1.0000   1.0000   1.0000   1.0000   1.0000   1.0000   1.0000   1.0000
     1.0000   1.0000   1.0000   1.0000   1.0000   1.0000   1.0000   1.0000
     1.0000   1.0000   1.0000   1.0000   1.0000   1.0000   1.0000   1.0000
     1.0000   1.0000   1.0000   1.0000   1.0000   1.0000   1.0000   1.0000
     1.0000   1.0000   1.0000   1.0000

          k = 0.3333-0.9623 0.2065 (  3962 PWs)   bands (ev):

   -10.3402 -10.3402 -10.1495 -10.1495   1.1780   1.1780   1.3762   1.3762
     1.5637   1.5637   1.7730   1.7730   1.9824   1.9824   2.0290   2.0290
     2.4172   2.4172   2.5393   2.5393   2.6804   2.6804   2.8696   2.8696
     3.1154   3.1154   3.6971   3.6971   4.2091   4.2091   4.6167   4.6167
     5.5972   5.5972   5.7986   5.7986

     occupation numbers 
     1.0000   1.0000   1.0000   1.0000   1.0000   1.0000   1.0000   1.0000
     1.0000   1.0000   1.0000   1.0000   1.0000   1.0000   1.0000   1.0000
     1.0000   1.0000   1.0000   1.0000   1.0000   1.0000   1.0000   1.0000
     1.0000   1.0000   1.0000   1.0000   1.0000   1.0000   1.0000   1.0000
     1.0000   1.0000   1.0000   1.0000

          k = 0.3333-0.9623 0.4130 (  3952 PWs)   bands (ev):

   -10.2962 -10.2962 -10.1859 -10.1859   1.1038   1.1038   1.1968   1.1968
     1.5839   1.5839   1.7338   1.7338   1.8904   1.8904   1.9133   1.9133
     2.4958   2.4958   2.5677   2.5677   2.6913   2.6913   2.8116   2.8116
     3.2568   3.2568   3.5916   3.5916   4.5350   4.5350   5.0817   5.0817
     5.3813   5.3813   5.8447   5.8447

     occupation numbers 
     1.0000   1.0000   1.0000   1.0000   1.0000   1.0000   1.0000   1.0000
     1.0000   1.0000   1.0000   1.0000   1.0000   1.0000   1.0000   1.0000
     1.0000   1.0000   1.0000   1.0000   1.0000   1.0000   1.0000   1.0000
     1.0000   1.0000   1.0000   1.0000   1.0000   1.0000   1.0000   1.0000
     1.0000   1.0000   1.0000   1.0000

          k = 0.3333-0.9623-0.6194 (  3948 PWs)   bands (ev):

   -10.2392 -10.2392 -10.2392 -10.2392   1.0856   1.0856   1.0856   1.0856
     1.6623   1.6623   1.6623   1.6623   1.8597   1.8597   1.8597   1.8597
     2.5532   2.5532   2.5532   2.5532   2.7390   2.7390   2.7390   2.7390
     3.4275   3.4275   3.4275   3.4275   4.9299   4.9299   4.9299   4.9299
     5.6422   5.6422   5.6422   5.6422

     occupation numbers 
     1.0000   1.0000   1.0000   1.0000   1.0000   1.0000   1.0000   1.0000
     1.0000   1.0000   1.0000   1.0000   1.0000   1.0000   1.0000   1.0000
     1.0000   1.0000   1.0000   1.0000   1.0000   1.0000   1.0000   1.0000
     1.0000   1.0000   1.0000   1.0000   1.0000   1.0000   1.0000   1.0000
     1.0000   1.0000   1.0000   1.0000

          k = 0.3333-0.5774 0.0000 (  3940 PWs)   bands (ev):

   -10.6323 -10.1943 -10.1943 -10.1782   1.1448   1.2800   1.3347   1.5272
     1.5845   1.6688   1.6688   1.8373   1.9688   2.0258   2.2690   2.2690
     2.3226   2.3627   2.4473   2.4858   2.5316   2.5316   2.6485   2.8198
     3.0203   3.2410   3.4120   3.4120   4.4226   4.6354   5.0283   5.0283
     5.2182   5.2290   6.2536   6.2863

     occupation numbers 
     1.0000   1.0000   1.0000   1.0000   1.0000   1.0000   1.0000   1.0000
     1.0000   1.0000   1.0000   1.0000   1.0000   1.0000   1.0000   1.0000
     1.0000   1.0000   1.0000   1.0000   1.0000   1.0000   1.0000   1.0000
     1.0000   1.0000   1.0000   1.0000   1.0000   1.0000   1.0000   1.0000
     1.0000   1.0000   1.0000   1.0000

          k = 0.3333-0.5774 0.2065 (  3937 PWs)   bands (ev):

   -10.6016 -10.2082 -10.1920 -10.1920   1.1086   1.2850   1.3081   1.5188
     1.5573   1.5787   1.5787   1.8092   1.8094   1.9187   2.1585   2.1585
     2.3643   2.3793   2.4789   2.4792   2.6364   2.6812   2.6812   2.7501
     3.3685   3.3685   3.3752   3.4090   4.5550   4.6101   5.0893   5.1982
     5.1982   5.2327   6.1732   6.2738

     occupation numbers 
     1.0000   1.0000   1.0000   1.0000   1.0000   1.0000   1.0000   1.0000
     1.0000   1.0000   1.0000   1.0000   1.0000   1.0000   1.0000   1.0000
     1.0000   1.0000   1.0000   1.0000   1.0000   1.0000   1.0000   1.0000
     1.0000   1.0000   1.0000   1.0000   1.0000   1.0000   1.0000   1.0000
     1.0000   1.0000   1.0000   1.0000

          k = 0.3333-0.5774 0.4130 (  3933 PWs)   bands (ev):

   -10.5179 -10.2905 -10.1873 -10.1873   1.0368   1.1268   1.3917   1.4031
     1.4031   1.5169   1.5381   1.6853   1.7170   1.7417   2.0771   2.0771
     2.4064   2.4607   2.4609   2.5183   2.6056   2.6725   2.8530   2.8530
     3.2872   3.2872   3.8035   3.8659   4.4657   4.7452   4.9825   5.3664
     5.5234   5.5234   5.9570   6.0904

     occupation numbers 
     1.0000   1.0000   1.0000   1.0000   1.0000   1.0000   1.0000   1.0000
     1.0000   1.0000   1.0000   1.0000   1.0000   1.0000   1.0000   1.0000
     1.0000   1.0000   1.0000   1.0000   1.0000   1.0000   1.0000   1.0000
     1.0000   1.0000   1.0000   1.0000   1.0000   1.0000   1.0000   1.0000
     1.0000   1.0000   1.0000   1.0000

          k = 0.3333-0.5774-0.6194 (  3936 PWs)   bands (ev):

   -10.4039 -10.4039 -10.1849 -10.1849   1.0209   1.0209   1.3212   1.3212
     1.5305   1.5305   1.5328   1.5328   1.6781   1.6781   2.0556   2.0556
     2.4346   2.4346   2.5519   2.5519   2.5835   2.5835   2.9255   2.9255
     3.2429   3.2429   4.2135   4.2135   4.2827   4.2827   5.5300   5.5300
     5.6817   5.6817   5.7236   5.7236

     occupation numbers 
     1.0000   1.0000   1.0000   1.0000   1.0000   1.0000   1.0000   1.0000
     1.0000   1.0000   1.0000   1.0000   1.0000   1.0000   1.0000   1.0000
     1.0000   1.0000   1.0000   1.0000   1.0000   1.0000   1.0000   1.0000
     1.0000   1.0000   1.0000   1.0000   1.0000   1.0000   1.0000   1.0000
     1.0000   1.0000   1.0000   1.0000

          k = 0.3333-0.1925-0.2065 (  3929 PWs)   bands (ev):

   -10.8204 -10.3402 -10.2996 -10.1495   1.1496   1.1780   1.3367   1.3762
     1.4035   1.4548   1.5637   1.5905   1.5969   1.7730   1.9824   2.0290
     2.4014   2.4172   2.4440   2.5393   2.6256   2.6725   2.6804   2.8696
     3.1154   3.2560   3.6971   4.2091   4.6167   5.2750   5.5972   5.6314
     5.7986   5.8519   6.5472   6.6435

     occupation numbers 
     1.0000   1.0000   1.0000   1.0000   1.0000   1.0000   1.0000   1.0000
     1.0000   1.0000   1.0000   1.0000   1.0000   1.0000   1.0000   1.0000
     1.0000   1.0000   1.0000   1.0000   1.0000   1.0000   1.0000   1.0000
     1.0000   1.0000   1.0000   1.0000   1.0000   1.0000   1.0000   1.0000
     1.0000   1.0000   1.0000   1.0000

          k = 0.3333-0.1925-0.4130 (  3937 PWs)   bands (ev):

   -10.7128 -10.4121 -10.2962 -10.1859   1.0820   1.1038   1.1443   1.1968
     1.4331   1.4425   1.5220   1.5437   1.5839   1.7338   1.8904   1.9133
     2.4695   2.4884   2.4958   2.5677   2.5935   2.6172   2.6913   2.8116
     3.2568   3.5916   3.9342   4.5350   5.0817   5.1229   5.3813   5.5974
     5.8447   6.0234   6.2837   6.4800

     occupation numbers 
     1.0000   1.0000   1.0000   1.0000   1.0000   1.0000   1.0000   1.0000
     1.0000   1.0000   1.0000   1.0000   1.0000   1.0000   1.0000   1.0000
     1.0000   1.0000   1.0000   1.0000   1.0000   1.0000   1.0000   1.0000
     1.0000   1.0000   1.0000   1.0000   1.0000   1.0000   1.0000   1.0000
     1.0000   1.0000   1.0000   1.0000

          k = 0.6667-0.3849-0.2065 (  3940 PWs)   bands (ev):

   -10.5202 -10.3402 -10.1826 -10.1495   1.0113   1.1780   1.2878   1.3762
     1.5395   1.5637   1.6945   1.7730   1.8679   1.8969   1.9824   2.0290
     2.3853   2.4172   2.5083   2.5393   2.6425   2.6804   2.7606   2.8696
     3.1154   3.3424   3.6971   3.9351   4.2091   4.6167   4.6229   5.1856
     5.5972   5.7986   6.1084   6.2254

     occupation numbers 
     1.0000   1.0000   1.0000   1.0000   1.0000   1.0000   1.0000   1.0000
     1.0000   1.0000   1.0000   1.0000   1.0000   1.0000   1.0000   1.0000
     1.0000   1.0000   1.0000   1.0000   1.0000   1.0000   1.0000   1.0000
     1.0000   1.0000   1.0000   1.0000   1.0000   1.0000   1.0000   1.0000
     1.0000   1.0000   1.0000   1.0000

          k = 0.6667-0.3849-0.4130 (  3948 PWs)   bands (ev):

   -10.4472 -10.2962 -10.2520 -10.1859   0.9558   1.0906   1.1038   1.1968
     1.5839   1.5967   1.6673   1.7338   1.7583   1.7846   1.8904   1.9133
     2.4787   2.4958   2.5339   2.5677   2.6097   2.6819   2.6913   2.8116
     3.2568   3.5916   3.6415   4.0473   4.5350   4.9084   5.0817   5.3813
     5.4185   5.8447   5.9792   6.0154

     occupation numbers 
     1.0000   1.0000   1.0000   1.0000   1.0000   1.0000   1.0000   1.0000
     1.0000   1.0000   1.0000   1.0000   1.0000   1.0000   1.0000   1.0000
     1.0000   1.0000   1.0000   1.0000   1.0000   1.0000   1.0000   1.0000
     1.0000   1.0000   1.0000   1.0000   1.0000   1.0000   1.0000   1.0000
     1.0000   1.0000   1.0000   1.0000

          k = 0.3333 0.1925-0.2065 (  3907 PWs)   bands (ev):

   -10.8204 -10.5202 -10.2996 -10.1826   1.0113   1.1496   1.2878   1.3367
     1.4035   1.4548   1.5395   1.5905   1.5969   1.6945   1.8679   1.8969
     2.3853   2.4014   2.4440   2.5083   2.6256   2.6425   2.6725   2.7606
     3.2560   3.3424   3.9351   4.6229   5.1856   5.2750   5.6314   5.8519
     6.1084   6.2254   6.5472   6.6435

     occupation numbers 
     1.0000   1.0000   1.0000   1.0000   1.0000   1.0000   1.0000   1.0000
     1.0000   1.0000   1.0000   1.0000   1.0000   1.0000   1.0000   1.0000
     1.0000   1.0000   1.0000   1.0000   1.0000   1.0000   1.0000   1.0000
     1.0000   1.0000   1.0000   1.0000   1.0000   1.0000   1.0000   1.0000
     1.0000   1.0000   1.0000   1.0000

          k = 0.3333 0.1925-0.4130 (  3933 PWs)   bands (ev):

   -10.7128 -10.4472 -10.4121 -10.2520   0.9558   1.0820   1.0906   1.1443
     1.4331   1.4425   1.5220   1.5437   1.5967   1.6673   1.7583   1.7846
     2.4695   2.4787   2.4884   2.5339   2.5935   2.6097   2.6172   2.6819
     3.6415   3.9342   4.0473   4.9084   5.1229   5.4185   5.5974   5.9792
     6.0154   6.0234   6.2837   6.4800

     occupation numbers 
     1.0000   1.0000   1.0000   1.0000   1.0000   1.0000   1.0000   1.0000
     1.0000   1.0000   1.0000   1.0000   1.0000   1.0000   1.0000   1.0000
     1.0000   1.0000   1.0000   1.0000   1.0000   1.0000   1.0000   1.0000
     1.0000   1.0000   1.0000   1.0000   1.0000   1.0000   1.0000   1.0000
     1.0000   1.0000   1.0000   1.0000

          k =-0.6667 0.7698-0.2065 (  3962 PWs)   bands (ev):

   -10.3402 -10.3402 -10.1495 -10.1495   1.1780   1.1780   1.3762   1.3762
     1.5637   1.5637   1.7730   1.7730   1.9824   1.9824   2.0290   2.0290
     2.4172   2.4172   2.5393   2.5393   2.6804   2.6804   2.8696   2.8696
     3.1154   3.1154   3.6971   3.6971   4.2091   4.2091   4.6167   4.6167
     5.5972   5.5972   5.7986   5.7986

     occupation numbers 
     1.0000   1.0000   1.0000   1.0000   1.0000   1.0000   1.0000   1.0000
     1.0000   1.0000   1.0000   1.0000   1.0000   1.0000   1.0000   1.0000
     1.0000   1.0000   1.0000   1.0000   1.0000   1.0000   1.0000   1.0000
     1.0000   1.0000   1.0000   1.0000   1.0000   1.0000   1.0000   1.0000
     1.0000   1.0000   1.0000   1.0000

          k =-0.6667 0.7698-0.4130 (  3952 PWs)   bands (ev):

   -10.2962 -10.2962 -10.1859 -10.1859   1.1038   1.1038   1.1968   1.1968
     1.5839   1.5839   1.7338   1.7338   1.8904   1.8904   1.9133   1.9133
     2.4958   2.4958   2.5677   2.5677   2.6913   2.6913   2.8116   2.8116
     3.2568   3.2568   3.5916   3.5916   4.5350   4.5350   5.0817   5.0817
     5.3813   5.3813   5.8447   5.8447

     occupation numbers 
     1.0000   1.0000   1.0000   1.0000   1.0000   1.0000   1.0000   1.0000
     1.0000   1.0000   1.0000   1.0000   1.0000   1.0000   1.0000   1.0000
     1.0000   1.0000   1.0000   1.0000   1.0000   1.0000   1.0000   1.0000
     1.0000   1.0000   1.0000   1.0000   1.0000   1.0000   1.0000   1.0000
     1.0000   1.0000   1.0000   1.0000

     highest occupied level (ev):     6.8873

!    total energy              =    -723.27377579 Ry
     estimated scf accuracy    <          6.1E-09 Ry

     The total energy is the sum of the following terms:
     one-electron contribution =    -309.04995519 Ry
     hartree contribution      =     236.57764067 Ry
     xc contribution           =    -219.09199730 Ry
     ewald contribution        =    -431.70946397 Ry

     convergence has been achieved in  31 iterations

     Forces acting on atoms (cartesian axes, Ry/au):

     atom    1 type  1   force =     0.00000208    0.00000120    0.00005933
     atom    2 type  1   force =    -0.00000012   -0.00000007    0.00006317
     atom    3 type  2   force =     0.00000001    0.00000001   -0.00006119
     atom    4 type  2   force =     0.00000086    0.00000050   -0.00005949
     atom    5 type  1   force =    -0.00000196   -0.00000113    0.00006030
     atom    6 type  1   force =    -0.00000035   -0.00000020    0.00005855
     atom    7 type  2   force =    -0.00000049   -0.00000028   -0.00006275
     atom    8 type  2   force =    -0.00000003   -0.00000002   -0.00005793
     The non-local contrib.  to forces
     atom    1 type  1   force =     0.00000015    0.00000008   -0.00483321
     atom    2 type  1   force =    -0.00000113   -0.00000065   -0.00482981
     atom    3 type  2   force =    -0.00000215   -0.00000124    0.00575761
     atom    4 type  2   force =     0.00000217    0.00000125    0.00575441
     atom    5 type  1   force =    -0.00000022   -0.00000013   -0.00483274
     atom    6 type  1   force =     0.00000072    0.00000041   -0.00483050
     atom    7 type  2   force =     0.00000054    0.00000031    0.00575439
     atom    8 type  2   force =    -0.00000053   -0.00000030    0.00575525
     The ionic contribution  to forces
     atom    1 type  1   force =    -0.00000000    0.00000000    0.06271747
     atom    2 type  1   force =     0.00000000   -0.00000000    0.06271747
     atom    3 type  2   force =    -0.00000000    0.00000000   -0.06271747
     atom    4 type  2   force =     0.00000000   -0.00000000   -0.06271747
     atom    5 type  1   force =    -0.00000000    0.00000000    0.06271747
     atom    6 type  1   force =     0.00000000   -0.00000000    0.06271747
     atom    7 type  2   force =    -0.00000000    0.00000000   -0.06271747
     atom    8 type  2   force =     0.00000000   -0.00000000   -0.06271747
     The local contribution  to forces
     atom    1 type  1   force =    -0.00000157   -0.00000091   -0.05828704
     atom    2 type  1   force =     0.00000255    0.00000137   -0.05829336
     atom    3 type  2   force =     0.00000163    0.00000095    0.05696548
     atom    4 type  2   force =    -0.00000160   -0.00000095    0.05697512
     atom    5 type  1   force =     0.00000195    0.00000113   -0.05828897
     atom    6 type  1   force =    -0.00000235   -0.00000146   -0.05829036
     atom    7 type  2   force =     0.00000157    0.00000091    0.05696982
     atom    8 type  2   force =    -0.00000051   -0.00000032    0.05697148
     The core correction contribution to forces
     atom    1 type  1   force =     0.00000004    0.00000002    0.00046389
     atom    2 type  1   force =    -0.00000005   -0.00000004    0.00046388
     atom    3 type  2   force =     0.00000003    0.00000002   -0.00006507
     atom    4 type  2   force =    -0.00000003   -0.00000002   -0.00006500
     atom    5 type  1   force =    -0.00000003   -0.00000002    0.00046393
     atom    6 type  1   force =     0.00000012    0.00000005    0.00046392
     atom    7 type  2   force =    -0.00000000   -0.00000000   -0.00006501
     atom    8 type  2   force =     0.00000001    0.00000000   -0.00006502
     The Hubbard contrib.    to forces
     atom    1 type  1   force =     0.00000000    0.00000000    0.00000000
     atom    2 type  1   force =     0.00000000    0.00000000    0.00000000
     atom    3 type  2   force =     0.00000000    0.00000000    0.00000000
     atom    4 type  2   force =     0.00000000    0.00000000    0.00000000
     atom    5 type  1   force =     0.00000000    0.00000000    0.00000000
     atom    6 type  1   force =     0.00000000    0.00000000    0.00000000
     atom    7 type  2   force =     0.00000000    0.00000000    0.00000000
     atom    8 type  2   force =     0.00000000    0.00000000    0.00000000
     The SCF correction term to forces
     atom    1 type  1   force =     0.00000342    0.00000197   -0.00000217
     atom    2 type  1   force =    -0.00000150   -0.00000086    0.00000459
     atom    3 type  2   force =     0.00000044    0.00000026   -0.00000213
     atom    4 type  2   force =     0.00000029    0.00000017   -0.00000694
     atom    5 type  1   force =    -0.00000372   -0.00000215    0.00000022
     atom    6 type  1   force =     0.00000116    0.00000067   -0.00000236
     atom    7 type  2   force =    -0.00000265   -0.00000153   -0.00000487
     atom    8 type  2   force =     0.00000096    0.00000056   -0.00000257

     Total force =     0.000171     Total SCF correction =     0.000013

     init_run     :      2.95s CPU      2.68s WALL (       1 calls)
     electrons    :    160.14s CPU    122.21s WALL (       1 calls)
     forces       :      1.09s CPU      0.95s WALL (       1 calls)

     Called by init_run:
     wfcinit      :      1.39s CPU      1.08s WALL (       1 calls)
     wfcinit:atom :      0.02s CPU      0.01s WALL (      20 calls)
     wfcinit:wfcr :      1.28s CPU      1.00s WALL (      20 calls)
     potinit      :      0.60s CPU      0.61s WALL (       1 calls)
     hinit0       :      0.80s CPU      0.82s WALL (       1 calls)

     Called by electrons:
     c_bands      :    142.18s CPU    107.63s WALL (      31 calls)
     sum_band     :     14.73s CPU     11.91s WALL (      31 calls)
     v_of_rho     :      1.02s CPU      0.91s WALL (      32 calls)
     v_h          :      0.07s CPU      0.06s WALL (      32 calls)
     v_xc         :      0.99s CPU      0.88s WALL (      33 calls)
     newd         :      2.00s CPU      1.59s WALL (      32 calls)
     mix_rho      :      0.16s CPU      0.15s WALL (      31 calls)

     Called by c_bands:
     init_us_2    :      0.85s CPU      0.71s WALL (    1280 calls)
     init_us_2:cp :      0.84s CPU      0.71s WALL (    1280 calls)
     cegterg      :    132.91s CPU     99.96s WALL (     620 calls)

     Called by sum_band:
     sum_band:wei :      0.00s CPU      0.00s WALL (      31 calls)
     sum_band:loo :     12.16s CPU      9.92s WALL (      31 calls)
     sum_band:buf :      0.07s CPU      0.06s WALL (     620 calls)
     sum_band:ini :      0.40s CPU      0.33s WALL (     620 calls)
     sum_band:cal :      1.50s CPU      0.86s WALL (     620 calls)
     sum_band:bec :      0.07s CPU      0.05s WALL (     620 calls)
     addusdens    :      2.35s CPU      1.78s WALL (      31 calls)
                                        0.00s GPU  (      31 calls)
     addusd:skk   :      0.01s CPU      0.01s WALL (      62 calls)
                                        0.00s GPU  (      62 calls)

     Called by *egterg:
     cdiaghg      :     20.25s CPU     15.95s WALL (    4030 calls)
     cegterg:over :      6.72s CPU      3.85s WALL (    3410 calls)
     cegterg:upda :      3.61s CPU      2.02s WALL (    3410 calls)
     cegterg:last :      8.51s CPU      4.53s WALL (    2299 calls)
     h_psi        :     86.48s CPU     69.75s WALL (    4050 calls)
     s_psi        :      5.83s CPU      3.14s WALL (    4050 calls)
     g_psi        :      0.51s CPU      0.34s WALL (    3410 calls)

     Called by h_psi:
     h_psi:calbec :      6.22s CPU      3.67s WALL (    4050 calls)
     vloc_psi     :     74.12s CPU     62.66s WALL (    4050 calls)
     add_vuspsi   :      5.88s CPU      3.22s WALL (    4050 calls)

     General routines
     calbec       :      7.87s CPU      4.62s WALL (    4750 calls)
     fft          :      0.83s CPU      0.82s WALL (     425 calls)
     ffts         :      0.18s CPU      0.18s WALL (      63 calls)
     fftw         :     73.51s CPU     62.75s WALL (  195464 calls)
     interpolate  :      0.21s CPU      0.21s WALL (      32 calls)

     Parallel routines

     PWSCF        :   2m44.55s CPU   2m 6.23s WALL


   This run was terminated on:   8:38:46  15Jul2025            

=------------------------------------------------------------------------------=
   JOB DONE.
=------------------------------------------------------------------------------=
Note: The following floating-point exceptions are signalling: IEEE_INVALID_FLAG
Note: The following floating-point exceptions are signalling: IEEE_INVALID_FLAG
