Authorization required, but no authorization protocol specified

Authorization required, but no authorization protocol specified

Authorization required, but no authorization protocol specified

Authorization required, but no authorization protocol specified

Authorization required, but no authorization protocol specified

Authorization required, but no authorization protocol specified

Authorization required, but no authorization protocol specified

Authorization required, but no authorization protocol specified

Authorization required, but no authorization protocol specified

Authorization required, but no authorization protocol specified


     Program PWSCF v.7.2 starts on  8Jul2025 at 13:40:44 

     This program is part of the open-source Quantum ESPRESSO suite
     for quantum simulation of materials; please cite
         "P. Giannozzi et al., J. Phys.:Condens. Matter 21 395502 (2009);
         "P. Giannozzi et al., J. Phys.:Condens. Matter 29 465901 (2017);
         "P. Giannozzi et al., J. Chem. Phys. 152 154105 (2020);
          URL http://www.quantum-espresso.org", 
     in publications or presentations arising from this work. More details at
     http://www.quantum-espresso.org/quote

     Parallel version (MPI), running on     8 processors

     MPI processes distributed on     1 nodes
     51342 MiB available memory on the printing compute node when the environment starts

     Reading input from /home/jvc/QEspresso7.2/ZnO_database/scripts/cell111_strain10%.in/ZnO-3.60-1.58-111.in
Warning: card &CELL ignored
Warning: card / ignored
Warning: card &FCP ignored
Warning: card / ignored
Warning: card &RISM ignored
Warning: card / ignored

     Current dimensions of program PWSCF are:
     Max number of different atomic species (ntypx) = 10
     Max number of k-points (npk) =  40000
     Max angular momentum in pseudopotentials (lmaxx) =  4
     file Zn.upf: wavefunction(s)  3D renormalized
     Message from routine setup:
     using ibrav=0 with symmetry is DISCOURAGED, use correct ibrav instead

     R & G space division:  proc/nbgrp/npool/nimage =       8
     Subspace diagonalization in iterative solution of the eigenvalue problem:
     a serial algorithm will be used


     Parallelization info
     --------------------
     sticks:   dense  smooth     PW     G-vecs:    dense   smooth      PW
     Min         160      80     24                 7276     2566     426
     Max         162      82     26                 7277     2569     429
     Sum        1285     649    199                58209    20545    3417

     Using Slab Decomposition



     bravais-lattice index     =            0
     lattice parameter (alat)  =       6.7967  a.u.
     unit-cell volume          =     430.1882 (a.u.)^3
     number of atoms/cell      =            4
     number of atomic types    =            2
     number of electrons       =        36.00
     number of Kohn-Sham states=           18
     kinetic-energy cutoff     =      50.0000  Ry
     charge density cutoff     =     400.0000  Ry
     scf convergence threshold =      1.0E-08
     mixing beta               =       0.3000
     number of iterations used =            8  plain     mixing
     Exchange-correlation= PBE
                           (   1   4   3   4   0   0   0)

     celldm(1)=   6.796739  celldm(2)=   0.000000  celldm(3)=   0.000000
     celldm(4)=   0.000000  celldm(5)=   0.000000  celldm(6)=   0.000000

     crystal axes: (cart. coord. in units of alat)
               a(1) = (   1.000000   0.000000   0.000000 )  
               a(2) = (  -0.500000   0.866025   0.000000 )  
               a(3) = (   0.000000   0.000000   1.582071 )  

     reciprocal axes: (cart. coord. in units 2 pi/alat)
               b(1) = (  1.000000  0.577350 -0.000000 )  
               b(2) = (  0.000000  1.154701  0.000000 )  
               b(3) = (  0.000000 -0.000000  0.632083 )  


     PseudoPot. # 1 for Zn read from file:
     /home/jvc/QEspresso7.2/ZnO_database/pseudos/Zn.upf
     MD5 check sum: 7f56cabf9682ed8c977c2f7d0c5985c5
     Pseudo is Ultrasoft + core correction, Zval = 12.0
     Generated using &quot;atomic&quot; code by A. Dal Corso  v.6.2.2
     Using radial grid of 1201 points,  6 beta functions with: 
                l(1) =   0
                l(2) =   0
                l(3) =   1
                l(4) =   1
                l(5) =   2
                l(6) =   2
     Q(r) pseudized with 0 coefficients 


     PseudoPot. # 2 for O  read from file:
     /home/jvc/QEspresso7.2/ZnO_database/pseudos/O.upf
     MD5 check sum: 91400c9766925bcf19f520983a725ff0
     Pseudo is Ultrasoft + core correction, Zval =  6.0
     Generated using &quot;atomic&quot; code by A. Dal Corso  v.6.3MaX
     Using radial grid of 1095 points,  4 beta functions with: 
                l(1) =   0
                l(2) =   0
                l(3) =   1
                l(4) =   1
     Q(r) pseudized with 0 coefficients 


     atomic species   valence    mass     pseudopotential
        Zn            12.00    65.38000     Zn( 1.00)
        O              6.00    15.99900     O ( 1.00)

     12 Sym. Ops. (no inversion) found ( 6 have fractional translation)



   Cartesian axes

     site n.     atom                  positions (alat units)
         1           Zn  tau(   1) = (   0.0000000   0.0000000   0.0000000  )
         2           O   tau(   2) = (  -0.0000000   0.5773503   0.1848235  )
         3           Zn  tau(   3) = (  -0.0000000   0.5773503   0.7910356  )
         4           O   tau(   4) = (   0.0000000   0.0000000   0.9758591  )

     number of k points=    28
                       cart. coord. in units 2pi/alat
        k(    1) = (   0.0000000   0.0000000   0.0000000), wk =   0.0092593
        k(    2) = (   0.0000000   0.0000000   0.1053471), wk =   0.0185185
        k(    3) = (   0.0000000   0.0000000   0.2106943), wk =   0.0185185
        k(    4) = (   0.0000000   0.0000000  -0.3160414), wk =   0.0092593
        k(    5) = (   0.0000000   0.1924501   0.0000000), wk =   0.0555556
        k(    6) = (   0.0000000   0.1924501   0.1053471), wk =   0.1111111
        k(    7) = (   0.0000000   0.1924501   0.2106943), wk =   0.1111111
        k(    8) = (   0.0000000   0.1924501  -0.3160414), wk =   0.0555556
        k(    9) = (   0.0000000   0.3849002   0.0000000), wk =   0.0555556
        k(   10) = (   0.0000000   0.3849002   0.1053471), wk =   0.1111111
        k(   11) = (   0.0000000   0.3849002   0.2106943), wk =   0.1111111
        k(   12) = (   0.0000000   0.3849002  -0.3160414), wk =   0.0555556
        k(   13) = (   0.0000000  -0.5773503   0.0000000), wk =   0.0277778
        k(   14) = (   0.0000000  -0.5773503   0.1053471), wk =   0.0555556
        k(   15) = (   0.0000000  -0.5773503   0.2106943), wk =   0.0555556
        k(   16) = (   0.0000000  -0.5773503  -0.3160414), wk =   0.0277778
        k(   17) = (   0.1666667   0.2886751   0.0000000), wk =   0.0555556
        k(   18) = (   0.1666667   0.2886751   0.1053471), wk =   0.1111111
        k(   19) = (   0.1666667   0.2886751   0.2106943), wk =   0.1111111
        k(   20) = (   0.1666667   0.2886751  -0.3160414), wk =   0.0555556
        k(   21) = (   0.1666667   0.4811252   0.0000000), wk =   0.1111111
        k(   22) = (   0.1666667   0.4811252   0.1053471), wk =   0.2222222
        k(   23) = (   0.1666667   0.4811252   0.2106943), wk =   0.2222222
        k(   24) = (   0.1666667   0.4811252  -0.3160414), wk =   0.1111111
        k(   25) = (   0.3333333   0.5773503   0.0000000), wk =   0.0185185
        k(   26) = (   0.3333333   0.5773503   0.1053471), wk =   0.0370370
        k(   27) = (   0.3333333   0.5773503   0.2106943), wk =   0.0370370
        k(   28) = (   0.3333333   0.5773503  -0.3160414), wk =   0.0185185

     Dense  grid:    58209 G-vectors     FFT dimensions: (  45,  45,  72)

     Smooth grid:    20545 G-vectors     FFT dimensions: (  36,  36,  50)

     Estimated max dynamical RAM per process >      31.64 MB

     Estimated total dynamical RAM >     253.14 MB

     Check: negative core charge=   -0.000002

     Initial potential from superposition of free atoms

     starting charge      35.9925, renormalised to      36.0000
     Starting wfcs are   26 randomized atomic wfcs

     total cpu time spent up to now is        1.9 secs

     Self-consistent Calculation

     iteration #  1     ecut=    50.00 Ry     beta= 0.30
     Davidson diagonalization with overlap
     ethr =  1.00E-02,  avg # of iterations =  1.2

     total cpu time spent up to now is        3.1 secs

     total energy              =    -361.35737461 Ry
     estimated scf accuracy    <       0.83407613 Ry

     iteration #  2     ecut=    50.00 Ry     beta= 0.30
     Davidson diagonalization with overlap
     ethr =  2.32E-03,  avg # of iterations =  2.1

     total cpu time spent up to now is        4.5 secs

     total energy              =    -361.47197823 Ry
     estimated scf accuracy    <       0.10272486 Ry

     iteration #  3     ecut=    50.00 Ry     beta= 0.30
     Davidson diagonalization with overlap
     ethr =  2.85E-04,  avg # of iterations =  5.8

     total cpu time spent up to now is        6.5 secs

     total energy              =    -361.47406000 Ry
     estimated scf accuracy    <       0.18715902 Ry

     iteration #  4     ecut=    50.00 Ry     beta= 0.30
     Davidson diagonalization with overlap
     ethr =  2.85E-04,  avg # of iterations =  8.6

     total cpu time spent up to now is        9.3 secs

     total energy              =    -361.63115616 Ry
     estimated scf accuracy    <       0.25276520 Ry

     iteration #  5     ecut=    50.00 Ry     beta= 0.30
     Davidson diagonalization with overlap
     ethr =  2.85E-04,  avg # of iterations =  1.2

     total cpu time spent up to now is       10.5 secs

     total energy              =    -361.53395259 Ry
     estimated scf accuracy    <       0.27622718 Ry

     iteration #  6     ecut=    50.00 Ry     beta= 0.30
     Davidson diagonalization with overlap
     ethr =  2.85E-04,  avg # of iterations =  3.0

     total cpu time spent up to now is       11.9 secs

     total energy              =    -361.51684203 Ry
     estimated scf accuracy    <       0.09989159 Ry

     iteration #  7     ecut=    50.00 Ry     beta= 0.30
     Davidson diagonalization with overlap
     ethr =  2.77E-04,  avg # of iterations =  5.1

     total cpu time spent up to now is       13.6 secs

     total energy              =    -361.55729075 Ry
     estimated scf accuracy    <       0.00733521 Ry

     iteration #  8     ecut=    50.00 Ry     beta= 0.30
     Davidson diagonalization with overlap
     ethr =  2.04E-05,  avg # of iterations =  4.2

     total cpu time spent up to now is       15.1 secs

     total energy              =    -361.56189119 Ry
     estimated scf accuracy    <       0.00406153 Ry

     iteration #  9     ecut=    50.00 Ry     beta= 0.30
     Davidson diagonalization with overlap
     ethr =  1.13E-05,  avg # of iterations =  4.8

     total cpu time spent up to now is       16.7 secs

     total energy              =    -361.56308493 Ry
     estimated scf accuracy    <       0.01548557 Ry

     iteration # 10     ecut=    50.00 Ry     beta= 0.30
     Davidson diagonalization with overlap
     ethr =  1.13E-05,  avg # of iterations =  1.4

     total cpu time spent up to now is       17.9 secs

     total energy              =    -361.56163993 Ry
     estimated scf accuracy    <       0.01723698 Ry

     iteration # 11     ecut=    50.00 Ry     beta= 0.30
     Davidson diagonalization with overlap
     ethr =  1.13E-05,  avg # of iterations =  1.0

     total cpu time spent up to now is       19.1 secs

     total energy              =    -361.56116619 Ry
     estimated scf accuracy    <       0.01490525 Ry

     iteration # 12     ecut=    50.00 Ry     beta= 0.30
     Davidson diagonalization with overlap
     ethr =  1.13E-05,  avg # of iterations =  1.0

     total cpu time spent up to now is       20.3 secs

     total energy              =    -361.56124874 Ry
     estimated scf accuracy    <       0.01331823 Ry

     iteration # 13     ecut=    50.00 Ry     beta= 0.30
     Davidson diagonalization with overlap
     ethr =  1.13E-05,  avg # of iterations =  1.0

     total cpu time spent up to now is       21.4 secs

     total energy              =    -361.56107773 Ry
     estimated scf accuracy    <       0.01334132 Ry

     iteration # 14     ecut=    50.00 Ry     beta= 0.30
     Davidson diagonalization with overlap
     ethr =  1.13E-05,  avg # of iterations =  1.0

     total cpu time spent up to now is       22.6 secs

     total energy              =    -361.56000556 Ry
     estimated scf accuracy    <       0.01271779 Ry

     iteration # 15     ecut=    50.00 Ry     beta= 0.30
     Davidson diagonalization with overlap
     ethr =  1.13E-05,  avg # of iterations =  1.0

     total cpu time spent up to now is       23.8 secs

     total energy              =    -361.55368514 Ry
     estimated scf accuracy    <       0.00998981 Ry

     iteration # 16     ecut=    50.00 Ry     beta= 0.30
     Davidson diagonalization with overlap
     ethr =  1.13E-05,  avg # of iterations =  7.8

     total cpu time spent up to now is       26.2 secs

     total energy              =    -361.55813583 Ry
     estimated scf accuracy    <       0.00889402 Ry

     iteration # 17     ecut=    50.00 Ry     beta= 0.30
     Davidson diagonalization with overlap
     ethr =  1.13E-05,  avg # of iterations =  2.0

     total cpu time spent up to now is       27.5 secs

     total energy              =    -361.55786604 Ry
     estimated scf accuracy    <       0.00416590 Ry

     iteration # 18     ecut=    50.00 Ry     beta= 0.30
     Davidson diagonalization with overlap
     ethr =  1.13E-05,  avg # of iterations =  2.1

     total cpu time spent up to now is       28.8 secs

     total energy              =    -361.55843527 Ry
     estimated scf accuracy    <       0.00173093 Ry

     iteration # 19     ecut=    50.00 Ry     beta= 0.30
     Davidson diagonalization with overlap
     ethr =  4.81E-06,  avg # of iterations =  1.9

     total cpu time spent up to now is       30.0 secs

     total energy              =    -361.55829778 Ry
     estimated scf accuracy    <       0.00181274 Ry

     iteration # 20     ecut=    50.00 Ry     beta= 0.30
     Davidson diagonalization with overlap
     ethr =  4.81E-06,  avg # of iterations =  1.7

     total cpu time spent up to now is       31.2 secs

     total energy              =    -361.55837443 Ry
     estimated scf accuracy    <       0.00117982 Ry

     iteration # 21     ecut=    50.00 Ry     beta= 0.30
     Davidson diagonalization with overlap
     ethr =  3.28E-06,  avg # of iterations =  2.6

     total cpu time spent up to now is       32.5 secs

     total energy              =    -361.55853689 Ry
     estimated scf accuracy    <       0.00085859 Ry

     iteration # 22     ecut=    50.00 Ry     beta= 0.30
     Davidson diagonalization with overlap
     ethr =  2.38E-06,  avg # of iterations =  1.1

     total cpu time spent up to now is       33.7 secs

     total energy              =    -361.55827333 Ry
     estimated scf accuracy    <       0.00095947 Ry

     iteration # 23     ecut=    50.00 Ry     beta= 0.30
     Davidson diagonalization with overlap
     ethr =  2.38E-06,  avg # of iterations =  3.6

     total cpu time spent up to now is       35.1 secs

     total energy              =    -361.55833469 Ry
     estimated scf accuracy    <       0.00019592 Ry

     iteration # 24     ecut=    50.00 Ry     beta= 0.30
     Davidson diagonalization with overlap
     ethr =  5.44E-07,  avg # of iterations =  6.1

     total cpu time spent up to now is       36.9 secs

     total energy              =    -361.55844996 Ry
     estimated scf accuracy    <       0.00001306 Ry

     iteration # 25     ecut=    50.00 Ry     beta= 0.30
     Davidson diagonalization with overlap
     ethr =  3.63E-08,  avg # of iterations =  5.0

     total cpu time spent up to now is       38.7 secs

     total energy              =    -361.55846433 Ry
     estimated scf accuracy    <       0.00000128 Ry

     iteration # 26     ecut=    50.00 Ry     beta= 0.30
     Davidson diagonalization with overlap
     ethr =  3.56E-09,  avg # of iterations = 13.1

     total cpu time spent up to now is       42.6 secs

     total energy              =    -361.55856782 Ry
     estimated scf accuracy    <       0.00011338 Ry

     iteration # 27     ecut=    50.00 Ry     beta= 0.30
     Davidson diagonalization with overlap
     c_bands:  1 eigenvalues not converged
     ethr =  3.56E-09,  avg # of iterations = 14.9

     total cpu time spent up to now is       47.1 secs

     total energy              =    -361.55849484 Ry
     estimated scf accuracy    <       0.00068546 Ry

     iteration # 28     ecut=    50.00 Ry     beta= 0.30
     Davidson diagonalization with overlap
     c_bands:  1 eigenvalues not converged
     ethr =  3.56E-09,  avg # of iterations = 13.9

     total cpu time spent up to now is       51.1 secs

     total energy              =    -361.55843096 Ry
     estimated scf accuracy    <       0.00025705 Ry

     iteration # 29     ecut=    50.00 Ry     beta= 0.30
     Davidson diagonalization with overlap
     ethr =  3.56E-09,  avg # of iterations = 14.1

     total cpu time spent up to now is       55.2 secs

     total energy              =    -361.55847466 Ry
     estimated scf accuracy    <       0.00001087 Ry

     iteration # 30     ecut=    50.00 Ry     beta= 0.30
     Davidson diagonalization with overlap
     ethr =  3.56E-09,  avg # of iterations = 12.4

     total cpu time spent up to now is       59.0 secs

     total energy              =    -361.55849318 Ry
     estimated scf accuracy    <       0.00013465 Ry

     iteration # 31     ecut=    50.00 Ry     beta= 0.30
     Davidson diagonalization with overlap
     ethr =  3.56E-09,  avg # of iterations =  5.1

     total cpu time spent up to now is       60.6 secs

     total energy              =    -361.55844569 Ry
     estimated scf accuracy    <       0.00015883 Ry

     iteration # 32     ecut=    50.00 Ry     beta= 0.30
     Davidson diagonalization with overlap
     ethr =  3.56E-09,  avg # of iterations = 12.8

     total cpu time spent up to now is       64.4 secs

     total energy              =    -361.55845407 Ry
     estimated scf accuracy    <       0.00001335 Ry

     iteration # 33     ecut=    50.00 Ry     beta= 0.30
     Davidson diagonalization with overlap
     ethr =  3.56E-09,  avg # of iterations =  6.4

     total cpu time spent up to now is       66.5 secs

     total energy              =    -361.55845594 Ry
     estimated scf accuracy    <       0.00000018 Ry

     iteration # 34     ecut=    50.00 Ry     beta= 0.30
     Davidson diagonalization with overlap
     ethr =  5.13E-10,  avg # of iterations =  6.5

     total cpu time spent up to now is       68.3 secs

     total energy              =    -361.55845603 Ry
     estimated scf accuracy    <       0.00000005 Ry

     iteration # 35     ecut=    50.00 Ry     beta= 0.30
     Davidson diagonalization with overlap
     ethr =  1.33E-10,  avg # of iterations =  3.5

     total cpu time spent up to now is       69.8 secs

     End of self-consistent calculation

          k = 0.0000 0.0000 0.0000 (  2599 PWs)   bands (ev):

   -12.6587 -12.2772  -1.2626  -1.2626  -1.2269  -1.1599  -1.1599  -0.7662
    -0.7662  -0.6565  -0.6565  -0.6478   0.0543   3.0431   3.0431   3.5599
     3.5599   3.5735

          k = 0.0000 0.0000 0.1053 (  2556 PWs)   bands (ev):

   -12.6337 -12.3034  -1.2591  -1.2591  -1.2366  -1.1703  -1.1703  -0.8434
    -0.7555  -0.7555  -0.6604  -0.6604   0.3692   2.9491   3.0788   3.0788
     3.5263   3.5263

          k = 0.0000 0.0000 0.2107 (  2586 PWs)   bands (ev):

   -12.5651 -12.3743  -1.2483  -1.2477  -1.2477  -1.1966  -1.1966  -1.0832
    -0.7296  -0.7296  -0.6749  -0.6749   0.9463   2.2505   3.1753   3.1753
     3.4337   3.4337

          k = 0.0000 0.0000-0.3160 (  2616 PWs)   bands (ev):

   -12.4703 -12.4703  -1.2259  -1.2259  -1.2259  -1.2259  -1.2136  -1.2136
    -0.6997  -0.6997  -0.6997  -0.6997   1.5856   1.5856   3.3055   3.3055
     3.3055   3.3055

          k = 0.0000 0.1925 0.0000 (  2577 PWs)   bands (ev):

   -12.5837 -12.2476  -1.2851  -1.2163  -1.1829  -1.1278  -1.0909  -0.7903
    -0.7658  -0.7602  -0.6506  -0.5459   0.2674   2.2576   2.5251   2.8138
     3.4387   3.4489

          k = 0.0000 0.1925 0.1053 (  2574 PWs)   bands (ev):

   -12.5614 -12.2703  -1.2891  -1.2110  -1.1912  -1.1393  -1.1029  -0.8681
    -0.7721  -0.7560  -0.6561  -0.6069   0.5205   2.1920   2.5048   2.8567
     3.3913   3.3978

          k = 0.0000 0.1925 0.2107 (  2576 PWs)   bands (ev):

   -12.5004 -12.3322  -1.2929  -1.2130  -1.1945  -1.1607  -1.1325  -1.0548
    -0.7353  -0.7310  -0.6735  -0.6520   0.9935   1.8877   2.6545   2.9732
     3.2035   3.2855

          k = 0.0000 0.1925-0.3160 (  2568 PWs)   bands (ev):

   -12.4165 -12.4165  -1.2658  -1.2658  -1.1666  -1.1666  -1.1447  -1.1447
    -0.7004  -0.7004  -0.6918  -0.6918   1.4682   1.4682   2.9254   2.9254
     3.1304   3.1304

          k = 0.0000 0.3849 0.0000 (  2567 PWs)   bands (ev):

   -12.4175 -12.2002  -1.2718  -1.1454  -1.1140  -0.9770  -0.9375  -0.8435
    -0.7579  -0.7267  -0.6407  -0.5186   0.6439   1.1410   1.6930   2.3646
     3.0827   3.1800

          k = 0.0000 0.3849 0.1053 (  2569 PWs)   bands (ev):

   -12.4025 -12.2142  -1.2805  -1.1394  -1.1336  -0.9870  -0.9535  -0.8781
    -0.7570  -0.7217  -0.6479  -0.5517   0.6553   1.1765   1.8014   2.4214
     3.1021   3.1267

          k = 0.0000 0.3849 0.2107 (  2561 PWs)   bands (ev):

   -12.3617 -12.2530  -1.2924  -1.2042  -1.0998  -1.0058  -0.9958  -0.9668
    -0.7146  -0.7076  -0.6658  -0.6053   0.7365   1.0655   2.2198   2.5742
     2.9805   3.0240

          k = 0.0000 0.3849-0.3160 (  2570 PWs)   bands (ev):

   -12.3068 -12.3068  -1.2714  -1.2714  -1.0500  -1.0500  -1.0082  -1.0082
    -0.6876  -0.6876  -0.6595  -0.6595   0.8862   0.8862   2.7059   2.7059
     2.7789   2.7789

          k = 0.0000-0.5774 0.0000 (  2542 PWs)   bands (ev):

   -12.3136 -12.1950  -1.2563  -1.1242  -0.9991  -0.9109  -0.8544  -0.8028
    -0.6798  -0.6693  -0.6338  -0.5966   0.3693   0.8758   1.6399   2.1366
     2.7565   3.0445

          k = 0.0000-0.5774 0.1053 (  2578 PWs)   bands (ev):

   -12.3049 -12.2021  -1.2680  -1.1086  -1.0649  -0.9109  -0.8737  -0.8044
    -0.6787  -0.6599  -0.6416  -0.5965   0.3353   0.7818   1.8566   2.2006
     2.8382   2.9854

          k = 0.0000-0.5774 0.2107 (  2572 PWs)   bands (ev):

   -12.2814 -12.2221  -1.2849  -1.1829  -1.0634  -0.9266  -0.9035  -0.8383
    -0.6745  -0.6556  -0.6323  -0.5986   0.3344   0.5935   2.3143   2.3722
     2.8236   2.9076

          k = 0.0000-0.5774-0.3160 (  2568 PWs)   bands (ev):

   -12.2509 -12.2509  -1.2653  -1.2653  -0.9972  -0.9972  -0.8792  -0.8792
    -0.6672  -0.6672  -0.6092  -0.6092   0.4274   0.4274   2.6002   2.6002
     2.7303   2.7303

          k = 0.1667 0.2887 0.0000 (  2577 PWs)   bands (ev):

   -12.4625 -12.2095  -1.2350  -1.1990  -1.1111  -1.0678  -0.9643  -0.8108
    -0.7877  -0.7478  -0.6437  -0.5171   0.5911   1.5567   1.7706   2.3825
     3.1273   3.2116

          k = 0.1667 0.2887 0.1053 (  2570 PWs)   bands (ev):

   -12.4452 -12.2261  -1.2432  -1.1952  -1.1229  -1.0771  -0.9786  -0.8739
    -0.7855  -0.7328  -0.6501  -0.5572   0.7028   1.4936   1.9231   2.4048
     3.0711   3.2148

          k = 0.1667 0.2887 0.2107 (  2570 PWs)   bands (ev):

   -12.3983 -12.2717  -1.2578  -1.2005  -1.1307  -1.0956  -1.0150  -1.0145
    -0.7309  -0.7141  -0.6665  -0.6126   0.9103   1.3282   2.3153   2.5136
     2.9205   3.1067

          k = 0.1667 0.2887-0.3160 (  2572 PWs)   bands (ev):

   -12.3347 -12.3347  -1.2419  -1.2419  -1.1155  -1.1155  -1.0505  -1.0505
    -0.6945  -0.6945  -0.6653  -0.6653   1.1221   1.1221   2.6758   2.6758
     2.8107   2.8107

          k = 0.1667 0.4811 0.0000 (  2570 PWs)   bands (ev):

   -12.3165 -12.1933  -1.2239  -1.1212  -0.9639  -0.9251  -0.8417  -0.8255
    -0.7469  -0.7147  -0.6229  -0.5184   0.5667   0.9376   1.6135   1.8786
     2.7466   2.8147

          k = 0.1667 0.4811 0.1053 (  2561 PWs)   bands (ev):

   -12.3074 -12.2007  -1.2211  -1.1245  -1.0135  -0.9329  -0.8649  -0.8473
    -0.7419  -0.6968  -0.6224  -0.5274   0.5296   0.8801   1.7118   2.0463
     2.6979   2.8718

          k = 0.1667 0.4811 0.2107 (  2576 PWs)   bands (ev):

   -12.2832 -12.2215  -1.2235  -1.1446  -1.0692  -0.9498  -0.9183  -0.9043
    -0.7092  -0.6856  -0.6114  -0.5519   0.5235   0.7386   1.9297   2.4193
     2.5273   2.9556

          k = 0.1667 0.4811-0.3160 (  2564 PWs)   bands (ev):

   -12.2515 -12.2515  -1.2065  -1.2065  -1.0154  -1.0154  -0.9307  -0.9307
    -0.6892  -0.6892  -0.5838  -0.5838   0.6019   0.6019   2.2090   2.2090
     2.8243   2.8243

          k = 0.3333 0.5774 0.0000 (  2538 PWs)   bands (ev):

   -12.2280 -12.2280  -1.2281  -1.0068  -1.0068  -0.8136  -0.7803  -0.7803
    -0.7231  -0.7179  -0.5592  -0.5592   0.7755   0.7755   1.0008   2.3058
     2.3058   2.4324

          k = 0.3333 0.5774 0.1053 (  2556 PWs)   bands (ev):

   -12.2270 -12.2270  -1.2072  -1.0366  -1.0366  -0.8383  -0.7965  -0.7965
    -0.7392  -0.7261  -0.5423  -0.5423   0.7080   0.7080   1.1063   2.3367
     2.4601   2.4601

          k = 0.3333 0.5774 0.2107 (  2565 PWs)   bands (ev):

   -12.2250 -12.2250  -1.1457  -1.0979  -1.0979  -0.9313  -0.8185  -0.8185
    -0.7504  -0.7340  -0.5162  -0.5162   0.6046   0.6046   1.3787   2.0793
     2.7418   2.7418

          k = 0.3333 0.5774-0.3160 (  2568 PWs)   bands (ev):

   -12.2240 -12.2240  -1.1289  -1.1289  -1.0483  -1.0483  -0.8267  -0.8267
    -0.7440  -0.7440  -0.5055  -0.5055   0.5634   0.5634   1.7318   1.7318
     2.8747   2.8747

     highest occupied level (ev):     3.5735

!    total energy              =    -361.55845604 Ry
     estimated scf accuracy    <          6.4E-09 Ry

     The total energy is the sum of the following terms:
     one-electron contribution =    -184.01655758 Ry
     hartree contribution      =     129.06312259 Ry
     xc contribution           =    -109.07664598 Ry
     ewald contribution        =    -197.52837507 Ry

     convergence has been achieved in  35 iterations

     Forces acting on atoms (cartesian axes, Ry/au):

     atom    1 type  1   force =     0.00000000    0.00000000   -0.00246427
     atom    2 type  2   force =    -0.00000000   -0.00000000    0.00246427
     atom    3 type  1   force =    -0.00000000   -0.00000000   -0.00246427
     atom    4 type  2   force =     0.00000000    0.00000000    0.00246427
     The non-local contrib.  to forces
     atom    1 type  1   force =     0.00000000   -0.00000000    0.03622509
     atom    2 type  2   force =     0.00000000   -0.00000000    0.02427803
     atom    3 type  1   force =     0.00000000   -0.00000000    0.03622509
     atom    4 type  2   force =     0.00000000    0.00000000    0.02427803
     The ionic contribution  to forces
     atom    1 type  1   force =    -0.00000000    0.00000000    0.16840113
     atom    2 type  2   force =     0.00000000   -0.00000000   -0.16840113
     atom    3 type  1   force =     0.00000000   -0.00000000    0.16840113
     atom    4 type  2   force =    -0.00000000    0.00000000   -0.16840113
     The local contribution  to forces
     atom    1 type  1   force =    -0.00000000    0.00000000   -0.20516073
     atom    2 type  2   force =     0.00000001   -0.00000001    0.14678895
     atom    3 type  1   force =     0.00000005   -0.00000003   -0.20516073
     atom    4 type  2   force =    -0.00000000    0.00000000    0.14678895
     The core correction contribution to forces
     atom    1 type  1   force =     0.00000000   -0.00000000   -0.00191779
     atom    2 type  2   force =    -0.00000000    0.00000000   -0.00020451
     atom    3 type  1   force =     0.00000001   -0.00000000   -0.00191779
     atom    4 type  2   force =    -0.00000000    0.00000000   -0.00020451
     The Hubbard contrib.    to forces
     atom    1 type  1   force =     0.00000000    0.00000000    0.00000000
     atom    2 type  2   force =     0.00000000    0.00000000    0.00000000
     atom    3 type  1   force =     0.00000000    0.00000000    0.00000000
     atom    4 type  2   force =     0.00000000    0.00000000    0.00000000
     The SCF correction term to forces
     atom    1 type  1   force =    -0.00000000    0.00000000   -0.00001978
     atom    2 type  2   force =     0.00000000   -0.00000000   -0.00000487
     atom    3 type  1   force =     0.00000000   -0.00000000   -0.00001978
     atom    4 type  2   force =    -0.00000000    0.00000000   -0.00000487

     Total force =     0.004929     Total SCF correction =     0.000029

     Writing all to output data dir ./ZnO-3.60-1.58-111.in.save/

     init_run     :      2.48s CPU      1.56s WALL (       1 calls)
     electrons    :    187.99s CPU     67.90s WALL (       1 calls)
     forces       :      0.95s CPU      0.46s WALL (       1 calls)

     Called by init_run:
     wfcinit      :      1.47s CPU      0.57s WALL (       1 calls)
     potinit      :      0.32s CPU      0.32s WALL (       1 calls)
     hinit0       :      0.47s CPU      0.48s WALL (       1 calls)

     Called by electrons:
     c_bands      :    153.91s CPU     55.26s WALL (      35 calls)
     sum_band     :     25.60s CPU      9.41s WALL (      35 calls)
     v_of_rho     :      1.61s CPU      0.71s WALL (      36 calls)
     newd         :      6.54s CPU      2.39s WALL (      36 calls)
     mix_rho      :      0.27s CPU      0.13s WALL (      35 calls)

     Called by c_bands:
     init_us_2    :      2.07s CPU      0.69s WALL (    2016 calls)
     init_us_2:cp :      2.04s CPU      0.69s WALL (    2016 calls)
     cegterg      :    149.69s CPU     53.57s WALL (     980 calls)

     Called by *egterg:
     cdiaghg      :     17.55s CPU      5.81s WALL (    5986 calls)
     h_psi        :    101.27s CPU     41.33s WALL (    6014 calls)
     s_psi        :      2.19s CPU      0.55s WALL (    6014 calls)
     g_psi        :      0.76s CPU      0.18s WALL (    5006 calls)

     Called by h_psi:
     h_psi:calbec :      4.17s CPU      1.31s WALL (    6014 calls)
     vloc_psi     :     93.96s CPU     39.14s WALL (    6014 calls)
     add_vuspsi   :      2.30s CPU      0.65s WALL (    6014 calls)

     General routines
     calbec       :      5.25s CPU      1.63s WALL (    7106 calls)
     fft          :      1.11s CPU      0.61s WALL (     477 calls)
     ffts         :      0.21s CPU      0.17s WALL (      71 calls)
     fftw         :     95.16s CPU     39.81s WALL (  146372 calls)
     interpolate  :      0.25s CPU      0.19s WALL (      36 calls)

     Parallel routines

     PWSCF        :   3m11.83s CPU   1m10.41s WALL


   This run was terminated on:  13:41:54   8Jul2025            

=------------------------------------------------------------------------------=
   JOB DONE.
=------------------------------------------------------------------------------=
Note: The following floating-point exceptions are signalling: IEEE_INVALID_FLAG
