Authorization required, but no authorization protocol specified

Authorization required, but no authorization protocol specified

Authorization required, but no authorization protocol specified

Authorization required, but no authorization protocol specified

Authorization required, but no authorization protocol specified

Authorization required, but no authorization protocol specified

Authorization required, but no authorization protocol specified

Authorization required, but no authorization protocol specified

Authorization required, but no authorization protocol specified

Authorization required, but no authorization protocol specified


     Program PWSCF v.7.2 starts on  8Jul2025 at 12:46:14 

     This program is part of the open-source Quantum ESPRESSO suite
     for quantum simulation of materials; please cite
         "P. Giannozzi et al., J. Phys.:Condens. Matter 21 395502 (2009);
         "P. Giannozzi et al., J. Phys.:Condens. Matter 29 465901 (2017);
         "P. Giannozzi et al., J. Chem. Phys. 152 154105 (2020);
          URL http://www.quantum-espresso.org", 
     in publications or presentations arising from this work. More details at
     http://www.quantum-espresso.org/quote

     Parallel version (MPI), running on     8 processors

     MPI processes distributed on     1 nodes
     52746 MiB available memory on the printing compute node when the environment starts

     Reading input from /home/jvc/QEspresso7.2/ZnO_database/scripts/cell111_strain10%.in/ZnO-3.20-1.68-111.in
Warning: card &CELL ignored
Warning: card / ignored
Warning: card &FCP ignored
Warning: card / ignored
Warning: card &RISM ignored
Warning: card / ignored

     Current dimensions of program PWSCF are:
     Max number of different atomic species (ntypx) = 10
     Max number of k-points (npk) =  40000
     Max angular momentum in pseudopotentials (lmaxx) =  4
     file Zn.upf: wavefunction(s)  3D renormalized
     Message from routine setup:
     using ibrav=0 with symmetry is DISCOURAGED, use correct ibrav instead

     R & G space division:  proc/nbgrp/npool/nimage =       8
     Subspace diagonalization in iterative solution of the eigenvalue problem:
     a serial algorithm will be used


     Parallelization info
     --------------------
     sticks:   dense  smooth     PW     G-vecs:    dense   smooth      PW
     Min         126      63     18                 5458     1935     324
     Max         127      65     19                 5461     1936     331
     Sum        1015     511    151                43679    15483    2635

     Using Slab Decomposition



     bravais-lattice index     =            0
     lattice parameter (alat)  =       6.0553  a.u.
     unit-cell volume          =     322.8241 (a.u.)^3
     number of atoms/cell      =            4
     number of atomic types    =            2
     number of electrons       =        36.00
     number of Kohn-Sham states=           18
     kinetic-energy cutoff     =      50.0000  Ry
     charge density cutoff     =     400.0000  Ry
     scf convergence threshold =      1.0E-08
     mixing beta               =       0.3000
     number of iterations used =            8  plain     mixing
     Exchange-correlation= PBE
                           (   1   4   3   4   0   0   0)

     celldm(1)=   6.055277  celldm(2)=   0.000000  celldm(3)=   0.000000
     celldm(4)=   0.000000  celldm(5)=   0.000000  celldm(6)=   0.000000

     crystal axes: (cart. coord. in units of alat)
               a(1) = (   1.000000   0.000000   0.000000 )  
               a(2) = (  -0.500000   0.866025   0.000000 )  
               a(3) = (   0.000000   0.000000   1.678933 )  

     reciprocal axes: (cart. coord. in units 2 pi/alat)
               b(1) = (  1.000000  0.577350 -0.000000 )  
               b(2) = (  0.000000  1.154701  0.000000 )  
               b(3) = (  0.000000 -0.000000  0.595616 )  


     PseudoPot. # 1 for Zn read from file:
     /home/jvc/QEspresso7.2/ZnO_database/pseudos/Zn.upf
     MD5 check sum: 7f56cabf9682ed8c977c2f7d0c5985c5
     Pseudo is Ultrasoft + core correction, Zval = 12.0
     Generated using &quot;atomic&quot; code by A. Dal Corso  v.6.2.2
     Using radial grid of 1201 points,  6 beta functions with: 
                l(1) =   0
                l(2) =   0
                l(3) =   1
                l(4) =   1
                l(5) =   2
                l(6) =   2
     Q(r) pseudized with 0 coefficients 


     PseudoPot. # 2 for O  read from file:
     /home/jvc/QEspresso7.2/ZnO_database/pseudos/O.upf
     MD5 check sum: 91400c9766925bcf19f520983a725ff0
     Pseudo is Ultrasoft + core correction, Zval =  6.0
     Generated using &quot;atomic&quot; code by A. Dal Corso  v.6.3MaX
     Using radial grid of 1095 points,  4 beta functions with: 
                l(1) =   0
                l(2) =   0
                l(3) =   1
                l(4) =   1
     Q(r) pseudized with 0 coefficients 


     atomic species   valence    mass     pseudopotential
        Zn            12.00    65.38000     Zn( 1.00)
        O              6.00    15.99900     O ( 1.00)

     12 Sym. Ops. (no inversion) found ( 6 have fractional translation)



   Cartesian axes

     site n.     atom                  positions (alat units)
         1           Zn  tau(   1) = (   0.0000000   0.0000000   0.0000000  )
         2           O   tau(   2) = (  -0.0000000   0.5773503   0.2211943  )
         3           Zn  tau(   3) = (  -0.0000000   0.5773503   0.8394663  )
         4           O   tau(   4) = (   0.0000000   0.0000000   1.0606607  )

     number of k points=    28
                       cart. coord. in units 2pi/alat
        k(    1) = (   0.0000000   0.0000000   0.0000000), wk =   0.0092593
        k(    2) = (   0.0000000   0.0000000   0.0992694), wk =   0.0185185
        k(    3) = (   0.0000000   0.0000000   0.1985388), wk =   0.0185185
        k(    4) = (   0.0000000   0.0000000  -0.2978082), wk =   0.0092593
        k(    5) = (   0.0000000   0.1924501   0.0000000), wk =   0.0555556
        k(    6) = (   0.0000000   0.1924501   0.0992694), wk =   0.1111111
        k(    7) = (   0.0000000   0.1924501   0.1985388), wk =   0.1111111
        k(    8) = (   0.0000000   0.1924501  -0.2978082), wk =   0.0555556
        k(    9) = (   0.0000000   0.3849002   0.0000000), wk =   0.0555556
        k(   10) = (   0.0000000   0.3849002   0.0992694), wk =   0.1111111
        k(   11) = (   0.0000000   0.3849002   0.1985388), wk =   0.1111111
        k(   12) = (   0.0000000   0.3849002  -0.2978082), wk =   0.0555556
        k(   13) = (   0.0000000  -0.5773503   0.0000000), wk =   0.0277778
        k(   14) = (   0.0000000  -0.5773503   0.0992694), wk =   0.0555556
        k(   15) = (   0.0000000  -0.5773503   0.1985388), wk =   0.0555556
        k(   16) = (   0.0000000  -0.5773503  -0.2978082), wk =   0.0277778
        k(   17) = (   0.1666667   0.2886751   0.0000000), wk =   0.0555556
        k(   18) = (   0.1666667   0.2886751   0.0992694), wk =   0.1111111
        k(   19) = (   0.1666667   0.2886751   0.1985388), wk =   0.1111111
        k(   20) = (   0.1666667   0.2886751  -0.2978082), wk =   0.0555556
        k(   21) = (   0.1666667   0.4811252   0.0000000), wk =   0.1111111
        k(   22) = (   0.1666667   0.4811252   0.0992694), wk =   0.2222222
        k(   23) = (   0.1666667   0.4811252   0.1985388), wk =   0.2222222
        k(   24) = (   0.1666667   0.4811252  -0.2978082), wk =   0.1111111
        k(   25) = (   0.3333333   0.5773503   0.0000000), wk =   0.0185185
        k(   26) = (   0.3333333   0.5773503   0.0992694), wk =   0.0370370
        k(   27) = (   0.3333333   0.5773503   0.1985388), wk =   0.0370370
        k(   28) = (   0.3333333   0.5773503  -0.2978082), wk =   0.0185185

     Dense  grid:    43679 G-vectors     FFT dimensions: (  45,  45,  72)

     Smooth grid:    15483 G-vectors     FFT dimensions: (  27,  27,  48)

     Estimated max dynamical RAM per process >      24.86 MB

     Estimated total dynamical RAM >     198.85 MB

     Check: negative core charge=   -0.000002

     Initial potential from superposition of free atoms

     starting charge      35.9925, renormalised to      36.0000
     Starting wfcs are   26 randomized atomic wfcs

     total cpu time spent up to now is        1.6 secs

     Self-consistent Calculation

     iteration #  1     ecut=    50.00 Ry     beta= 0.30
     Davidson diagonalization with overlap
     ethr =  1.00E-02,  avg # of iterations =  1.9

     total cpu time spent up to now is        2.4 secs

     total energy              =    -361.47921174 Ry
     estimated scf accuracy    <       0.68593543 Ry

     iteration #  2     ecut=    50.00 Ry     beta= 0.30
     Davidson diagonalization with overlap
     ethr =  1.91E-03,  avg # of iterations =  2.0

     total cpu time spent up to now is        3.5 secs

     total energy              =    -361.57537056 Ry
     estimated scf accuracy    <       0.09048128 Ry

     iteration #  3     ecut=    50.00 Ry     beta= 0.30
     Davidson diagonalization with overlap
     ethr =  2.51E-04,  avg # of iterations =  6.3

     total cpu time spent up to now is        5.2 secs

     total energy              =    -361.60776216 Ry
     estimated scf accuracy    <       0.05785669 Ry

     iteration #  4     ecut=    50.00 Ry     beta= 0.30
     Davidson diagonalization with overlap
     ethr =  1.61E-04,  avg # of iterations =  8.2

     total cpu time spent up to now is        7.2 secs

     total energy              =    -361.64447631 Ry
     estimated scf accuracy    <       0.22222720 Ry

     iteration #  5     ecut=    50.00 Ry     beta= 0.30
     Davidson diagonalization with overlap
     ethr =  1.61E-04,  avg # of iterations =  2.0

     total cpu time spent up to now is        8.1 secs

     total energy              =    -361.54502050 Ry
     estimated scf accuracy    <       0.12579726 Ry

     iteration #  6     ecut=    50.00 Ry     beta= 0.30
     Davidson diagonalization with overlap
     ethr =  1.61E-04,  avg # of iterations = 10.1

     total cpu time spent up to now is       10.4 secs

     total energy              =    -361.53515849 Ry
     estimated scf accuracy    <       1.00431582 Ry

     iteration #  7     ecut=    50.00 Ry     beta= 0.30
     Davidson diagonalization with overlap
     ethr =  1.61E-04,  avg # of iterations =  8.3

     total cpu time spent up to now is       12.4 secs

     total energy              =    -361.63327369 Ry
     estimated scf accuracy    <       0.05495427 Ry

     iteration #  8     ecut=    50.00 Ry     beta= 0.30
     Davidson diagonalization with overlap
     ethr =  1.53E-04,  avg # of iterations =  1.5

     total cpu time spent up to now is       13.3 secs

     total energy              =    -361.63248810 Ry
     estimated scf accuracy    <       0.03103653 Ry

     iteration #  9     ecut=    50.00 Ry     beta= 0.30
     Davidson diagonalization with overlap
     ethr =  8.62E-05,  avg # of iterations =  1.8

     total cpu time spent up to now is       14.1 secs

     total energy              =    -361.62544693 Ry
     estimated scf accuracy    <       0.01996556 Ry

     iteration # 10     ecut=    50.00 Ry     beta= 0.30
     Davidson diagonalization with overlap
     ethr =  5.55E-05,  avg # of iterations =  4.9

     total cpu time spent up to now is       15.5 secs

     total energy              =    -361.63415239 Ry
     estimated scf accuracy    <       0.00077604 Ry

     iteration # 11     ecut=    50.00 Ry     beta= 0.30
     Davidson diagonalization with overlap
     ethr =  2.16E-06,  avg # of iterations =  6.5

     total cpu time spent up to now is       17.0 secs

     total energy              =    -361.63455793 Ry
     estimated scf accuracy    <       0.00286565 Ry

     iteration # 12     ecut=    50.00 Ry     beta= 0.30
     Davidson diagonalization with overlap
     ethr =  2.16E-06,  avg # of iterations =  1.1

     total cpu time spent up to now is       17.8 secs

     total energy              =    -361.63377181 Ry
     estimated scf accuracy    <       0.00183660 Ry

     iteration # 13     ecut=    50.00 Ry     beta= 0.30
     Davidson diagonalization with overlap
     ethr =  2.16E-06,  avg # of iterations =  5.7

     total cpu time spent up to now is       19.4 secs

     total energy              =    -361.63430201 Ry
     estimated scf accuracy    <       0.00004087 Ry

     iteration # 14     ecut=    50.00 Ry     beta= 0.30
     Davidson diagonalization with overlap
     ethr =  1.14E-07,  avg # of iterations =  7.3

     total cpu time spent up to now is       21.3 secs

     total energy              =    -361.63426336 Ry
     estimated scf accuracy    <       0.00017644 Ry

     iteration # 15     ecut=    50.00 Ry     beta= 0.30
     Davidson diagonalization with overlap
     ethr =  1.14E-07,  avg # of iterations =  8.2

     total cpu time spent up to now is       23.3 secs

     total energy              =    -361.63432437 Ry
     estimated scf accuracy    <       0.00005041 Ry

     iteration # 16     ecut=    50.00 Ry     beta= 0.30
     Davidson diagonalization with overlap
     ethr =  1.14E-07,  avg # of iterations =  1.2

     total cpu time spent up to now is       24.2 secs

     total energy              =    -361.63431982 Ry
     estimated scf accuracy    <       0.00002307 Ry

     iteration # 17     ecut=    50.00 Ry     beta= 0.30
     Davidson diagonalization with overlap
     ethr =  6.41E-08,  avg # of iterations =  2.1

     total cpu time spent up to now is       25.1 secs

     total energy              =    -361.63431994 Ry
     estimated scf accuracy    <       0.00000473 Ry

     iteration # 18     ecut=    50.00 Ry     beta= 0.30
     Davidson diagonalization with overlap
     ethr =  1.31E-08,  avg # of iterations =  9.8

     total cpu time spent up to now is       27.5 secs

     total energy              =    -361.63436664 Ry
     estimated scf accuracy    <       0.00007493 Ry

     iteration # 19     ecut=    50.00 Ry     beta= 0.30
     Davidson diagonalization with overlap
     ethr =  1.31E-08,  avg # of iterations =  6.4

     total cpu time spent up to now is       29.2 secs

     total energy              =    -361.63432884 Ry
     estimated scf accuracy    <       0.00017608 Ry

     iteration # 20     ecut=    50.00 Ry     beta= 0.30
     Davidson diagonalization with overlap
     ethr =  1.31E-08,  avg # of iterations =  7.5

     total cpu time spent up to now is       31.1 secs

     total energy              =    -361.63431213 Ry
     estimated scf accuracy    <       0.00005057 Ry

     iteration # 21     ecut=    50.00 Ry     beta= 0.30
     Davidson diagonalization with overlap
     ethr =  1.31E-08,  avg # of iterations =  8.6

     total cpu time spent up to now is       33.2 secs

     total energy              =    -361.63432399 Ry
     estimated scf accuracy    <       0.00000066 Ry

     iteration # 22     ecut=    50.00 Ry     beta= 0.30
     Davidson diagonalization with overlap
     ethr =  1.83E-09,  avg # of iterations =  3.4

     total cpu time spent up to now is       34.3 secs

     total energy              =    -361.63432394 Ry
     estimated scf accuracy    <       0.00000021 Ry

     iteration # 23     ecut=    50.00 Ry     beta= 0.30
     Davidson diagonalization with overlap
     ethr =  5.71E-10,  avg # of iterations =  7.1

     total cpu time spent up to now is       36.2 secs

     total energy              =    -361.63432410 Ry
     estimated scf accuracy    <       0.00000048 Ry

     iteration # 24     ecut=    50.00 Ry     beta= 0.30
     Davidson diagonalization with overlap
     ethr =  5.71E-10,  avg # of iterations =  2.0

     total cpu time spent up to now is       37.0 secs

     total energy              =    -361.63432397 Ry
     estimated scf accuracy    <       0.00000020 Ry

     iteration # 25     ecut=    50.00 Ry     beta= 0.30
     Davidson diagonalization with overlap
     ethr =  5.69E-10,  avg # of iterations =  6.9

     total cpu time spent up to now is       38.8 secs

     total energy              =    -361.63432409 Ry
     estimated scf accuracy    <       0.00000030 Ry

     iteration # 26     ecut=    50.00 Ry     beta= 0.30
     Davidson diagonalization with overlap
     ethr =  5.69E-10,  avg # of iterations =  2.0

     total cpu time spent up to now is       39.7 secs

     total energy              =    -361.63432404 Ry
     estimated scf accuracy    <       0.00000010 Ry

     iteration # 27     ecut=    50.00 Ry     beta= 0.30
     Davidson diagonalization with overlap
     ethr =  2.89E-10,  avg # of iterations =  6.2

     total cpu time spent up to now is       41.3 secs

     total energy              =    -361.63432410 Ry
     estimated scf accuracy    <       0.00000006 Ry

     iteration # 28     ecut=    50.00 Ry     beta= 0.30
     Davidson diagonalization with overlap
     ethr =  1.79E-10,  avg # of iterations =  2.0

     total cpu time spent up to now is       42.2 secs

     End of self-consistent calculation

          k = 0.0000 0.0000 0.0000 (  1943 PWs)   bands (ev):

   -10.8453 -10.1812   1.4336   1.4568   1.5674   1.5674   1.7824   1.7824
     2.7051   2.7051   2.8948   2.8948   3.1308   6.4404   6.4404   7.0902
     7.2222   7.2222

          k = 0.0000 0.0000 0.0993 (  1925 PWs)   bands (ev):

   -10.8033 -10.2284   1.3519   1.4141   1.5774   1.5774   1.7628   1.7628
     2.7217   2.7217   2.8865   2.8865   3.4049   6.4937   6.4937   6.5096
     7.1707   7.1707

          k = 0.0000 0.0000 0.1985 (  1919 PWs)   bands (ev):

   -10.6868 -10.3551   1.2463   1.3173   1.6068   1.6068   1.7131   1.7131
     2.7638   2.7638   2.8598   2.8598   4.0513   5.6825   6.6384   6.6384
     7.0293   7.0293

          k = 0.0000 0.0000-0.2978 (  1906 PWs)   bands (ev):

   -10.5235 -10.5235   1.2384   1.2384   1.6551   1.6551   1.6551   1.6551
     2.8157   2.8157   2.8157   2.8157   4.8476   4.8476   6.8347   6.8347
     6.8347   6.8347

          k = 0.0000 0.1925 0.0000 (  1922 PWs)   bands (ev):

   -10.6947 -10.1084   1.3974   1.5418   1.6376   1.6801   1.8083   1.9005
     2.6417   2.7072   2.9040   2.9646   3.1061   5.5152   6.1086   6.1140
     6.9126   7.0506

          k = 0.0000 0.1925 0.0993 (  1923 PWs)   bands (ev):

   -10.6570 -10.1493   1.3467   1.4787   1.6141   1.6505   1.8029   1.8773
     2.6685   2.7222   2.8930   2.9233   3.4423   5.5627   5.9596   6.1789
     6.8004   6.9893

          k = 0.0000 0.1925 0.1985 (  1915 PWs)   bands (ev):

   -10.5529 -10.2597   1.2553   1.3000   1.6423   1.6891   1.7571   1.8189
     2.7312   2.7624   2.8613   2.8733   4.1131   5.4125   5.8754   6.3540
     6.5075   6.8213

          k = 0.0000 0.1925-0.2978 (  1914 PWs)   bands (ev):

   -10.4079 -10.4079   1.2205   1.2205   1.6963   1.6963   1.7490   1.7490
     2.8063   2.8063   2.8138   2.8138   4.8286   4.8286   6.1536   6.1536
     6.5894   6.5894

          k = 0.0000 0.3849 0.0000 (  1926 PWs)   bands (ev):

   -10.3584  -9.9797   1.2220   1.5625   1.7391   1.9180   2.1805   2.1839
     2.6381   2.7913   2.9240   3.0284   3.2988   4.0069   4.9969   5.4391
     6.3395   6.6751

          k = 0.0000 0.3849 0.0993 (  1935 PWs)   bands (ev):

   -10.3326 -10.0046   1.1911   1.4755   1.7626   1.8944   2.0805   2.1432
     2.6568   2.7987   2.9122   3.0003   3.5602   4.1357   4.9464   5.5294
     6.3274   6.5964

          k = 0.0000 0.3849 0.1985 (  1926 PWs)   bands (ev):

   -10.2625 -10.0729   1.1396   1.2816   1.8306   1.8786   1.9739   2.0486
     2.7320   2.8199   2.8839   2.9256   3.9090   4.3173   5.0968   5.7677
     6.1453   6.3800

          k = 0.0000 0.3849-0.2978 (  1932 PWs)   bands (ev):

   -10.1672 -10.1672   1.1519   1.1519   1.9085   1.9085   1.9330   1.9330
     2.8301   2.8301   2.8502   2.8502   4.1688   4.1688   5.6684   5.6684
     6.0791   6.0791

          k = 0.0000-0.5774 0.0000 (  1938 PWs)   bands (ev):

   -10.1484  -9.9471   1.2937   1.4853   1.7662   2.0236   2.2156   2.3471
     2.7040   2.8898   2.9457   3.0349   3.4174   3.7985   4.3614   5.0632
     5.8209   6.4694

          k = 0.0000-0.5774 0.0993 (  1930 PWs)   bands (ev):

   -10.1335  -9.9591   1.2496   1.3941   1.7964   2.0267   2.1731   2.2966
     2.7696   2.8913   2.9360   3.0330   3.3982   3.7310   4.6143   5.1715
     5.8936   6.3822

          k = 0.0000-0.5774 0.1985 (  1934 PWs)   bands (ev):

   -10.0938  -9.9929   1.1664   1.2291   1.8834   2.0378   2.1091   2.1685
     2.8849   2.8959   2.9183   3.0189   3.4019   3.5925   5.1639   5.4503
     5.9331   6.1418

          k = 0.0000-0.5774-0.2978 (  1940 PWs)   bands (ev):

   -10.0419 -10.0419   1.1403   1.1403   2.0159   2.0159   2.0633   2.0633
     2.9045   2.9045   2.9742   2.9742   3.4687   3.4687   5.6847   5.6847
     5.8048   5.8048

          k = 0.1667 0.2887 0.0000 (  1931 PWs)   bands (ev):

   -10.4498 -10.0080   1.3549   1.5222   1.6693   1.8463   2.0961   2.1485
     2.5863   2.7219   2.9157   3.0294   3.2344   4.6818   4.9381   5.5846
     6.5575   6.6154

          k = 0.1667 0.2887 0.0993 (  1924 PWs)   bands (ev):

   -10.4203 -10.0375   1.3085   1.4705   1.6867   1.8055   2.0163   2.0662
     2.6214   2.7629   2.9051   2.9920   3.5563   4.7963   4.9192   5.5873
     6.5102   6.5322

          k = 0.1667 0.2887 0.1985 (  1927 PWs)   bands (ev):

   -10.3397 -10.1185   1.2279   1.3140   1.7247   1.7754   1.9194   1.9920
     2.7085   2.8011   2.8777   2.9186   4.0948   4.7804   5.1655   5.7120
     6.2666   6.3087

          k = 0.1667 0.2887-0.2978 (  1920 PWs)   bands (ev):

   -10.2291 -10.2291   1.2111   1.2111   1.7651   1.7651   1.9187   1.9187
     2.8093   2.8093   2.8482   2.8482   4.5037   4.5037   5.7178   5.7178
     6.0292   6.0292

          k = 0.1667 0.4811 0.0000 (  1933 PWs)   bands (ev):

   -10.1564  -9.9433   1.3800   1.6406   1.7681   2.0359   2.1879   2.3569
     2.6795   2.7218   2.9690   3.1807   3.3407   3.9330   4.4374   4.6722
     5.8550   6.1542

          k = 0.1667 0.4811 0.0993 (  1925 PWs)   bands (ev):

   -10.1408  -9.9561   1.3538   1.5513   1.7690   1.9955   2.1631   2.2810
     2.6776   2.8030   2.9693   3.1714   3.3682   3.9875   4.5180   4.8363
     5.8864   6.0818

          k = 0.1667 0.4811 0.1985 (  1929 PWs)   bands (ev):

   -10.0990  -9.9922   1.2899   1.3837   1.7825   1.9480   2.1221   2.1676
     2.7470   2.8397   2.9817   3.0964   3.5204   3.8974   4.8511   5.2553
     5.7138   6.0173

          k = 0.1667 0.4811-0.2978 (  1928 PWs)   bands (ev):

   -10.0442 -10.0442   1.2781   1.2781   1.8633   1.8633   2.1142   2.1142
     2.8156   2.8156   3.0224   3.0224   3.7142   3.7142   5.2565   5.2565
     5.7934   5.7934

          k = 0.3333 0.5774 0.0000 (  1953 PWs)   bands (ev):

    -9.9906  -9.9906   1.4146   1.9113   1.9113   2.1871   2.3954   2.3954
     2.6196   2.7438   2.8680   2.8680   3.5846   3.7109   3.7109   5.2441
     5.2441   5.5931

          k = 0.3333 0.5774 0.0993 (  1935 PWs)   bands (ev):

    -9.9887  -9.9887   1.4453   1.8005   1.8005   2.0834   2.3808   2.3808
     2.6371   2.7378   2.9664   2.9664   3.6572   3.6572   3.7473   5.3936
     5.3936   5.4585

          k = 0.3333 0.5774 0.1985 (  1938 PWs)   bands (ev):

    -9.9850  -9.9850   1.5363   1.6164   1.6164   1.8795   2.3645   2.3645
     2.6658   2.7201   3.1321   3.1321   3.5484   3.5484   4.1400   5.1017
     5.6800   5.6800

          k = 0.3333 0.5774-0.2978 (  1920 PWs)   bands (ev):

    -9.9832  -9.9832   1.5369   1.5369   1.6847   1.6847   2.3586   2.3586
     2.6947   2.6947   3.2229   3.2229   3.4788   3.4788   4.6265   4.6265
     5.8197   5.8197

     highest occupied level (ev):     7.2222

!    total energy              =    -361.63432410 Ry
     estimated scf accuracy    <          8.8E-09 Ry

     The total energy is the sum of the following terms:
     one-electron contribution =    -151.80294819 Ry
     hartree contribution      =     117.27382183 Ry
     xc contribution           =    -109.58490475 Ry
     ewald contribution        =    -217.52029299 Ry

     convergence has been achieved in  28 iterations

     Forces acting on atoms (cartesian axes, Ry/au):

     atom    1 type  1   force =     0.00000000   -0.00000000    0.00119091
     atom    2 type  2   force =    -0.00000000   -0.00000000   -0.00119091
     atom    3 type  1   force =     0.00000000    0.00000000    0.00119091
     atom    4 type  2   force =     0.00000000    0.00000000   -0.00119091
     The non-local contrib.  to forces
     atom    1 type  1   force =     0.00000000    0.00000000   -0.04787855
     atom    2 type  2   force =    -0.00000000   -0.00000000   -0.04655624
     atom    3 type  1   force =     0.00000000    0.00000000   -0.04787855
     atom    4 type  2   force =    -0.00000000   -0.00000000   -0.04655624
     The ionic contribution  to forces
     atom    1 type  1   force =    -0.00000000    0.00000000   -0.47976304
     atom    2 type  2   force =     0.00000000   -0.00000000    0.47976304
     atom    3 type  1   force =     0.00000000   -0.00000000   -0.47976304
     atom    4 type  2   force =    -0.00000000    0.00000000    0.47976304
     The local contribution  to forces
     atom    1 type  1   force =     0.00000000    0.00000000    0.52614834
     atom    2 type  2   force =     0.00000001   -0.00000001   -0.43477548
     atom    3 type  1   force =     0.00000004   -0.00000002    0.52614835
     atom    4 type  2   force =     0.00000000    0.00000000   -0.43477548
     The core correction contribution to forces
     atom    1 type  1   force =     0.00000000   -0.00000000    0.00268973
     atom    2 type  2   force =    -0.00000000    0.00000000    0.00038177
     atom    3 type  1   force =     0.00000001   -0.00000000    0.00268973
     atom    4 type  2   force =     0.00000000   -0.00000000    0.00038177
     The Hubbard contrib.    to forces
     atom    1 type  1   force =     0.00000000    0.00000000    0.00000000
     atom    2 type  2   force =     0.00000000    0.00000000    0.00000000
     atom    3 type  1   force =     0.00000000    0.00000000    0.00000000
     atom    4 type  2   force =     0.00000000    0.00000000    0.00000000
     The SCF correction term to forces
     atom    1 type  1   force =    -0.00000000    0.00000000   -0.00000672
     atom    2 type  2   force =    -0.00000000    0.00000000   -0.00000516
     atom    3 type  1   force =     0.00000000   -0.00000000   -0.00000672
     atom    4 type  2   force =    -0.00000000    0.00000000   -0.00000516

     Total force =     0.002382     Total SCF correction =     0.000012

     Writing all to output data dir ./ZnO-3.20-1.68-111.in.save/

     init_run     :      1.85s CPU      1.22s WALL (       1 calls)
     electrons    :    113.55s CPU     40.70s WALL (       1 calls)
     forces       :      0.73s CPU      0.32s WALL (       1 calls)

     Called by init_run:
     wfcinit      :      1.02s CPU      0.39s WALL (       1 calls)
     potinit      :      0.24s CPU      0.24s WALL (       1 calls)
     hinit0       :      0.46s CPU      0.47s WALL (       1 calls)

     Called by electrons:
     c_bands      :     95.06s CPU     33.58s WALL (      28 calls)
     sum_band     :     13.65s CPU      5.16s WALL (      28 calls)
     v_of_rho     :      1.23s CPU      0.54s WALL (      29 calls)
     newd         :      3.31s CPU      1.33s WALL (      29 calls)
     mix_rho      :      0.20s CPU      0.08s WALL (      28 calls)

     Called by c_bands:
     init_us_2    :      1.28s CPU      0.42s WALL (    1624 calls)
     init_us_2:cp :      1.25s CPU      0.42s WALL (    1624 calls)
     cegterg      :     92.48s CPU     32.60s WALL (     784 calls)

     Called by *egterg:
     cdiaghg      :     14.71s CPU      4.66s WALL (    4736 calls)
     h_psi        :     58.56s CPU     23.74s WALL (    4764 calls)
     s_psi        :      1.50s CPU      0.41s WALL (    4764 calls)
     g_psi        :      0.50s CPU      0.12s WALL (    3952 calls)

     Called by h_psi:
     h_psi:calbec :      2.57s CPU      0.90s WALL (    4764 calls)
     vloc_psi     :     53.87s CPU     22.22s WALL (    4764 calls)
     add_vuspsi   :      1.54s CPU      0.46s WALL (    4764 calls)

     General routines
     calbec       :      3.26s CPU      1.14s WALL (    5660 calls)
     fft          :      0.91s CPU      0.49s WALL (     386 calls)
     ffts         :      0.14s CPU      0.11s WALL (      57 calls)
     fftw         :     52.47s CPU     21.78s WALL (  125530 calls)
     interpolate  :      0.17s CPU      0.13s WALL (      29 calls)

     Parallel routines

     PWSCF        :   1m56.52s CPU     42.69s WALL


   This run was terminated on:  12:46:57   8Jul2025            

=------------------------------------------------------------------------------=
   JOB DONE.
=------------------------------------------------------------------------------=
Note: The following floating-point exceptions are signalling: IEEE_INVALID_FLAG
