Authorization required, but no authorization protocol specified

Authorization required, but no authorization protocol specified

Authorization required, but no authorization protocol specified

Authorization required, but no authorization protocol specified

Authorization required, but no authorization protocol specified

Authorization required, but no authorization protocol specified

Authorization required, but no authorization protocol specified

Authorization required, but no authorization protocol specified

Authorization required, but no authorization protocol specified

Authorization required, but no authorization protocol specified


     Program PWSCF v.7.2 starts on  8Jul2025 at 13: 2:19 

     This program is part of the open-source Quantum ESPRESSO suite
     for quantum simulation of materials; please cite
         "P. Giannozzi et al., J. Phys.:Condens. Matter 21 395502 (2009);
         "P. Giannozzi et al., J. Phys.:Condens. Matter 29 465901 (2017);
         "P. Giannozzi et al., J. Chem. Phys. 152 154105 (2020);
          URL http://www.quantum-espresso.org", 
     in publications or presentations arising from this work. More details at
     http://www.quantum-espresso.org/quote

     Parallel version (MPI), running on     8 processors

     MPI processes distributed on     1 nodes
     52319 MiB available memory on the printing compute node when the environment starts

     Reading input from /home/jvc/QEspresso7.2/ZnO_database/scripts/cell111_strain10%.in/ZnO-3.34-1.65-111.in
Warning: card &CELL ignored
Warning: card / ignored
Warning: card &FCP ignored
Warning: card / ignored
Warning: card &RISM ignored
Warning: card / ignored

     Current dimensions of program PWSCF are:
     Max number of different atomic species (ntypx) = 10
     Max number of k-points (npk) =  40000
     Max angular momentum in pseudopotentials (lmaxx) =  4
     file Zn.upf: wavefunction(s)  3D renormalized
     Message from routine setup:
     using ibrav=0 with symmetry is DISCOURAGED, use correct ibrav instead

     R & G space division:  proc/nbgrp/npool/nimage =       8
     Subspace diagonalization in iterative solution of the eigenvalue problem:
     a serial algorithm will be used


     Parallelization info
     --------------------
     sticks:   dense  smooth     PW     G-vecs:    dense   smooth      PW
     Min         137      68     20                 6020     2132     356
     Max         138      69     21                 6022     2139     361
     Sum        1099     547    163                48169    17081    2863

     Using Slab Decomposition



     bravais-lattice index     =            0
     lattice parameter (alat)  =       6.3024  a.u.
     unit-cell volume          =     356.9892 (a.u.)^3
     number of atoms/cell      =            4
     number of atomic types    =            2
     number of electrons       =        36.00
     number of Kohn-Sham states=           18
     kinetic-energy cutoff     =      50.0000  Ry
     charge density cutoff     =     400.0000  Ry
     scf convergence threshold =      1.0E-08
     mixing beta               =       0.3000
     number of iterations used =            8  plain     mixing
     Exchange-correlation= PBE
                           (   1   4   3   4   0   0   0)

     celldm(1)=   6.302431  celldm(2)=   0.000000  celldm(3)=   0.000000
     celldm(4)=   0.000000  celldm(5)=   0.000000  celldm(6)=   0.000000

     crystal axes: (cart. coord. in units of alat)
               a(1) = (   1.000000   0.000000   0.000000 )  
               a(2) = (  -0.500000   0.866025   0.000000 )  
               a(3) = (   0.000000   0.000000   1.646646 )  

     reciprocal axes: (cart. coord. in units 2 pi/alat)
               b(1) = (  1.000000  0.577350 -0.000000 )  
               b(2) = (  0.000000  1.154701  0.000000 )  
               b(3) = (  0.000000 -0.000000  0.607295 )  


     PseudoPot. # 1 for Zn read from file:
     /home/jvc/QEspresso7.2/ZnO_database/pseudos/Zn.upf
     MD5 check sum: 7f56cabf9682ed8c977c2f7d0c5985c5
     Pseudo is Ultrasoft + core correction, Zval = 12.0
     Generated using &quot;atomic&quot; code by A. Dal Corso  v.6.2.2
     Using radial grid of 1201 points,  6 beta functions with: 
                l(1) =   0
                l(2) =   0
                l(3) =   1
                l(4) =   1
                l(5) =   2
                l(6) =   2
     Q(r) pseudized with 0 coefficients 


     PseudoPot. # 2 for O  read from file:
     /home/jvc/QEspresso7.2/ZnO_database/pseudos/O.upf
     MD5 check sum: 91400c9766925bcf19f520983a725ff0
     Pseudo is Ultrasoft + core correction, Zval =  6.0
     Generated using &quot;atomic&quot; code by A. Dal Corso  v.6.3MaX
     Using radial grid of 1095 points,  4 beta functions with: 
                l(1) =   0
                l(2) =   0
                l(3) =   1
                l(4) =   1
     Q(r) pseudized with 0 coefficients 


     atomic species   valence    mass     pseudopotential
        Zn            12.00    65.38000     Zn( 1.00)
        O              6.00    15.99900     O ( 1.00)

     12 Sym. Ops. (no inversion) found ( 6 have fractional translation)



   Cartesian axes

     site n.     atom                  positions (alat units)
         1           Zn  tau(   1) = (   0.0000000   0.0000000   0.0000000  )
         2           O   tau(   2) = (  -0.0000000   0.5773503   0.2092296  )
         3           Zn  tau(   3) = (  -0.0000000   0.5773503   0.8233228  )
         4           O   tau(   4) = (   0.0000000   0.0000000   1.0325524  )

     number of k points=    28
                       cart. coord. in units 2pi/alat
        k(    1) = (   0.0000000   0.0000000   0.0000000), wk =   0.0092593
        k(    2) = (   0.0000000   0.0000000   0.1012159), wk =   0.0185185
        k(    3) = (   0.0000000   0.0000000   0.2024317), wk =   0.0185185
        k(    4) = (   0.0000000   0.0000000  -0.3036476), wk =   0.0092593
        k(    5) = (   0.0000000   0.1924501   0.0000000), wk =   0.0555556
        k(    6) = (   0.0000000   0.1924501   0.1012159), wk =   0.1111111
        k(    7) = (   0.0000000   0.1924501   0.2024317), wk =   0.1111111
        k(    8) = (   0.0000000   0.1924501  -0.3036476), wk =   0.0555556
        k(    9) = (   0.0000000   0.3849002   0.0000000), wk =   0.0555556
        k(   10) = (   0.0000000   0.3849002   0.1012159), wk =   0.1111111
        k(   11) = (   0.0000000   0.3849002   0.2024317), wk =   0.1111111
        k(   12) = (   0.0000000   0.3849002  -0.3036476), wk =   0.0555556
        k(   13) = (   0.0000000  -0.5773503   0.0000000), wk =   0.0277778
        k(   14) = (   0.0000000  -0.5773503   0.1012159), wk =   0.0555556
        k(   15) = (   0.0000000  -0.5773503   0.2024317), wk =   0.0555556
        k(   16) = (   0.0000000  -0.5773503  -0.3036476), wk =   0.0277778
        k(   17) = (   0.1666667   0.2886751   0.0000000), wk =   0.0555556
        k(   18) = (   0.1666667   0.2886751   0.1012159), wk =   0.1111111
        k(   19) = (   0.1666667   0.2886751   0.2024317), wk =   0.1111111
        k(   20) = (   0.1666667   0.2886751  -0.3036476), wk =   0.0555556
        k(   21) = (   0.1666667   0.4811252   0.0000000), wk =   0.1111111
        k(   22) = (   0.1666667   0.4811252   0.1012159), wk =   0.2222222
        k(   23) = (   0.1666667   0.4811252   0.2024317), wk =   0.2222222
        k(   24) = (   0.1666667   0.4811252  -0.3036476), wk =   0.1111111
        k(   25) = (   0.3333333   0.5773503   0.0000000), wk =   0.0185185
        k(   26) = (   0.3333333   0.5773503   0.1012159), wk =   0.0370370
        k(   27) = (   0.3333333   0.5773503   0.2024317), wk =   0.0370370
        k(   28) = (   0.3333333   0.5773503  -0.3036476), wk =   0.0185185

     Dense  grid:    48169 G-vectors     FFT dimensions: (  45,  45,  72)

     Smooth grid:    17081 G-vectors     FFT dimensions: (  30,  30,  48)

     Estimated max dynamical RAM per process >      26.96 MB

     Estimated total dynamical RAM >     215.70 MB

     Check: negative core charge=   -0.000002

     Initial potential from superposition of free atoms

     starting charge      35.9925, renormalised to      36.0000
     Starting wfcs are   26 randomized atomic wfcs

     total cpu time spent up to now is        1.6 secs

     Self-consistent Calculation

     iteration #  1     ecut=    50.00 Ry     beta= 0.30
     Davidson diagonalization with overlap
     ethr =  1.00E-02,  avg # of iterations =  1.6

     total cpu time spent up to now is        2.5 secs

     total energy              =    -361.46179502 Ry
     estimated scf accuracy    <       0.72232277 Ry

     iteration #  2     ecut=    50.00 Ry     beta= 0.30
     Davidson diagonalization with overlap
     ethr =  2.01E-03,  avg # of iterations =  2.1

     total cpu time spent up to now is        3.6 secs

     total energy              =    -361.57571494 Ry
     estimated scf accuracy    <       0.08133173 Ry

     iteration #  3     ecut=    50.00 Ry     beta= 0.30
     Davidson diagonalization with overlap
     ethr =  2.26E-04,  avg # of iterations =  6.5

     total cpu time spent up to now is        5.4 secs

     total energy              =    -361.59890889 Ry
     estimated scf accuracy    <       0.06484937 Ry

     iteration #  4     ecut=    50.00 Ry     beta= 0.30
     Davidson diagonalization with overlap
     ethr =  1.80E-04,  avg # of iterations =  8.8

     total cpu time spent up to now is        7.6 secs

     total energy              =    -361.64757346 Ry
     estimated scf accuracy    <       0.29109419 Ry

     iteration #  5     ecut=    50.00 Ry     beta= 0.30
     Davidson diagonalization with overlap
     ethr =  1.80E-04,  avg # of iterations =  2.0

     total cpu time spent up to now is        8.5 secs

     total energy              =    -361.56616045 Ry
     estimated scf accuracy    <       0.17803903 Ry

     iteration #  6     ecut=    50.00 Ry     beta= 0.30
     Davidson diagonalization with overlap
     ethr =  1.80E-04,  avg # of iterations =  6.2

     total cpu time spent up to now is       10.3 secs

     total energy              =    -361.63774967 Ry
     estimated scf accuracy    <       0.01855350 Ry

     iteration #  7     ecut=    50.00 Ry     beta= 0.30
     Davidson diagonalization with overlap
     ethr =  5.15E-05,  avg # of iterations =  2.1

     total cpu time spent up to now is       11.2 secs

     total energy              =    -361.63666463 Ry
     estimated scf accuracy    <       0.02516587 Ry

     iteration #  8     ecut=    50.00 Ry     beta= 0.30
     Davidson diagonalization with overlap
     ethr =  5.15E-05,  avg # of iterations =  1.1

     total cpu time spent up to now is       12.1 secs

     total energy              =    -361.63185142 Ry
     estimated scf accuracy    <       0.02399763 Ry

     iteration #  9     ecut=    50.00 Ry     beta= 0.30
     Davidson diagonalization with overlap
     ethr =  5.15E-05,  avg # of iterations =  1.0

     total cpu time spent up to now is       12.9 secs

     total energy              =    -361.62791529 Ry
     estimated scf accuracy    <       0.01472149 Ry

     iteration # 10     ecut=    50.00 Ry     beta= 0.30
     Davidson diagonalization with overlap
     ethr =  4.09E-05,  avg # of iterations =  2.0

     total cpu time spent up to now is       13.9 secs

     total energy              =    -361.63012956 Ry
     estimated scf accuracy    <       0.00351510 Ry

     iteration # 11     ecut=    50.00 Ry     beta= 0.30
     Davidson diagonalization with overlap
     ethr =  9.76E-06,  avg # of iterations =  2.0

     total cpu time spent up to now is       14.9 secs

     total energy              =    -361.63067878 Ry
     estimated scf accuracy    <       0.00399012 Ry

     iteration # 12     ecut=    50.00 Ry     beta= 0.30
     Davidson diagonalization with overlap
     ethr =  9.76E-06,  avg # of iterations =  1.0

     total cpu time spent up to now is       15.7 secs

     total energy              =    -361.63042718 Ry
     estimated scf accuracy    <       0.00438100 Ry

     iteration # 13     ecut=    50.00 Ry     beta= 0.30
     Davidson diagonalization with overlap
     ethr =  9.76E-06,  avg # of iterations =  1.1

     total cpu time spent up to now is       16.6 secs

     total energy              =    -361.62955518 Ry
     estimated scf accuracy    <       0.00346187 Ry

     iteration # 14     ecut=    50.00 Ry     beta= 0.30
     Davidson diagonalization with overlap
     ethr =  9.62E-06,  avg # of iterations =  2.1

     total cpu time spent up to now is       17.5 secs

     total energy              =    -361.62990971 Ry
     estimated scf accuracy    <       0.00139184 Ry

     iteration # 15     ecut=    50.00 Ry     beta= 0.30
     Davidson diagonalization with overlap
     ethr =  3.87E-06,  avg # of iterations =  2.1

     total cpu time spent up to now is       18.5 secs

     total energy              =    -361.62972653 Ry
     estimated scf accuracy    <       0.00144625 Ry

     iteration # 16     ecut=    50.00 Ry     beta= 0.30
     Davidson diagonalization with overlap
     ethr =  3.87E-06,  avg # of iterations =  1.9

     total cpu time spent up to now is       19.4 secs

     total energy              =    -361.63001638 Ry
     estimated scf accuracy    <       0.00077777 Ry

     iteration # 17     ecut=    50.00 Ry     beta= 0.30
     Davidson diagonalization with overlap
     ethr =  2.16E-06,  avg # of iterations =  1.8

     total cpu time spent up to now is       20.3 secs

     total energy              =    -361.62973468 Ry
     estimated scf accuracy    <       0.00104198 Ry

     iteration # 18     ecut=    50.00 Ry     beta= 0.30
     Davidson diagonalization with overlap
     ethr =  2.16E-06,  avg # of iterations =  2.8

     total cpu time spent up to now is       21.3 secs

     total energy              =    -361.62954711 Ry
     estimated scf accuracy    <       0.00033542 Ry

     iteration # 19     ecut=    50.00 Ry     beta= 0.30
     Davidson diagonalization with overlap
     ethr =  9.32E-07,  avg # of iterations =  9.9

     total cpu time spent up to now is       23.8 secs

     total energy              =    -361.62887667 Ry
     estimated scf accuracy    <       0.00545513 Ry

     iteration # 20     ecut=    50.00 Ry     beta= 0.30
     Davidson diagonalization with overlap
     ethr =  9.32E-07,  avg # of iterations =  9.0

     total cpu time spent up to now is       26.1 secs

     total energy              =    -361.62989820 Ry
     estimated scf accuracy    <       0.00000381 Ry

     iteration # 21     ecut=    50.00 Ry     beta= 0.30
     Davidson diagonalization with overlap
     ethr =  1.06E-08,  avg # of iterations =  9.1

     total cpu time spent up to now is       28.5 secs

     total energy              =    -361.62990419 Ry
     estimated scf accuracy    <       0.00002674 Ry

     iteration # 22     ecut=    50.00 Ry     beta= 0.30
     Davidson diagonalization with overlap
     ethr =  1.06E-08,  avg # of iterations =  5.1

     total cpu time spent up to now is       29.9 secs

     total energy              =    -361.62991868 Ry
     estimated scf accuracy    <       0.00000286 Ry

     iteration # 23     ecut=    50.00 Ry     beta= 0.30
     Davidson diagonalization with overlap
     ethr =  7.94E-09,  avg # of iterations = 12.9

     total cpu time spent up to now is       33.2 secs

     total energy              =    -361.62993777 Ry
     estimated scf accuracy    <       0.00033907 Ry

     iteration # 24     ecut=    50.00 Ry     beta= 0.30
     Davidson diagonalization with overlap
     ethr =  7.94E-09,  avg # of iterations =  8.8

     total cpu time spent up to now is       35.4 secs

     total energy              =    -361.62992987 Ry
     estimated scf accuracy    <       0.00016076 Ry

     iteration # 25     ecut=    50.00 Ry     beta= 0.30
     Davidson diagonalization with overlap
     ethr =  7.94E-09,  avg # of iterations =  4.9

     total cpu time spent up to now is       36.7 secs

     total energy              =    -361.62992506 Ry
     estimated scf accuracy    <       0.00011059 Ry

     iteration # 26     ecut=    50.00 Ry     beta= 0.30
     Davidson diagonalization with overlap
     ethr =  7.94E-09,  avg # of iterations =  2.9

     total cpu time spent up to now is       37.7 secs

     total energy              =    -361.62989145 Ry
     estimated scf accuracy    <       0.00009203 Ry

     iteration # 27     ecut=    50.00 Ry     beta= 0.30
     Davidson diagonalization with overlap
     ethr =  7.94E-09,  avg # of iterations = 10.0

     total cpu time spent up to now is       40.3 secs

     total energy              =    -361.62990588 Ry
     estimated scf accuracy    <       0.00000063 Ry

     iteration # 28     ecut=    50.00 Ry     beta= 0.30
     Davidson diagonalization with overlap
     ethr =  1.76E-09,  avg # of iterations =  5.2

     total cpu time spent up to now is       41.6 secs

     End of self-consistent calculation

          k = 0.0000 0.0000 0.0000 (  2105 PWs)   bands (ev):

   -11.5260 -10.9749   0.5020   0.5394   0.5394   0.7101   0.7101   0.8006
     1.4202   1.4202   1.5767   1.5767   1.8194   5.1161   5.1161   5.7061
     5.7920   5.7920

          k = 0.0000 0.0000 0.1012 (  2129 PWs)   bands (ev):

   -11.4907 -11.0135   0.4725   0.5462   0.5462   0.6459   0.6935   0.6935
     1.4337   1.4337   1.5697   1.5697   2.1398   5.1193   5.1622   5.1622
     5.7476   5.7476

          k = 0.0000 0.0000 0.2024 (  2118 PWs)   bands (ev):

   -11.3931 -11.1177   0.4112   0.4551   0.5688   0.5688   0.6531   0.6531
     1.4691   1.4691   1.5483   1.5483   2.7965   4.3343   5.2878   5.2878
     5.6257   5.6257

          k = 0.0000 0.0000-0.3036 (  2148 PWs)   bands (ev):

   -11.2571 -11.2571   0.3828   0.3828   0.6063   0.6063   0.6063   0.6063
     1.5120   1.5120   1.5120   1.5120   3.5530   3.5530   5.4576   5.4576
     5.4576   5.4576

          k = 0.0000 0.1925 0.0000 (  2124 PWs)   bands (ev):

   -11.4064 -10.9202   0.4403   0.5700   0.6017   0.7138   0.8108   0.9808
     1.3735   1.4206   1.5843   1.7055   1.7985   4.2480   4.6900   4.8234
     5.5462   5.6364

          k = 0.0000 0.1925 0.1012 (  2124 PWs)   bands (ev):

   -11.3747 -10.9537   0.4115   0.5625   0.6115   0.6671   0.7919   0.8333
     1.3964   1.4334   1.5755   1.6157   2.2124   4.2706   4.5681   4.8795
     5.4592   5.5832

          k = 0.0000 0.1925 0.2024 (  2119 PWs)   bands (ev):

   -11.2877 -11.0446   0.3579   0.4455   0.6319   0.6415   0.7257   0.7448
     1.4486   1.4676   1.5497   1.5667   2.8601   4.0283   4.6020   5.0313
     5.2098   5.4372

          k = 0.0000 0.1925-0.3036 (  2128 PWs)   bands (ev):

   -11.1671 -11.1671   0.3506   0.3506   0.6674   0.6674   0.6888   0.6888
     1.5104   1.5104   1.5107   1.5107   3.5010   3.5010   4.8822   4.8822
     5.2357   5.2357

          k = 0.0000 0.3849 0.0000 (  2136 PWs)   bands (ev):

   -11.1403 -10.8263   0.3514   0.6097   0.6961   0.8978   1.0464   1.1578
     1.3849   1.4845   1.5996   1.7735   2.1362   2.8588   3.6565   4.2283
     5.0534   5.3002

          k = 0.0000 0.3849 0.1012 (  2132 PWs)   bands (ev):

   -11.1188 -10.8468   0.3280   0.5570   0.7153   0.8789   1.0177   1.0487
     1.3965   1.4911   1.5897   1.7005   2.3604   2.9828   3.6445   4.3054
     5.0542   5.2314

          k = 0.0000 0.3849 0.2024 (  2127 PWs)   bands (ev):

   -11.0604 -10.9032   0.2895   0.4165   0.7703   0.8519   0.9235   0.9439
     1.4586   1.5095   1.5653   1.6210   2.6324   3.0414   3.9312   4.5102
     4.9133   5.0424

          k = 0.0000 0.3849-0.3036 (  2132 PWs)   bands (ev):

   -10.9813 -10.9813   0.3056   0.3056   0.8522   0.8522   0.8651   0.8651
     1.5360   1.5360   1.5400   1.5400   2.8624   2.8624   4.4941   4.4941
     4.7801   4.7801

          k = 0.0000-0.5774 0.0000 (  2148 PWs)   bands (ev):

   -10.9744 -10.8060   0.4023   0.6518   0.7234   0.9934   1.1805   1.1831
     1.4576   1.5603   1.6139   1.6805   2.1527   2.6182   3.2404   3.9075
     4.6116   5.1194

          k = 0.0000-0.5774 0.1012 (  2140 PWs)   bands (ev):

   -10.9620 -10.8160   0.3720   0.5653   0.7483   0.9929   1.1406   1.1455
     1.5060   1.5618   1.6050   1.6801   2.1312   2.5402   3.4912   3.9981
     4.6885   5.0431

          k = 0.0000-0.5774 0.2024 (  2128 PWs)   bands (ev):

   -10.9287 -10.8444   0.3161   0.4060   0.8196   0.9993   1.0476   1.0744
     1.5666   1.5879   1.5884   1.6730   2.1448   2.3808   4.0225   4.2347
     4.7398   4.8332

          k = 0.0000-0.5774-0.3036 (  2128 PWs)   bands (ev):

   -10.8854 -10.8854   0.3110   0.3110   0.9269   0.9269   1.0247   1.0247
     1.5751   1.5751   1.6461   1.6461   2.2342   2.2342   4.5142   4.5142
     4.5401   4.5401

          k = 0.1667 0.2887 0.0000 (  2129 PWs)   bands (ev):

   -11.2124 -10.8463   0.4414   0.5615   0.6700   0.7958   0.9885   1.1835
     1.3330   1.4394   1.5941   1.7721   2.0284   3.5198   3.6127   4.3088
     5.2352   5.2421

          k = 0.1667 0.2887 0.1012 (  2128 PWs)   bands (ev):

   -11.1878 -10.8706   0.4082   0.5426   0.6771   0.7735   0.9640   1.0080
     1.3639   1.4671   1.5847   1.6877   2.3651   3.5716   3.6467   4.3239
     5.1693   5.2097

          k = 0.1667 0.2887 0.2024 (  2132 PWs)   bands (ev):

   -11.1206 -10.9374   0.3515   0.4451   0.6988   0.7454   0.8568   0.9032
     1.4382   1.4964   1.5613   1.6124   2.8198   3.4158   4.0328   4.4489
     4.9739   5.0220

          k = 0.1667 0.2887-0.3036 (  2130 PWs)   bands (ev):

   -11.0289 -11.0289   0.3508   0.3508   0.7311   0.7311   0.8427   0.8427
     1.5153   1.5153   1.5420   1.5420   3.1620   3.1620   4.5380   4.5380
     4.7410   4.7410

          k = 0.1667 0.4811 0.0000 (  2129 PWs)   bands (ev):

   -10.9801 -10.8030   0.4704   0.6996   0.7828   0.9880   1.1353   1.2105
     1.4136   1.4598   1.6320   1.8088   2.1852   2.7357   3.2766   3.5487
     4.6288   4.8276

          k = 0.1667 0.4811 0.1012 (  2133 PWs)   bands (ev):

   -10.9671 -10.8136   0.4575   0.6465   0.7621   0.9675   1.0946   1.1465
     1.4142   1.5094   1.6320   1.7928   2.2041   2.7381   3.3852   3.7151
     4.6451   4.7899

          k = 0.1667 0.4811 0.2024 (  2140 PWs)   bands (ev):

   -10.9324 -10.8437   0.4188   0.5155   0.7670   0.9297   1.0341   1.0439
     1.4712   1.5331   1.6437   1.7407   2.3053   2.6254   3.6863   4.1314
     4.4476   4.8035

          k = 0.1667 0.4811-0.3036 (  2144 PWs)   bands (ev):

   -10.8869 -10.8869   0.4192   0.4192   0.8455   0.8455   1.0089   1.0089
     1.5193   1.5193   1.6816   1.6816   2.4600   2.4600   4.0495   4.0495
     4.6139   4.6139

          k = 0.3333 0.5774 0.0000 (  2133 PWs)   bands (ev):

   -10.8459 -10.8459   0.4850   0.8713   0.8713   1.1958   1.3031   1.3031
     1.3751   1.4618   1.6154   1.6154   2.4723   2.4723   2.4831   4.0683
     4.0683   4.3355

          k = 0.3333 0.5774 0.1012 (  2154 PWs)   bands (ev):

   -10.8445 -10.8445   0.5127   0.8016   0.8016   1.0998   1.2610   1.2610
     1.3859   1.4569   1.6866   1.6866   2.4232   2.4232   2.6381   4.2148
     4.2225   4.2225

          k = 0.3333 0.5774 0.2024 (  2136 PWs)   bands (ev):

   -10.8415 -10.8415   0.5960   0.6697   0.6697   0.9124   1.2198   1.2198
     1.4043   1.4435   1.7875   1.7875   2.3414   2.3414   3.0069   3.8922
     4.5129   4.5129

          k = 0.3333 0.5774-0.3036 (  2142 PWs)   bands (ev):

   -10.8400 -10.8400   0.6079   0.6079   0.7326   0.7326   1.2073   1.2073
     1.4245   1.4245   1.8296   1.8296   2.3046   2.3046   3.4574   3.4574
     4.6527   4.6527

     highest occupied level (ev):     5.7920

!    total energy              =    -361.62990609 Ry
     estimated scf accuracy    <          3.5E-09 Ry

     The total energy is the sum of the following terms:
     one-electron contribution =    -163.41358928 Ry
     hartree contribution      =     121.45261672 Ry
     xc contribution           =    -109.38956873 Ry
     ewald contribution        =    -210.27936480 Ry

     convergence has been achieved in  28 iterations

     Forces acting on atoms (cartesian axes, Ry/au):

     atom    1 type  1   force =     0.00000000    0.00000000    0.00231326
     atom    2 type  2   force =     0.00000000   -0.00000000   -0.00231326
     atom    3 type  1   force =     0.00000000    0.00000000    0.00231326
     atom    4 type  2   force =     0.00000000    0.00000000   -0.00231326
     The non-local contrib.  to forces
     atom    1 type  1   force =     0.00000000    0.00000000   -0.01815935
     atom    2 type  2   force =     0.00000000   -0.00000000   -0.02480428
     atom    3 type  1   force =     0.00000000   -0.00000000   -0.01815935
     atom    4 type  2   force =     0.00000000    0.00000000   -0.02480428
     The ionic contribution  to forces
     atom    1 type  1   force =    -0.00000000    0.00000000   -0.23360148
     atom    2 type  2   force =     0.00000000   -0.00000000    0.23360148
     atom    3 type  1   force =     0.00000000   -0.00000000   -0.23360148
     atom    4 type  2   force =    -0.00000000    0.00000000    0.23360148
     The local contribution  to forces
     atom    1 type  1   force =     0.00000000   -0.00000000    0.25330958
     atom    2 type  2   force =     0.00000001   -0.00000001   -0.21140414
     atom    3 type  1   force =     0.00000004   -0.00000003    0.25330959
     atom    4 type  2   force =     0.00000000   -0.00000000   -0.21140412
     The core correction contribution to forces
     atom    1 type  1   force =    -0.00000000    0.00000000    0.00081009
     atom    2 type  2   force =    -0.00000000    0.00000000    0.00022433
     atom    3 type  1   force =     0.00000001   -0.00000000    0.00081009
     atom    4 type  2   force =    -0.00000000    0.00000000    0.00022433
     The Hubbard contrib.    to forces
     atom    1 type  1   force =     0.00000000    0.00000000    0.00000000
     atom    2 type  2   force =     0.00000000    0.00000000    0.00000000
     atom    3 type  1   force =     0.00000000    0.00000000    0.00000000
     atom    4 type  2   force =     0.00000000    0.00000000    0.00000000
     The SCF correction term to forces
     atom    1 type  1   force =    -0.00000000    0.00000000   -0.00007631
     atom    2 type  2   force =     0.00000000   -0.00000000    0.00003862
     atom    3 type  1   force =     0.00000000   -0.00000000   -0.00007631
     atom    4 type  2   force =    -0.00000000    0.00000000    0.00003862

     Total force =     0.004627     Total SCF correction =     0.000121

     Writing all to output data dir ./ZnO-3.34-1.65-111.in.save/

     init_run     :      1.96s CPU      1.28s WALL (       1 calls)
     electrons    :    112.01s CPU     39.96s WALL (       1 calls)
     forces       :      0.78s CPU      0.36s WALL (       1 calls)

     Called by init_run:
     wfcinit      :      1.09s CPU      0.41s WALL (       1 calls)
     potinit      :      0.29s CPU      0.29s WALL (       1 calls)
     hinit0       :      0.43s CPU      0.44s WALL (       1 calls)

     Called by electrons:
     c_bands      :     90.95s CPU     32.13s WALL (      28 calls)
     sum_band     :     15.28s CPU      5.60s WALL (      28 calls)
     v_of_rho     :      1.26s CPU      0.56s WALL (      29 calls)
     newd         :      4.24s CPU      1.60s WALL (      29 calls)
     mix_rho      :      0.20s CPU      0.09s WALL (      28 calls)

     Called by c_bands:
     init_us_2    :      1.41s CPU      0.47s WALL (    1624 calls)
     init_us_2:cp :      1.38s CPU      0.46s WALL (    1624 calls)
     cegterg      :     88.02s CPU     31.00s WALL (     784 calls)

     Called by *egterg:
     cdiaghg      :     12.57s CPU      4.15s WALL (    4310 calls)
     h_psi        :     55.72s CPU     22.57s WALL (    4338 calls)
     s_psi        :      1.46s CPU      0.40s WALL (    4338 calls)
     g_psi        :      0.49s CPU      0.12s WALL (    3526 calls)

     Called by h_psi:
     h_psi:calbec :      2.44s CPU      0.84s WALL (    4338 calls)
     vloc_psi     :     51.23s CPU     21.12s WALL (    4338 calls)
     add_vuspsi   :      1.48s CPU      0.45s WALL (    4338 calls)

     General routines
     calbec       :      3.25s CPU      1.08s WALL (    5234 calls)
     fft          :      0.90s CPU      0.48s WALL (     386 calls)
     ffts         :      0.17s CPU      0.15s WALL (      57 calls)
     fftw         :     50.17s CPU     20.77s WALL (  116010 calls)
     interpolate  :      0.21s CPU      0.16s WALL (      29 calls)

     Parallel routines

     PWSCF        :   1m55.14s CPU     42.07s WALL


   This run was terminated on:  13: 3: 2   8Jul2025            

=------------------------------------------------------------------------------=
   JOB DONE.
=------------------------------------------------------------------------------=
Note: The following floating-point exceptions are signalling: IEEE_INVALID_FLAG
