Authorization required, but no authorization protocol specified

Authorization required, but no authorization protocol specified

Authorization required, but no authorization protocol specified

Authorization required, but no authorization protocol specified

Authorization required, but no authorization protocol specified

Authorization required, but no authorization protocol specified

Authorization required, but no authorization protocol specified

Authorization required, but no authorization protocol specified

Authorization required, but no authorization protocol specified

Authorization required, but no authorization protocol specified


     Program PWSCF v.7.2 starts on  8Jul2025 at 13: 8:50 

     This program is part of the open-source Quantum ESPRESSO suite
     for quantum simulation of materials; please cite
         "P. Giannozzi et al., J. Phys.:Condens. Matter 21 395502 (2009);
         "P. Giannozzi et al., J. Phys.:Condens. Matter 29 465901 (2017);
         "P. Giannozzi et al., J. Chem. Phys. 152 154105 (2020);
          URL http://www.quantum-espresso.org", 
     in publications or presentations arising from this work. More details at
     http://www.quantum-espresso.org/quote

     Parallel version (MPI), running on     8 processors

     MPI processes distributed on     1 nodes
     52148 MiB available memory on the printing compute node when the environment starts

     Reading input from /home/jvc/QEspresso7.2/ZnO_database/scripts/cell111_strain10%.in/ZnO-3.40-1.55-111.in
Warning: card &CELL ignored
Warning: card / ignored
Warning: card &FCP ignored
Warning: card / ignored
Warning: card &RISM ignored
Warning: card / ignored

     Current dimensions of program PWSCF are:
     Max number of different atomic species (ntypx) = 10
     Max number of k-points (npk) =  40000
     Max angular momentum in pseudopotentials (lmaxx) =  4
     file Zn.upf: wavefunction(s)  3D renormalized
     Message from routine setup:
     using ibrav=0 with symmetry is DISCOURAGED, use correct ibrav instead

     R & G space division:  proc/nbgrp/npool/nimage =       8
     Subspace diagonalization in iterative solution of the eigenvalue problem:
     a serial algorithm will be used


     Parallelization info
     --------------------
     sticks:   dense  smooth     PW     G-vecs:    dense   smooth      PW
     Min         143      71     20                 6027     2127     350
     Max         144      73     21                 6030     2130     357
     Sum        1147     571    163                48225    17031    2815

     Using Slab Decomposition



     bravais-lattice index     =            0
     lattice parameter (alat)  =       6.4260  a.u.
     unit-cell volume          =     356.1440 (a.u.)^3
     number of atoms/cell      =            4
     number of atomic types    =            2
     number of electrons       =        36.00
     number of Kohn-Sham states=           18
     kinetic-energy cutoff     =      50.0000  Ry
     charge density cutoff     =     400.0000  Ry
     scf convergence threshold =      1.0E-08
     mixing beta               =       0.3000
     number of iterations used =            8  plain     mixing
     Exchange-correlation= PBE
                           (   1   4   3   4   0   0   0)

     celldm(1)=   6.426008  celldm(2)=   0.000000  celldm(3)=   0.000000
     celldm(4)=   0.000000  celldm(5)=   0.000000  celldm(6)=   0.000000

     crystal axes: (cart. coord. in units of alat)
               a(1) = (   1.000000   0.000000   0.000000 )  
               a(2) = (  -0.500000   0.866025   0.000000 )  
               a(3) = (   0.000000   0.000000   1.549784 )  

     reciprocal axes: (cart. coord. in units 2 pi/alat)
               b(1) = (  1.000000  0.577350 -0.000000 )  
               b(2) = (  0.000000  1.154701  0.000000 )  
               b(3) = (  0.000000 -0.000000  0.645251 )  


     PseudoPot. # 1 for Zn read from file:
     /home/jvc/QEspresso7.2/ZnO_database/pseudos/Zn.upf
     MD5 check sum: 7f56cabf9682ed8c977c2f7d0c5985c5
     Pseudo is Ultrasoft + core correction, Zval = 12.0
     Generated using &quot;atomic&quot; code by A. Dal Corso  v.6.2.2
     Using radial grid of 1201 points,  6 beta functions with: 
                l(1) =   0
                l(2) =   0
                l(3) =   1
                l(4) =   1
                l(5) =   2
                l(6) =   2
     Q(r) pseudized with 0 coefficients 


     PseudoPot. # 2 for O  read from file:
     /home/jvc/QEspresso7.2/ZnO_database/pseudos/O.upf
     MD5 check sum: 91400c9766925bcf19f520983a725ff0
     Pseudo is Ultrasoft + core correction, Zval =  6.0
     Generated using &quot;atomic&quot; code by A. Dal Corso  v.6.3MaX
     Using radial grid of 1095 points,  4 beta functions with: 
                l(1) =   0
                l(2) =   0
                l(3) =   1
                l(4) =   1
     Q(r) pseudized with 0 coefficients 


     atomic species   valence    mass     pseudopotential
        Zn            12.00    65.38000     Zn( 1.00)
        O              6.00    15.99900     O ( 1.00)

     12 Sym. Ops. (no inversion) found ( 6 have fractional translation)



   Cartesian axes

     site n.     atom                  positions (alat units)
         1           Zn  tau(   1) = (   0.0000000   0.0000000   0.0000000  )
         2           O   tau(   2) = (  -0.0000000   0.5773503   0.1723623  )
         3           Zn  tau(   3) = (  -0.0000000   0.5773503   0.7748920  )
         4           O   tau(   4) = (   0.0000000   0.0000000   0.9472543  )

     number of k points=    28
                       cart. coord. in units 2pi/alat
        k(    1) = (   0.0000000   0.0000000   0.0000000), wk =   0.0092593
        k(    2) = (   0.0000000   0.0000000   0.1075419), wk =   0.0185185
        k(    3) = (   0.0000000   0.0000000   0.2150837), wk =   0.0185185
        k(    4) = (   0.0000000   0.0000000  -0.3226256), wk =   0.0092593
        k(    5) = (   0.0000000   0.1924501   0.0000000), wk =   0.0555556
        k(    6) = (   0.0000000   0.1924501   0.1075419), wk =   0.1111111
        k(    7) = (   0.0000000   0.1924501   0.2150837), wk =   0.1111111
        k(    8) = (   0.0000000   0.1924501  -0.3226256), wk =   0.0555556
        k(    9) = (   0.0000000   0.3849002   0.0000000), wk =   0.0555556
        k(   10) = (   0.0000000   0.3849002   0.1075419), wk =   0.1111111
        k(   11) = (   0.0000000   0.3849002   0.2150837), wk =   0.1111111
        k(   12) = (   0.0000000   0.3849002  -0.3226256), wk =   0.0555556
        k(   13) = (   0.0000000  -0.5773503   0.0000000), wk =   0.0277778
        k(   14) = (   0.0000000  -0.5773503   0.1075419), wk =   0.0555556
        k(   15) = (   0.0000000  -0.5773503   0.2150837), wk =   0.0555556
        k(   16) = (   0.0000000  -0.5773503  -0.3226256), wk =   0.0277778
        k(   17) = (   0.1666667   0.2886751   0.0000000), wk =   0.0555556
        k(   18) = (   0.1666667   0.2886751   0.1075419), wk =   0.1111111
        k(   19) = (   0.1666667   0.2886751   0.2150837), wk =   0.1111111
        k(   20) = (   0.1666667   0.2886751  -0.3226256), wk =   0.0555556
        k(   21) = (   0.1666667   0.4811252   0.0000000), wk =   0.1111111
        k(   22) = (   0.1666667   0.4811252   0.1075419), wk =   0.2222222
        k(   23) = (   0.1666667   0.4811252   0.2150837), wk =   0.2222222
        k(   24) = (   0.1666667   0.4811252  -0.3226256), wk =   0.1111111
        k(   25) = (   0.3333333   0.5773503   0.0000000), wk =   0.0185185
        k(   26) = (   0.3333333   0.5773503   0.1075419), wk =   0.0370370
        k(   27) = (   0.3333333   0.5773503   0.2150837), wk =   0.0370370
        k(   28) = (   0.3333333   0.5773503  -0.3226256), wk =   0.0185185

     Dense  grid:    48225 G-vectors     FFT dimensions: (  45,  45,  64)

     Smooth grid:    17031 G-vectors     FFT dimensions: (  30,  30,  48)

     Estimated max dynamical RAM per process >      26.84 MB

     Estimated total dynamical RAM >     214.71 MB

     Check: negative core charge=   -0.000002

     Initial potential from superposition of free atoms

     starting charge      35.9925, renormalised to      36.0000
     Starting wfcs are   26 randomized atomic wfcs

     total cpu time spent up to now is        1.6 secs

     Self-consistent Calculation

     iteration #  1     ecut=    50.00 Ry     beta= 0.30
     Davidson diagonalization with overlap
     ethr =  1.00E-02,  avg # of iterations =  1.7

     total cpu time spent up to now is        2.5 secs

     total energy              =    -361.45911364 Ry
     estimated scf accuracy    <       0.72516828 Ry

     iteration #  2     ecut=    50.00 Ry     beta= 0.30
     Davidson diagonalization with overlap
     ethr =  2.01E-03,  avg # of iterations =  2.0

     total cpu time spent up to now is        3.6 secs

     total energy              =    -361.57584074 Ry
     estimated scf accuracy    <       0.08021120 Ry

     iteration #  3     ecut=    50.00 Ry     beta= 0.30
     Davidson diagonalization with overlap
     ethr =  2.23E-04,  avg # of iterations =  6.6

     total cpu time spent up to now is        5.3 secs

     total energy              =    -361.59990861 Ry
     estimated scf accuracy    <       0.06206960 Ry

     iteration #  4     ecut=    50.00 Ry     beta= 0.30
     Davidson diagonalization with overlap
     ethr =  1.72E-04,  avg # of iterations =  8.4

     total cpu time spent up to now is        7.5 secs

     total energy              =    -361.64335165 Ry
     estimated scf accuracy    <       0.24808888 Ry

     iteration #  5     ecut=    50.00 Ry     beta= 0.30
     Davidson diagonalization with overlap
     ethr =  1.72E-04,  avg # of iterations =  2.0

     total cpu time spent up to now is        8.4 secs

     total energy              =    -361.52360936 Ry
     estimated scf accuracy    <       0.14859301 Ry

     iteration #  6     ecut=    50.00 Ry     beta= 0.30
     Davidson diagonalization with overlap
     ethr =  1.72E-04,  avg # of iterations = 10.7

     total cpu time spent up to now is       10.9 secs

     total energy              =    -361.52794584 Ry
     estimated scf accuracy    <       1.21368557 Ry

     iteration #  7     ecut=    50.00 Ry     beta= 0.30
     Davidson diagonalization with overlap
     ethr =  1.72E-04,  avg # of iterations =  8.2

     total cpu time spent up to now is       13.0 secs

     total energy              =    -361.62652256 Ry
     estimated scf accuracy    <       0.08698746 Ry

     iteration #  8     ecut=    50.00 Ry     beta= 0.30
     Davidson diagonalization with overlap
     ethr =  1.72E-04,  avg # of iterations =  1.8

     total cpu time spent up to now is       13.9 secs

     total energy              =    -361.62873422 Ry
     estimated scf accuracy    <       0.04519812 Ry

     iteration #  9     ecut=    50.00 Ry     beta= 0.30
     Davidson diagonalization with overlap
     ethr =  1.26E-04,  avg # of iterations =  1.2

     total cpu time spent up to now is       14.8 secs

     total energy              =    -361.61328882 Ry
     estimated scf accuracy    <       0.03933096 Ry

     iteration # 10     ecut=    50.00 Ry     beta= 0.30
     Davidson diagonalization with overlap
     ethr =  1.09E-04,  avg # of iterations =  4.7

     total cpu time spent up to now is       16.2 secs

     total energy              =    -361.62878053 Ry
     estimated scf accuracy    <       0.00196389 Ry

     iteration # 11     ecut=    50.00 Ry     beta= 0.30
     Davidson diagonalization with overlap
     ethr =  5.46E-06,  avg # of iterations =  5.4

     total cpu time spent up to now is       17.5 secs

     total energy              =    -361.62997847 Ry
     estimated scf accuracy    <       0.00243864 Ry

     iteration # 12     ecut=    50.00 Ry     beta= 0.30
     Davidson diagonalization with overlap
     ethr =  5.46E-06,  avg # of iterations =  1.1

     total cpu time spent up to now is       18.3 secs

     total energy              =    -361.62905930 Ry
     estimated scf accuracy    <       0.00277136 Ry

     iteration # 13     ecut=    50.00 Ry     beta= 0.30
     Davidson diagonalization with overlap
     ethr =  5.46E-06,  avg # of iterations =  2.1

     total cpu time spent up to now is       19.3 secs

     total energy              =    -361.62894457 Ry
     estimated scf accuracy    <       0.00106414 Ry

     iteration # 14     ecut=    50.00 Ry     beta= 0.30
     Davidson diagonalization with overlap
     ethr =  2.96E-06,  avg # of iterations =  3.6

     total cpu time spent up to now is       20.5 secs

     total energy              =    -361.62921629 Ry
     estimated scf accuracy    <       0.00013054 Ry

     iteration # 15     ecut=    50.00 Ry     beta= 0.30
     Davidson diagonalization with overlap
     ethr =  3.63E-07,  avg # of iterations =  5.2

     total cpu time spent up to now is       21.7 secs

     total energy              =    -361.62920394 Ry
     estimated scf accuracy    <       0.00008401 Ry

     iteration # 16     ecut=    50.00 Ry     beta= 0.30
     Davidson diagonalization with overlap
     ethr =  2.33E-07,  avg # of iterations =  5.6

     total cpu time spent up to now is       23.3 secs

     total energy              =    -361.62927218 Ry
     estimated scf accuracy    <       0.00007092 Ry

     iteration # 17     ecut=    50.00 Ry     beta= 0.30
     Davidson diagonalization with overlap
     ethr =  1.97E-07,  avg # of iterations =  1.1

     total cpu time spent up to now is       24.2 secs

     total energy              =    -361.62923878 Ry
     estimated scf accuracy    <       0.00008479 Ry

     iteration # 18     ecut=    50.00 Ry     beta= 0.30
     Davidson diagonalization with overlap
     ethr =  1.97E-07,  avg # of iterations =  2.0

     total cpu time spent up to now is       25.1 secs

     total energy              =    -361.62923517 Ry
     estimated scf accuracy    <       0.00002655 Ry

     iteration # 19     ecut=    50.00 Ry     beta= 0.30
     Davidson diagonalization with overlap
     ethr =  7.37E-08,  avg # of iterations =  4.1

     total cpu time spent up to now is       26.4 secs

     total energy              =    -361.62924662 Ry
     estimated scf accuracy    <       0.00000032 Ry

     iteration # 20     ecut=    50.00 Ry     beta= 0.30
     Davidson diagonalization with overlap
     ethr =  8.84E-10,  avg # of iterations =  7.8

     total cpu time spent up to now is       28.4 secs

     total energy              =    -361.62924721 Ry
     estimated scf accuracy    <       0.00000030 Ry

     iteration # 21     ecut=    50.00 Ry     beta= 0.30
     Davidson diagonalization with overlap
     ethr =  8.27E-10,  avg # of iterations =  2.7

     total cpu time spent up to now is       29.4 secs

     total energy              =    -361.62924756 Ry
     estimated scf accuracy    <       0.00000007 Ry

     iteration # 22     ecut=    50.00 Ry     beta= 0.30
     Davidson diagonalization with overlap
     ethr =  2.03E-10,  avg # of iterations = 10.3

     total cpu time spent up to now is       31.9 secs

     total energy              =    -361.62924905 Ry
     estimated scf accuracy    <       0.00000220 Ry

     iteration # 23     ecut=    50.00 Ry     beta= 0.30
     Davidson diagonalization with overlap
     ethr =  2.03E-10,  avg # of iterations = 10.5

     total cpu time spent up to now is       34.5 secs

     total energy              =    -361.62924788 Ry
     estimated scf accuracy    <       0.00000896 Ry

     iteration # 24     ecut=    50.00 Ry     beta= 0.30
     Davidson diagonalization with overlap
     ethr =  2.03E-10,  avg # of iterations =  9.3

     total cpu time spent up to now is       36.9 secs

     total energy              =    -361.62924702 Ry
     estimated scf accuracy    <       0.00000357 Ry

     iteration # 25     ecut=    50.00 Ry     beta= 0.30
     Davidson diagonalization with overlap
     ethr =  2.03E-10,  avg # of iterations = 10.3

     total cpu time spent up to now is       39.4 secs

     total energy              =    -361.62924739 Ry
     estimated scf accuracy    <       0.00000034 Ry

     iteration # 26     ecut=    50.00 Ry     beta= 0.30
     Davidson diagonalization with overlap
     ethr =  2.03E-10,  avg # of iterations =  1.5

     total cpu time spent up to now is       40.2 secs

     total energy              =    -361.62924719 Ry
     estimated scf accuracy    <       0.00000045 Ry

     iteration # 27     ecut=    50.00 Ry     beta= 0.30
     Davidson diagonalization with overlap
     ethr =  2.03E-10,  avg # of iterations =  6.7

     total cpu time spent up to now is       42.0 secs

     End of self-consistent calculation

          k = 0.0000 0.0000 0.0000 (  2141 PWs)   bands (ev):

   -11.5037 -10.8816   0.5377   0.5377   0.6675   0.6820   0.6820   1.0474
     1.4355   1.4355   1.6182   1.6182   1.8884   5.0801   5.0801   5.7564
     5.7815   5.7815

          k = 0.0000 0.0000 0.1075 (  2117 PWs)   bands (ev):

   -11.4635 -10.9247   0.5408   0.5408   0.6268   0.6655   0.6655   0.8236
     1.4536   1.4536   1.6124   1.6124   2.2744   5.1288   5.1288   5.1868
     5.7365   5.7365

          k = 0.0000 0.0000 0.2151 (  2128 PWs)   bands (ev):

   -11.3526 -11.0414   0.5400   0.5544   0.5544   0.5783   0.6257   0.6257
     1.4983   1.4983   1.5902   1.5902   2.9706   4.4465   5.2607   5.2607
     5.6118   5.6118

          k = 0.0000 0.0000-0.3226 (  2146 PWs)   bands (ev):

   -11.1984 -11.1984   0.4947   0.4947   0.5836   0.5836   0.5836   0.5836
     1.5496   1.5496   1.5496   1.5496   3.7125   3.7125   5.4381   5.4381
     5.4381   5.4381

          k = 0.0000 0.1925 0.0000 (  2135 PWs)   bands (ev):

   -11.3894 -10.8396   0.4497   0.6121   0.6727   0.7528   0.7859   1.1110
     1.3942   1.4331   1.6292   1.8003   1.9074   4.2413   4.6822   4.7650
     5.5946   5.6096

          k = 0.0000 0.1925 0.1075 (  2128 PWs)   bands (ev):

   -11.3532 -10.8769   0.4336   0.6177   0.6268   0.7268   0.7674   0.9190
     1.4233   1.4504   1.6204   1.6786   2.3734   4.2764   4.5523   4.8240
     5.5516   5.5553

          k = 0.0000 0.1925 0.2151 (  2125 PWs)   bands (ev):

   -11.2538 -10.9786   0.3942   0.4843   0.6372   0.6890   0.7228   0.7529
     1.4885   1.4942   1.5926   1.6227   3.0193   4.0528   4.6361   4.9835
     5.3385   5.4055

          k = 0.0000 0.1925-0.3226 (  2138 PWs)   bands (ev):

   -11.1167 -11.1167   0.3873   0.3873   0.6737   0.6737   0.6950   0.6950
     1.5472   1.5472   1.5610   1.5610   3.5962   3.5962   4.9805   4.9805
     5.1968   5.1968

          k = 0.0000 0.3849 0.0000 (  2122 PWs)   bands (ev):

   -11.1320 -10.7751   0.3865   0.6720   0.7367   0.9464   1.0358   1.2426
     1.3806   1.4885   1.6464   1.8224   2.2824   2.9466   3.6199   4.1277
     5.1333   5.2371

          k = 0.0000 0.3849 0.1075 (  2128 PWs)   bands (ev):

   -11.1070 -10.7976   0.3605   0.6030   0.7515   0.9114   1.0095   1.1053
     1.4208   1.4983   1.6339   1.7611   2.4580   3.0801   3.6512   4.2088
     5.1671   5.1778

          k = 0.0000 0.3849 0.2151 (  2123 PWs)   bands (ev):

   -11.0393 -10.8604   0.3105   0.4338   0.7951   0.8686   0.9430   0.9487
     1.5111   1.5253   1.6023   1.6876   2.6715   3.0581   4.1047   4.4233
     4.9739   5.1123

          k = 0.0000 0.3849-0.3226 (  2124 PWs)   bands (ev):

   -10.9486 -10.9486   0.3151   0.3151   0.8634   0.8634   0.8778   0.8778
     1.5627   1.5627   1.6052   1.6052   2.8716   2.8716   4.7037   4.7037
     4.7233   4.7233

          k = 0.0000-0.5774 0.0000 (  2120 PWs)   bands (ev):

   -10.9673 -10.7740   0.4425   0.7113   0.7800   1.1210   1.1744   1.1887
     1.5037   1.5642   1.6556   1.7041   2.2657   2.5402   3.3377   3.7825
     4.7454   5.0368

          k = 0.0000-0.5774 0.1075 (  2126 PWs)   bands (ev):

   -10.9523 -10.7848   0.4064   0.6114   0.8011   1.0801   1.1422   1.1550
     1.5548   1.5670   1.6414   1.7042   2.2237   2.4778   3.6311   3.8786
     4.8538   4.9594

          k = 0.0000-0.5774 0.2151 (  2130 PWs)   bands (ev):

   -10.9127 -10.8157   0.3342   0.4226   0.8634   1.0419   1.0670   1.0814
     1.5758   1.6141   1.6284   1.6985   2.2089   2.3608   4.1272   4.2267
     4.7455   4.9600

          k = 0.0000-0.5774-0.3226 (  2128 PWs)   bands (ev):

   -10.8621 -10.8621   0.3168   0.3168   0.9585   0.9585   1.0424   1.0424
     1.5911   1.5911   1.6764   1.6764   2.2624   2.2624   4.4444   4.4444
     4.7522   4.7522

          k = 0.1667 0.2887 0.0000 (  2121 PWs)   bands (ev):

   -11.2024 -10.7869   0.4488   0.6146   0.7796   0.7969   0.9976   1.2197
     1.3588   1.4531   1.6413   1.8298   2.2123   3.5358   3.6082   4.2239
     5.1931   5.2941

          k = 0.1667 0.2887 0.1075 (  2122 PWs)   bands (ev):

   -11.1739 -10.8138   0.4232   0.5855   0.7627   0.7711   0.9713   1.0394
     1.4022   1.4784   1.6301   1.7520   2.5192   3.5638   3.7026   4.2353
     5.1194   5.3184

          k = 0.1667 0.2887 0.2151 (  2121 PWs)   bands (ev):

   -11.0964 -10.8882   0.3681   0.4623   0.7410   0.7493   0.8740   0.9114
     1.4936   1.5148   1.6011   1.6778   2.9004   3.4052   4.1886   4.3732
     4.9209   5.2096

          k = 0.1667 0.2887-0.3226 (  2116 PWs)   bands (ev):

   -10.9915 -10.9915   0.3605   0.3605   0.7429   0.7429   0.8570   0.8570
     1.5532   1.5532   1.5981   1.5981   3.1776   3.1776   4.6065   4.6065
     4.8250   4.8250

          k = 0.1667 0.4811 0.0000 (  2123 PWs)   bands (ev):

   -10.9729 -10.7706   0.5284   0.7209   0.8771   0.9800   1.2187   1.2662
     1.4264   1.5040   1.6630   1.8188   2.2313   2.7526   3.2251   3.5756
     4.6778   4.8013

          k = 0.1667 0.4811 0.1075 (  2126 PWs)   bands (ev):

   -10.9573 -10.7820   0.5017   0.6914   0.8122   0.9652   1.1639   1.1730
     1.4521   1.5421   1.6580   1.8085   2.2536   2.7336   3.3294   3.8087
     4.6148   4.8828

          k = 0.1667 0.4811 0.2151 (  2125 PWs)   bands (ev):

   -10.9162 -10.8147   0.4369   0.5341   0.8148   0.9438   1.0342   1.0725
     1.5207   1.5605   1.6688   1.7691   2.3440   2.6174   3.6175   4.2698
     4.4372   5.0021

          k = 0.1667 0.4811-0.3226 (  2134 PWs)   bands (ev):

   -10.8634 -10.8634   0.4230   0.4230   0.8892   0.8892   1.0036   1.0036
     1.5549   1.5549   1.7141   1.7141   2.4743   2.4743   3.9844   3.9844
     4.8416   4.8416

          k = 0.3333 0.5774 0.0000 (  2121 PWs)   bands (ev):

   -10.8311 -10.8311   0.5979   0.8605   0.8605   1.2872   1.4102   1.4102
     1.4326   1.5048   1.6038   1.6038   2.3458   2.4775   2.4775   4.1637
     4.1637   4.2592

          k = 0.3333 0.5774 0.1075 (  2136 PWs)   bands (ev):

   -10.8286 -10.8286   0.6229   0.8001   0.8001   1.1919   1.2832   1.2832
     1.4287   1.4990   1.7153   1.7153   2.4365   2.4365   2.5203   4.1392
     4.3581   4.3581

          k = 0.3333 0.5774 0.2151 (  2148 PWs)   bands (ev):

   -10.8236 -10.8236   0.6625   0.6625   0.6987   1.0017   1.1775   1.1775
     1.4399   1.4829   1.8193   1.8193   2.3768   2.3768   2.9127   3.8163
     4.7205   4.7205

          k = 0.3333 0.5774-0.3226 (  2130 PWs)   bands (ev):

   -10.8211 -10.8211   0.5916   0.5916   0.8268   0.8268   1.1486   1.1486
     1.4614   1.4614   1.8548   1.8548   2.3541   2.3541   3.3763   3.3763
     4.8940   4.8940

     highest occupied level (ev):     5.7815

!    total energy              =    -361.62924727 Ry
     estimated scf accuracy    <          1.1E-09 Ry

     The total energy is the sum of the following terms:
     one-electron contribution =    -163.34713749 Ry
     hartree contribution      =     121.46543435 Ry
     xc contribution           =    -109.39462702 Ry
     ewald contribution        =    -210.35291710 Ry

     convergence has been achieved in  27 iterations

     Forces acting on atoms (cartesian axes, Ry/au):

     atom    1 type  1   force =     0.00000000    0.00000000   -0.00118310
     atom    2 type  2   force =     0.00000000    0.00000000    0.00118310
     atom    3 type  1   force =     0.00000000    0.00000000   -0.00118310
     atom    4 type  2   force =     0.00000000    0.00000000    0.00118310
     The non-local contrib.  to forces
     atom    1 type  1   force =     0.00000000    0.00000000    0.06729552
     atom    2 type  2   force =     0.00000000   -0.00000000    0.04921596
     atom    3 type  1   force =     0.00000000   -0.00000000    0.06729552
     atom    4 type  2   force =    -0.00000000    0.00000000    0.04921596
     The ionic contribution  to forces
     atom    1 type  1   force =    -0.00000000    0.00000000    0.39544582
     atom    2 type  2   force =     0.00000000   -0.00000000   -0.39544582
     atom    3 type  1   force =     0.00000000   -0.00000000    0.39544582
     atom    4 type  2   force =    -0.00000000    0.00000000   -0.39544582
     The local contribution  to forces
     atom    1 type  1   force =    -0.00000000   -0.00000000   -0.45973459
     atom    2 type  2   force =     0.00000001   -0.00000001    0.34781111
     atom    3 type  1   force =     0.00000004   -0.00000003   -0.45973459
     atom    4 type  2   force =     0.00000000   -0.00000000    0.34781111
     The core correction contribution to forces
     atom    1 type  1   force =     0.00000000   -0.00000000   -0.00420963
     atom    2 type  2   force =    -0.00000000    0.00000000   -0.00039008
     atom    3 type  1   force =     0.00000001   -0.00000000   -0.00420963
     atom    4 type  2   force =    -0.00000000    0.00000000   -0.00039008
     The Hubbard contrib.    to forces
     atom    1 type  1   force =     0.00000000    0.00000000    0.00000000
     atom    2 type  2   force =     0.00000000    0.00000000    0.00000000
     atom    3 type  1   force =     0.00000000    0.00000000    0.00000000
     atom    4 type  2   force =     0.00000000    0.00000000    0.00000000
     The SCF correction term to forces
     atom    1 type  1   force =    -0.00000000    0.00000000    0.00002290
     atom    2 type  2   force =     0.00000000   -0.00000000   -0.00000495
     atom    3 type  1   force =     0.00000000   -0.00000000    0.00002290
     atom    4 type  2   force =    -0.00000000    0.00000000   -0.00000495

     Total force =     0.002366     Total SCF correction =     0.000033

     Writing all to output data dir ./ZnO-3.40-1.55-111.in.save/

     init_run     :      1.93s CPU      1.24s WALL (       1 calls)
     electrons    :    112.96s CPU     40.47s WALL (       1 calls)
     forces       :      0.76s CPU      0.36s WALL (       1 calls)

     Called by init_run:
     wfcinit      :      1.10s CPU      0.42s WALL (       1 calls)
     potinit      :      0.27s CPU      0.28s WALL (       1 calls)
     hinit0       :      0.39s CPU      0.40s WALL (       1 calls)

     Called by electrons:
     c_bands      :     92.98s CPU     33.03s WALL (      27 calls)
     sum_band     :     14.51s CPU      5.36s WALL (      27 calls)
     v_of_rho     :      1.09s CPU      0.48s WALL (      28 calls)
     newd         :      4.16s CPU      1.55s WALL (      28 calls)
     mix_rho      :      0.18s CPU      0.08s WALL (      27 calls)

     Called by c_bands:
     init_us_2    :      1.35s CPU      0.45s WALL (    1568 calls)
     init_us_2:cp :      1.33s CPU      0.44s WALL (    1568 calls)
     cegterg      :     90.16s CPU     31.97s WALL (     756 calls)

     Called by *egterg:
     cdiaghg      :     13.36s CPU      4.49s WALL (    4576 calls)
     h_psi        :     56.07s CPU     22.81s WALL (    4604 calls)
     s_psi        :      1.49s CPU      0.41s WALL (    4604 calls)
     g_psi        :      0.46s CPU      0.12s WALL (    3820 calls)

     Called by h_psi:
     h_psi:calbec :      2.72s CPU      0.92s WALL (    4604 calls)
     vloc_psi     :     51.26s CPU     21.26s WALL (    4604 calls)
     add_vuspsi   :      1.53s CPU      0.46s WALL (    4604 calls)

     General routines
     calbec       :      3.45s CPU      1.15s WALL (    5472 calls)
     fft          :      0.75s CPU      0.41s WALL (     373 calls)
     ffts         :      0.18s CPU      0.15s WALL (      55 calls)
     fftw         :     50.38s CPU     21.00s WALL (  116670 calls)
     interpolate  :      0.20s CPU      0.16s WALL (      28 calls)

     Parallel routines

     PWSCF        :   1m56.05s CPU     42.53s WALL


   This run was terminated on:  13: 9:32   8Jul2025            

=------------------------------------------------------------------------------=
   JOB DONE.
=------------------------------------------------------------------------------=
Note: The following floating-point exceptions are signalling: IEEE_INVALID_FLAG
