Authorization required, but no authorization protocol specified

Authorization required, but no authorization protocol specified

Authorization required, but no authorization protocol specified

Authorization required, but no authorization protocol specified

Authorization required, but no authorization protocol specified

Authorization required, but no authorization protocol specified

Authorization required, but no authorization protocol specified

Authorization required, but no authorization protocol specified

Authorization required, but no authorization protocol specified

Authorization required, but no authorization protocol specified


     Program PWSCF v.7.2 starts on  8Jul2025 at 12:51:27 

     This program is part of the open-source Quantum ESPRESSO suite
     for quantum simulation of materials; please cite
         "P. Giannozzi et al., J. Phys.:Condens. Matter 21 395502 (2009);
         "P. Giannozzi et al., J. Phys.:Condens. Matter 29 465901 (2017);
         "P. Giannozzi et al., J. Chem. Phys. 152 154105 (2020);
          URL http://www.quantum-espresso.org", 
     in publications or presentations arising from this work. More details at
     http://www.quantum-espresso.org/quote

     Parallel version (MPI), running on     8 processors

     MPI processes distributed on     1 nodes
     52603 MiB available memory on the printing compute node when the environment starts

     Reading input from /home/jvc/QEspresso7.2/ZnO_database/scripts/cell111_strain10%.in/ZnO-3.27-1.55-111.in
Warning: card &CELL ignored
Warning: card / ignored
Warning: card &FCP ignored
Warning: card / ignored
Warning: card &RISM ignored
Warning: card / ignored

     Current dimensions of program PWSCF are:
     Max number of different atomic species (ntypx) = 10
     Max number of k-points (npk) =  40000
     Max angular momentum in pseudopotentials (lmaxx) =  4
     file Zn.upf: wavefunction(s)  3D renormalized
     Message from routine setup:
     using ibrav=0 with symmetry is DISCOURAGED, use correct ibrav instead

     R & G space division:  proc/nbgrp/npool/nimage =       8
     Subspace diagonalization in iterative solution of the eigenvalue problem:
     a serial algorithm will be used


     Parallelization info
     --------------------
     sticks:   dense  smooth     PW     G-vecs:    dense   smooth      PW
     Min         130      64     20                 5342     1889     322
     Max         132      65     21                 5345     1892     327
     Sum        1045     517    163                42745    15127    2597

     Using Slab Decomposition



     bravais-lattice index     =            0
     lattice parameter (alat)  =       6.1789  a.u.
     unit-cell volume          =     316.6107 (a.u.)^3
     number of atoms/cell      =            4
     number of atomic types    =            2
     number of electrons       =        36.00
     number of Kohn-Sham states=           18
     kinetic-energy cutoff     =      50.0000  Ry
     charge density cutoff     =     400.0000  Ry
     scf convergence threshold =      1.0E-08
     mixing beta               =       0.3000
     number of iterations used =            8  plain     mixing
     Exchange-correlation= PBE
                           (   1   4   3   4   0   0   0)

     celldm(1)=   6.178854  celldm(2)=   0.000000  celldm(3)=   0.000000
     celldm(4)=   0.000000  celldm(5)=   0.000000  celldm(6)=   0.000000

     crystal axes: (cart. coord. in units of alat)
               a(1) = (   1.000000   0.000000   0.000000 )  
               a(2) = (  -0.500000   0.866025   0.000000 )  
               a(3) = (   0.000000   0.000000   1.549784 )  

     reciprocal axes: (cart. coord. in units 2 pi/alat)
               b(1) = (  1.000000  0.577350 -0.000000 )  
               b(2) = (  0.000000  1.154701  0.000000 )  
               b(3) = (  0.000000 -0.000000  0.645251 )  


     PseudoPot. # 1 for Zn read from file:
     /home/jvc/QEspresso7.2/ZnO_database/pseudos/Zn.upf
     MD5 check sum: 7f56cabf9682ed8c977c2f7d0c5985c5
     Pseudo is Ultrasoft + core correction, Zval = 12.0
     Generated using &quot;atomic&quot; code by A. Dal Corso  v.6.2.2
     Using radial grid of 1201 points,  6 beta functions with: 
                l(1) =   0
                l(2) =   0
                l(3) =   1
                l(4) =   1
                l(5) =   2
                l(6) =   2
     Q(r) pseudized with 0 coefficients 


     PseudoPot. # 2 for O  read from file:
     /home/jvc/QEspresso7.2/ZnO_database/pseudos/O.upf
     MD5 check sum: 91400c9766925bcf19f520983a725ff0
     Pseudo is Ultrasoft + core correction, Zval =  6.0
     Generated using &quot;atomic&quot; code by A. Dal Corso  v.6.3MaX
     Using radial grid of 1095 points,  4 beta functions with: 
                l(1) =   0
                l(2) =   0
                l(3) =   1
                l(4) =   1
     Q(r) pseudized with 0 coefficients 


     atomic species   valence    mass     pseudopotential
        Zn            12.00    65.38000     Zn( 1.00)
        O              6.00    15.99900     O ( 1.00)

     12 Sym. Ops. (no inversion) found ( 6 have fractional translation)



   Cartesian axes

     site n.     atom                  positions (alat units)
         1           Zn  tau(   1) = (   0.0000000   0.0000000   0.0000000  )
         2           O   tau(   2) = (  -0.0000000   0.5773503   0.1723623  )
         3           Zn  tau(   3) = (  -0.0000000   0.5773503   0.7748920  )
         4           O   tau(   4) = (   0.0000000   0.0000000   0.9472543  )

     number of k points=    28
                       cart. coord. in units 2pi/alat
        k(    1) = (   0.0000000   0.0000000   0.0000000), wk =   0.0092593
        k(    2) = (   0.0000000   0.0000000   0.1075419), wk =   0.0185185
        k(    3) = (   0.0000000   0.0000000   0.2150837), wk =   0.0185185
        k(    4) = (   0.0000000   0.0000000  -0.3226256), wk =   0.0092593
        k(    5) = (   0.0000000   0.1924501   0.0000000), wk =   0.0555556
        k(    6) = (   0.0000000   0.1924501   0.1075419), wk =   0.1111111
        k(    7) = (   0.0000000   0.1924501   0.2150837), wk =   0.1111111
        k(    8) = (   0.0000000   0.1924501  -0.3226256), wk =   0.0555556
        k(    9) = (   0.0000000   0.3849002   0.0000000), wk =   0.0555556
        k(   10) = (   0.0000000   0.3849002   0.1075419), wk =   0.1111111
        k(   11) = (   0.0000000   0.3849002   0.2150837), wk =   0.1111111
        k(   12) = (   0.0000000   0.3849002  -0.3226256), wk =   0.0555556
        k(   13) = (   0.0000000  -0.5773503   0.0000000), wk =   0.0277778
        k(   14) = (   0.0000000  -0.5773503   0.1075419), wk =   0.0555556
        k(   15) = (   0.0000000  -0.5773503   0.2150837), wk =   0.0555556
        k(   16) = (   0.0000000  -0.5773503  -0.3226256), wk =   0.0277778
        k(   17) = (   0.1666667   0.2886751   0.0000000), wk =   0.0555556
        k(   18) = (   0.1666667   0.2886751   0.1075419), wk =   0.1111111
        k(   19) = (   0.1666667   0.2886751   0.2150837), wk =   0.1111111
        k(   20) = (   0.1666667   0.2886751  -0.3226256), wk =   0.0555556
        k(   21) = (   0.1666667   0.4811252   0.0000000), wk =   0.1111111
        k(   22) = (   0.1666667   0.4811252   0.1075419), wk =   0.2222222
        k(   23) = (   0.1666667   0.4811252   0.2150837), wk =   0.2222222
        k(   24) = (   0.1666667   0.4811252  -0.3226256), wk =   0.1111111
        k(   25) = (   0.3333333   0.5773503   0.0000000), wk =   0.0185185
        k(   26) = (   0.3333333   0.5773503   0.1075419), wk =   0.0370370
        k(   27) = (   0.3333333   0.5773503   0.2150837), wk =   0.0370370
        k(   28) = (   0.3333333   0.5773503  -0.3226256), wk =   0.0185185

     Dense  grid:    42745 G-vectors     FFT dimensions: (  45,  45,  64)

     Smooth grid:    15127 G-vectors     FFT dimensions: (  27,  27,  48)

     Estimated max dynamical RAM per process >      24.29 MB

     Estimated total dynamical RAM >     194.35 MB

     Check: negative core charge=   -0.000002

     Initial potential from superposition of free atoms

     starting charge      35.9925, renormalised to      36.0000
     Starting wfcs are   26 randomized atomic wfcs

     total cpu time spent up to now is        1.5 secs

     Self-consistent Calculation

     iteration #  1     ecut=    50.00 Ry     beta= 0.30
     Davidson diagonalization with overlap
     ethr =  1.00E-02,  avg # of iterations =  2.0

     total cpu time spent up to now is        2.4 secs

     total energy              =    -361.47789937 Ry
     estimated scf accuracy    <       0.68547542 Ry

     iteration #  2     ecut=    50.00 Ry     beta= 0.30
     Davidson diagonalization with overlap
     ethr =  1.90E-03,  avg # of iterations =  2.0

     total cpu time spent up to now is        3.4 secs

     total energy              =    -361.56881687 Ry
     estimated scf accuracy    <       0.09462973 Ry

     iteration #  3     ecut=    50.00 Ry     beta= 0.30
     Davidson diagonalization with overlap
     ethr =  2.63E-04,  avg # of iterations =  6.1

     total cpu time spent up to now is        5.2 secs

     total energy              =    -361.60240850 Ry
     estimated scf accuracy    <       0.06400105 Ry

     iteration #  4     ecut=    50.00 Ry     beta= 0.30
     Davidson diagonalization with overlap
     ethr =  1.78E-04,  avg # of iterations =  8.4

     total cpu time spent up to now is        7.2 secs

     total energy              =    -361.65435201 Ry
     estimated scf accuracy    <       0.27828667 Ry

     iteration #  5     ecut=    50.00 Ry     beta= 0.30
     Davidson diagonalization with overlap
     ethr =  1.78E-04,  avg # of iterations =  2.0

     total cpu time spent up to now is        8.1 secs

     total energy              =    -361.51644954 Ry
     estimated scf accuracy    <       0.17118668 Ry

     iteration #  6     ecut=    50.00 Ry     beta= 0.30
     Davidson diagonalization with overlap
     ethr =  1.78E-04,  avg # of iterations =  9.2

     total cpu time spent up to now is       10.4 secs

     total energy              =    -361.56444929 Ry
     estimated scf accuracy    <       0.73482417 Ry

     iteration #  7     ecut=    50.00 Ry     beta= 0.30
     Davidson diagonalization with overlap
     ethr =  1.78E-04,  avg # of iterations =  7.1

     total cpu time spent up to now is       12.3 secs

     total energy              =    -361.63298481 Ry
     estimated scf accuracy    <       0.05029147 Ry

     iteration #  8     ecut=    50.00 Ry     beta= 0.30
     Davidson diagonalization with overlap
     ethr =  1.40E-04,  avg # of iterations =  1.5

     total cpu time spent up to now is       13.2 secs

     total energy              =    -361.63278124 Ry
     estimated scf accuracy    <       0.03178447 Ry

     iteration #  9     ecut=    50.00 Ry     beta= 0.30
     Davidson diagonalization with overlap
     ethr =  8.83E-05,  avg # of iterations =  1.3

     total cpu time spent up to now is       14.0 secs

     total energy              =    -361.62103094 Ry
     estimated scf accuracy    <       0.02468133 Ry

     iteration # 10     ecut=    50.00 Ry     beta= 0.30
     Davidson diagonalization with overlap
     ethr =  6.86E-05,  avg # of iterations =  5.2

     total cpu time spent up to now is       15.5 secs

     total energy              =    -361.63231226 Ry
     estimated scf accuracy    <       0.00338923 Ry

     iteration # 11     ecut=    50.00 Ry     beta= 0.30
     Davidson diagonalization with overlap
     ethr =  9.41E-06,  avg # of iterations =  3.2

     total cpu time spent up to now is       16.5 secs

     total energy              =    -361.63269043 Ry
     estimated scf accuracy    <       0.00281497 Ry

     iteration # 12     ecut=    50.00 Ry     beta= 0.30
     Davidson diagonalization with overlap
     ethr =  7.82E-06,  avg # of iterations =  1.0

     total cpu time spent up to now is       17.3 secs

     total energy              =    -361.63176651 Ry
     estimated scf accuracy    <       0.00284531 Ry

     iteration # 13     ecut=    50.00 Ry     beta= 0.30
     Davidson diagonalization with overlap
     ethr =  7.82E-06,  avg # of iterations =  1.5

     total cpu time spent up to now is       18.1 secs

     total energy              =    -361.63164789 Ry
     estimated scf accuracy    <       0.00106001 Ry

     iteration # 14     ecut=    50.00 Ry     beta= 0.30
     Davidson diagonalization with overlap
     ethr =  2.94E-06,  avg # of iterations =  3.9

     total cpu time spent up to now is       19.3 secs

     total energy              =    -361.63196679 Ry
     estimated scf accuracy    <       0.00003413 Ry

     iteration # 15     ecut=    50.00 Ry     beta= 0.30
     Davidson diagonalization with overlap
     ethr =  9.48E-08,  avg # of iterations =  7.8

     total cpu time spent up to now is       21.2 secs

     total energy              =    -361.63204009 Ry
     estimated scf accuracy    <       0.00001928 Ry

     iteration # 16     ecut=    50.00 Ry     beta= 0.30
     Davidson diagonalization with overlap
     ethr =  5.35E-08,  avg # of iterations =  5.4

     total cpu time spent up to now is       22.7 secs

     total energy              =    -361.63201821 Ry
     estimated scf accuracy    <       0.00012230 Ry

     iteration # 17     ecut=    50.00 Ry     beta= 0.30
     Davidson diagonalization with overlap
     ethr =  5.35E-08,  avg # of iterations =  2.3

     total cpu time spent up to now is       23.7 secs

     total energy              =    -361.63198461 Ry
     estimated scf accuracy    <       0.00006140 Ry

     iteration # 18     ecut=    50.00 Ry     beta= 0.30
     Davidson diagonalization with overlap
     ethr =  5.35E-08,  avg # of iterations =  8.1

     total cpu time spent up to now is       25.8 secs

     total energy              =    -361.63202838 Ry
     estimated scf accuracy    <       0.00003324 Ry

     iteration # 19     ecut=    50.00 Ry     beta= 0.30
     Davidson diagonalization with overlap
     ethr =  5.35E-08,  avg # of iterations =  1.3

     total cpu time spent up to now is       26.6 secs

     total energy              =    -361.63201454 Ry
     estimated scf accuracy    <       0.00003952 Ry

     iteration # 20     ecut=    50.00 Ry     beta= 0.30
     Davidson diagonalization with overlap
     ethr =  5.35E-08,  avg # of iterations =  2.0

     total cpu time spent up to now is       27.5 secs

     total energy              =    -361.63201485 Ry
     estimated scf accuracy    <       0.00001512 Ry

     iteration # 21     ecut=    50.00 Ry     beta= 0.30
     Davidson diagonalization with overlap
     ethr =  4.20E-08,  avg # of iterations =  2.1

     total cpu time spent up to now is       28.5 secs

     total energy              =    -361.63201616 Ry
     estimated scf accuracy    <       0.00000710 Ry

     iteration # 22     ecut=    50.00 Ry     beta= 0.30
     Davidson diagonalization with overlap
     ethr =  1.97E-08,  avg # of iterations =  2.1

     total cpu time spent up to now is       29.4 secs

     total energy              =    -361.63201694 Ry
     estimated scf accuracy    <       0.00000515 Ry

     iteration # 23     ecut=    50.00 Ry     beta= 0.30
     Davidson diagonalization with overlap
     ethr =  1.43E-08,  avg # of iterations =  1.4

     total cpu time spent up to now is       30.2 secs

     total energy              =    -361.63201756 Ry
     estimated scf accuracy    <       0.00000494 Ry

     iteration # 24     ecut=    50.00 Ry     beta= 0.30
     Davidson diagonalization with overlap
     ethr =  1.37E-08,  avg # of iterations =  1.0

     total cpu time spent up to now is       31.0 secs

     total energy              =    -361.63201859 Ry
     estimated scf accuracy    <       0.00000546 Ry

     iteration # 25     ecut=    50.00 Ry     beta= 0.30
     Davidson diagonalization with overlap
     ethr =  1.37E-08,  avg # of iterations =  1.0

     total cpu time spent up to now is       31.9 secs

     total energy              =    -361.63201565 Ry
     estimated scf accuracy    <       0.00000755 Ry

     iteration # 26     ecut=    50.00 Ry     beta= 0.30
     Davidson diagonalization with overlap
     ethr =  1.37E-08,  avg # of iterations =  2.0

     total cpu time spent up to now is       32.8 secs

     total energy              =    -361.63201655 Ry
     estimated scf accuracy    <       0.00000234 Ry

     iteration # 27     ecut=    50.00 Ry     beta= 0.30
     Davidson diagonalization with overlap
     ethr =  6.51E-09,  avg # of iterations =  1.7

     total cpu time spent up to now is       33.7 secs

     total energy              =    -361.63201587 Ry
     estimated scf accuracy    <       0.00000257 Ry

     iteration # 28     ecut=    50.00 Ry     beta= 0.30
     Davidson diagonalization with overlap
     ethr =  6.51E-09,  avg # of iterations =  2.8

     total cpu time spent up to now is       34.7 secs

     total energy              =    -361.63201625 Ry
     estimated scf accuracy    <       0.00000061 Ry

     iteration # 29     ecut=    50.00 Ry     beta= 0.30
     Davidson diagonalization with overlap
     ethr =  1.71E-09,  avg # of iterations =  4.8

     total cpu time spent up to now is       36.0 secs

     total energy              =    -361.63201647 Ry
     estimated scf accuracy    <       0.00000007 Ry

     iteration # 30     ecut=    50.00 Ry     beta= 0.30
     Davidson diagonalization with overlap
     ethr =  1.98E-10,  avg # of iterations =  6.0

     total cpu time spent up to now is       37.5 secs

     total energy              =    -361.63201651 Ry
     estimated scf accuracy    <       0.00000001 Ry

     iteration # 31     ecut=    50.00 Ry     beta= 0.30
     Davidson diagonalization with overlap
     ethr =  3.87E-11,  avg # of iterations =  7.3

     total cpu time spent up to now is       39.4 secs

     total energy              =    -361.63201653 Ry
     estimated scf accuracy    <       0.00000005 Ry

     iteration # 32     ecut=    50.00 Ry     beta= 0.30
     Davidson diagonalization with overlap
     ethr =  3.87E-11,  avg # of iterations =  1.0

     total cpu time spent up to now is       40.2 secs

     total energy              =    -361.63201653 Ry
     estimated scf accuracy    <       0.00000005 Ry

     iteration # 33     ecut=    50.00 Ry     beta= 0.30
     Davidson diagonalization with overlap
     ethr =  3.87E-11,  avg # of iterations =  1.0

     total cpu time spent up to now is       41.1 secs

     total energy              =    -361.63201652 Ry
     estimated scf accuracy    <       0.00000005 Ry

     iteration # 34     ecut=    50.00 Ry     beta= 0.30
     Davidson diagonalization with overlap
     ethr =  3.87E-11,  avg # of iterations =  2.0

     total cpu time spent up to now is       42.0 secs

     total energy              =    -361.63201651 Ry
     estimated scf accuracy    <       0.00000003 Ry

     iteration # 35     ecut=    50.00 Ry     beta= 0.30
     Davidson diagonalization with overlap
     ethr =  3.87E-11,  avg # of iterations =  2.0

     total cpu time spent up to now is       42.9 secs

     total energy              =    -361.63201651 Ry
     estimated scf accuracy    <       0.00000002 Ry

     iteration # 36     ecut=    50.00 Ry     beta= 0.30
     Davidson diagonalization with overlap
     ethr =  3.87E-11,  avg # of iterations =  1.0

     total cpu time spent up to now is       43.7 secs

     total energy              =    -361.63201651 Ry
     estimated scf accuracy    <       0.00000001 Ry

     iteration # 37     ecut=    50.00 Ry     beta= 0.30
     Davidson diagonalization with overlap
     ethr =  3.87E-11,  avg # of iterations =  1.5

     total cpu time spent up to now is       44.6 secs

     End of self-consistent calculation

          k = 0.0000 0.0000 0.0000 (  1875 PWs)   bands (ev):

   -10.7071  -9.9051   1.7182   1.7182   1.8886   1.8919   1.8919   1.8975
     2.9520   2.9520   3.1941   3.1941   3.4911   6.6453   6.6453   7.3848
     7.4712   7.4712

          k = 0.0000 0.0000 0.1075 (  1851 PWs)   bands (ev):

   -10.6558  -9.9612   1.7220   1.7220   1.7508   1.8321   1.8719   1.8719
     2.9759   2.9759   3.1863   3.1863   3.8255   6.7023   6.7023   6.8526
     7.4180   7.4180

          k = 0.0000 0.0000 0.2151 (  1864 PWs)   bands (ev):

   -10.5140 -10.1130   1.5824   1.6849   1.7377   1.7377   1.8235   1.8235
     3.0351   3.0351   3.1572   3.1572   4.5352   6.0989   6.8570   6.8570
     7.2708   7.2708

          k = 0.0000 0.0000-0.3226 (  1858 PWs)   bands (ev):

   -10.3160 -10.3160   1.5672   1.5672   1.7727   1.7727   1.7727   1.7727
     3.1037   3.1037   3.1037   3.1037   5.3264   5.3264   7.0658   7.0658
     7.0658   7.0658

          k = 0.0000 0.1925 0.0000 (  1868 PWs)   bands (ev):

   -10.5608  -9.8507   1.5695   1.8105   1.8527   1.9847   2.0182   2.0945
     2.8937   2.9480   3.2089   3.3363   3.4667   5.7465   6.2745   6.3623
     7.1985   7.2641

          k = 0.0000 0.1925 0.1075 (  1874 PWs)   bands (ev):

   -10.5144  -9.8992   1.5420   1.7317   1.8166   1.9444   1.9954   2.0166
     2.9320   2.9707   3.1970   3.2556   3.8857   5.8112   6.1927   6.3438
     7.1645   7.2007

          k = 0.0000 0.1925 0.2151 (  1882 PWs)   bands (ev):

   -10.3867 -10.0312   1.4677   1.5213   1.8388   1.8947   1.9408   1.9411
     3.0188   3.0290   3.1598   3.1947   4.5858   5.7077   6.1524   6.5308
     6.9325   7.0254

          k = 0.0000 0.1925-0.3226 (  1894 PWs)   bands (ev):

   -10.2101 -10.2101   1.4307   1.4307   1.8818   1.8818   1.8953   1.8953
     3.0996   3.0996   3.1148   3.1148   5.2277   5.2277   6.5254   6.5254
     6.7810   6.7810

          k = 0.0000 0.3849 0.0000 (  1890 PWs)   bands (ev):

   -10.2288  -9.7668   1.4212   1.7764   1.9697   2.1833   2.3289   2.5242
     2.8408   3.0188   3.2314   3.3859   3.6677   4.3600   5.1638   5.5126
     6.6739   6.8112

          k = 0.0000 0.3849 0.1075 (  1895 PWs)   bands (ev):

   -10.1963  -9.7957   1.3827   1.6627   1.9863   2.1376   2.2955   2.3643
     2.9107   3.0321   3.2144   3.3479   3.9171   4.5208   5.1431   5.6098
     6.7281   6.7306

          k = 0.0000 0.3849 0.2151 (  1892 PWs)   bands (ev):

   -10.1083  -9.8765   1.3056   1.4310   2.0364   2.0927   2.1994   2.2127
     3.0376   3.0686   3.1719   3.2709   4.1986   4.6037   5.5334   5.8644
     6.5073   6.6596

          k = 0.0000 0.3849-0.3226 (  1880 PWs)   bands (ev):

    -9.9906  -9.9906   1.2946   1.2946   2.1127   2.1127   2.1166   2.1166
     3.1194   3.1194   3.1646   3.1646   4.4225   4.4225   6.1932   6.1932
     6.2202   6.2202

          k = 0.0000-0.5774 0.0000 (  1906 PWs)   bands (ev):

   -10.0141  -9.7657   1.5086   1.6735   2.0267   2.3348   2.5308   2.5411
     3.0199   3.1187   3.2431   3.2977   3.8212   3.8288   4.6700   5.0837
     6.2502   6.5629

          k = 0.0000-0.5774 0.1075 (  1892 PWs)   bands (ev):

    -9.9944  -9.7789   1.4506   1.5659   2.0515   2.2879   2.4784   2.4858
     3.0872   3.1231   3.2238   3.2992   3.7707   3.8040   5.0010   5.2026
     6.3643   6.4742

          k = 0.0000-0.5774 0.2151 (  1884 PWs)   bands (ev):

    -9.9425  -9.8177   1.3298   1.3671   2.1246   2.2550   2.3641   2.3722
     3.1356   3.1872   3.1881   3.2909   3.7282   3.7693   5.5033   5.6640
     6.2278   6.4788

          k = 0.0000-0.5774-0.3226 (  1892 PWs)   bands (ev):

    -9.8768  -9.8768   1.2725   1.2725   2.2382   2.2382   2.2821   2.2821
     3.1563   3.1563   3.2570   3.2570   3.7373   3.7373   5.8778   5.8778
     6.2490   6.2490

          k = 0.1667 0.2887 0.0000 (  1875 PWs)   bands (ev):

   -10.3200  -9.7822   1.5156   1.7606   1.9786   2.0304   2.2888   2.3924
     2.8446   2.9691   3.2247   3.4008   3.6318   4.9297   5.1683   5.6945
     6.7757   6.8573

          k = 0.1667 0.2887 0.1075 (  1893 PWs)   bands (ev):

   -10.2832  -9.8170   1.4776   1.6777   1.9617   1.9987   2.2344   2.2533
     2.9004   3.0029   3.2093   3.3387   3.9907   5.0845   5.1553   5.6813
     6.6906   6.8884

          k = 0.1667 0.2887 0.2151 (  1891 PWs)   bands (ev):

   -10.1828  -9.9131   1.3931   1.4731   1.9560   1.9583   2.1123   2.1771
     3.0206   3.0537   3.1700   3.2597   4.4600   5.0156   5.5933   5.8236
     6.4618   6.7668

          k = 0.1667 0.2887-0.3226 (  1892 PWs)   bands (ev):

   -10.0470 -10.0470   1.3609   1.3609   1.9531   1.9531   2.1100   2.1100
     3.1058   3.1058   3.1578   3.1578   4.7747   4.7747   6.0865   6.0865
     6.3305   6.3305

          k = 0.1667 0.4811 0.0000 (  1892 PWs)   bands (ev):

   -10.0224  -9.7608   1.6126   1.8472   2.0189   2.2137   2.5648   2.6186
     2.9106   3.0277   3.2494   3.4113   3.5949   4.2213   4.5025   4.9343
     6.1504   6.3158

          k = 0.1667 0.4811 0.1075 (  1897 PWs)   bands (ev):

   -10.0019  -9.7750   1.5625   1.7517   2.0024   2.1890   2.4672   2.5039
     2.9549   3.0880   3.2398   3.4268   3.6498   4.2245   4.6214   5.1726
     6.0889   6.3934

          k = 0.1667 0.4811 0.2151 (  1898 PWs)   bands (ev):

    -9.9478  -9.8164   1.4519   1.5332   2.0312   2.1521   2.3204   2.3776
     3.0513   3.1132   3.2480   3.3788   3.8046   4.1171   4.9647   5.6718
     5.8976   6.5155

          k = 0.1667 0.4811-0.3226 (  1898 PWs)   bands (ev):

    -9.8789  -9.8789   1.4113   1.4113   2.0999   2.0999   2.2932   2.2932
     3.1034   3.1034   3.3043   3.3043   3.9676   3.9676   5.3796   5.3796
     6.3294   6.3294

          k = 0.3333 0.5774 0.0000 (  1881 PWs)   bands (ev):

    -9.8388  -9.8388   1.7627   2.0454   2.0454   2.4824   2.8451   2.8451
     2.8866   2.9774   2.9774   3.0381   3.6181   3.9506   3.9506   5.5881
     5.5881   5.6577

          k = 0.3333 0.5774 0.1075 (  1881 PWs)   bands (ev):

    -9.8350  -9.8350   1.7875   1.9478   1.9478   2.3728   2.6175   2.6175
     2.9054   3.0296   3.2246   3.2246   3.7942   3.9139   3.9139   5.5255
     5.7925   5.7925

          k = 0.3333 0.5774 0.2151 (  1896 PWs)   bands (ev):

    -9.8274  -9.8274   1.7422   1.7422   1.8633   2.1721   2.4836   2.4836
     2.9381   3.0062   3.4271   3.4271   3.8472   3.8472   4.2031   5.1724
     6.1842   6.1842

          k = 0.3333 0.5774-0.3226 (  1878 PWs)   bands (ev):

    -9.8236  -9.8236   1.6431   1.6431   1.9928   1.9928   2.4506   2.4506
     2.9736   2.9736   3.5032   3.5032   3.8121   3.8121   4.6969   4.6969
     6.3754   6.3754

     highest occupied level (ev):     7.4712

!    total energy              =    -361.63201651 Ry
     estimated scf accuracy    <          6.0E-09 Ry

     The total energy is the sum of the following terms:
     one-electron contribution =    -149.91602769 Ry
     hartree contribution      =     116.68200940 Ry
     xc contribution           =    -109.63096443 Ry
     ewald contribution        =    -218.76703379 Ry

     convergence has been achieved in  37 iterations

     Forces acting on atoms (cartesian axes, Ry/au):

     atom    1 type  1   force =     0.00000000    0.00000000    0.00255551
     atom    2 type  2   force =     0.00000000    0.00000000   -0.00255551
     atom    3 type  1   force =     0.00000000   -0.00000000    0.00255551
     atom    4 type  2   force =     0.00000000   -0.00000000   -0.00255551
     The non-local contrib.  to forces
     atom    1 type  1   force =     0.00000000   -0.00000000    0.07068071
     atom    2 type  2   force =     0.00000000    0.00000000    0.04896293
     atom    3 type  1   force =     0.00000000   -0.00000000    0.07068071
     atom    4 type  2   force =     0.00000000    0.00000000    0.04896293
     The ionic contribution  to forces
     atom    1 type  1   force =    -0.00000000    0.00000000    0.42771420
     atom    2 type  2   force =     0.00000000   -0.00000000   -0.42771420
     atom    3 type  1   force =     0.00000000   -0.00000000    0.42771420
     atom    4 type  2   force =    -0.00000000    0.00000000   -0.42771420
     The local contribution  to forces
     atom    1 type  1   force =     0.00000000   -0.00000000   -0.49083751
     atom    2 type  2   force =     0.00000001   -0.00000001    0.37655189
     atom    3 type  1   force =     0.00000004   -0.00000002   -0.49083751
     atom    4 type  2   force =     0.00000000   -0.00000000    0.37655190
     The core correction contribution to forces
     atom    1 type  1   force =     0.00000000   -0.00000000   -0.00500779
     atom    2 type  2   force =    -0.00000000    0.00000000   -0.00035809
     atom    3 type  1   force =     0.00000001   -0.00000000   -0.00500779
     atom    4 type  2   force =    -0.00000000    0.00000000   -0.00035809
     The Hubbard contrib.    to forces
     atom    1 type  1   force =     0.00000000    0.00000000    0.00000000
     atom    2 type  2   force =     0.00000000    0.00000000    0.00000000
     atom    3 type  1   force =     0.00000000    0.00000000    0.00000000
     atom    4 type  2   force =     0.00000000    0.00000000    0.00000000
     The SCF correction term to forces
     atom    1 type  1   force =    -0.00000000    0.00000000    0.00000520
     atom    2 type  2   force =    -0.00000000    0.00000000    0.00000127
     atom    3 type  1   force =     0.00000000   -0.00000000    0.00000520
     atom    4 type  2   force =    -0.00000000    0.00000000    0.00000127

     Total force =     0.005111     Total SCF correction =     0.000008

     Writing all to output data dir ./ZnO-3.27-1.55-111.in.save/

     init_run     :      1.84s CPU      1.17s WALL (       1 calls)
     electrons    :    118.26s CPU     43.11s WALL (       1 calls)
     forces       :      0.79s CPU      0.32s WALL (       1 calls)

     Called by init_run:
     wfcinit      :      1.07s CPU      0.40s WALL (       1 calls)
     potinit      :      0.23s CPU      0.23s WALL (       1 calls)
     hinit0       :      0.41s CPU      0.42s WALL (       1 calls)

     Called by electrons:
     c_bands      :     93.33s CPU     33.62s WALL (      37 calls)
     sum_band     :     18.42s CPU      6.89s WALL (      37 calls)
     v_of_rho     :      1.44s CPU      0.63s WALL (      38 calls)
     newd         :      4.76s CPU      1.85s WALL (      38 calls)
     mix_rho      :      0.23s CPU      0.11s WALL (      37 calls)

     Called by c_bands:
     init_us_2    :      1.57s CPU      0.52s WALL (    2128 calls)
     init_us_2:cp :      1.55s CPU      0.52s WALL (    2128 calls)
     cegterg      :     89.90s CPU     32.35s WALL (    1036 calls)

     Called by *egterg:
     cdiaghg      :     12.46s CPU      4.11s WALL (    4459 calls)
     h_psi        :     58.85s CPU     24.03s WALL (    4487 calls)
     s_psi        :      1.41s CPU      0.40s WALL (    4487 calls)
     g_psi        :      0.40s CPU      0.10s WALL (    3423 calls)

     Called by h_psi:
     h_psi:calbec :      2.47s CPU      0.85s WALL (    4487 calls)
     vloc_psi     :     54.42s CPU     22.57s WALL (    4487 calls)
     add_vuspsi   :      1.46s CPU      0.45s WALL (    4487 calls)

     General routines
     calbec       :      3.37s CPU      1.13s WALL (    5635 calls)
     fft          :      0.92s CPU      0.50s WALL (     503 calls)
     ffts         :      0.15s CPU      0.12s WALL (      75 calls)
     fftw         :     55.67s CPU     23.18s WALL (  129666 calls)
     interpolate  :      0.18s CPU      0.14s WALL (      38 calls)

     Parallel routines

     PWSCF        :   2m 1.28s CPU     45.04s WALL


   This run was terminated on:  12:52:12   8Jul2025            

=------------------------------------------------------------------------------=
   JOB DONE.
=------------------------------------------------------------------------------=
Note: The following floating-point exceptions are signalling: IEEE_INVALID_FLAG
