Authorization required, but no authorization protocol specified

Authorization required, but no authorization protocol specified

Authorization required, but no authorization protocol specified

Authorization required, but no authorization protocol specified

Authorization required, but no authorization protocol specified

Authorization required, but no authorization protocol specified

Authorization required, but no authorization protocol specified

Authorization required, but no authorization protocol specified

Authorization required, but no authorization protocol specified

Authorization required, but no authorization protocol specified


     Program PWSCF v.7.2 starts on  8Jul2025 at 13:43:50 

     This program is part of the open-source Quantum ESPRESSO suite
     for quantum simulation of materials; please cite
         "P. Giannozzi et al., J. Phys.:Condens. Matter 21 395502 (2009);
         "P. Giannozzi et al., J. Phys.:Condens. Matter 29 465901 (2017);
         "P. Giannozzi et al., J. Chem. Phys. 152 154105 (2020);
          URL http://www.quantum-espresso.org", 
     in publications or presentations arising from this work. More details at
     http://www.quantum-espresso.org/quote

     Parallel version (MPI), running on     8 processors

     MPI processes distributed on     1 nodes
     51227 MiB available memory on the printing compute node when the environment starts

     Reading input from /home/jvc/QEspresso7.2/ZnO_database/scripts/cell111_strain10%.in/ZnO-3.60-1.68-111.in
Warning: card &CELL ignored
Warning: card / ignored
Warning: card &FCP ignored
Warning: card / ignored
Warning: card &RISM ignored
Warning: card / ignored

     Current dimensions of program PWSCF are:
     Max number of different atomic species (ntypx) = 10
     Max number of k-points (npk) =  40000
     Max angular momentum in pseudopotentials (lmaxx) =  4
     file Zn.upf: wavefunction(s)  3D renormalized
     Message from routine setup:
     using ibrav=0 with symmetry is DISCOURAGED, use correct ibrav instead

     R & G space division:  proc/nbgrp/npool/nimage =       8
     Subspace diagonalization in iterative solution of the eigenvalue problem:
     a serial algorithm will be used


     Parallelization info
     --------------------
     sticks:   dense  smooth     PW     G-vecs:    dense   smooth      PW
     Min         160      81     24                 7716     2723     452
     Max         162      82     26                 7717     2725     454
     Sum        1285     649    199                61729    21795    3623

     Using Slab Decomposition



     bravais-lattice index     =            0
     lattice parameter (alat)  =       6.7967  a.u.
     unit-cell volume          =     456.5263 (a.u.)^3
     number of atoms/cell      =            4
     number of atomic types    =            2
     number of electrons       =        36.00
     number of Kohn-Sham states=           18
     kinetic-energy cutoff     =      50.0000  Ry
     charge density cutoff     =     400.0000  Ry
     scf convergence threshold =      1.0E-08
     mixing beta               =       0.3000
     number of iterations used =            8  plain     mixing
     Exchange-correlation= PBE
                           (   1   4   3   4   0   0   0)

     celldm(1)=   6.796739  celldm(2)=   0.000000  celldm(3)=   0.000000
     celldm(4)=   0.000000  celldm(5)=   0.000000  celldm(6)=   0.000000

     crystal axes: (cart. coord. in units of alat)
               a(1) = (   1.000000   0.000000   0.000000 )  
               a(2) = (  -0.500000   0.866025   0.000000 )  
               a(3) = (   0.000000   0.000000   1.678933 )  

     reciprocal axes: (cart. coord. in units 2 pi/alat)
               b(1) = (  1.000000  0.577350 -0.000000 )  
               b(2) = (  0.000000  1.154701  0.000000 )  
               b(3) = (  0.000000 -0.000000  0.595616 )  


     PseudoPot. # 1 for Zn read from file:
     /home/jvc/QEspresso7.2/ZnO_database/pseudos/Zn.upf
     MD5 check sum: 7f56cabf9682ed8c977c2f7d0c5985c5
     Pseudo is Ultrasoft + core correction, Zval = 12.0
     Generated using &quot;atomic&quot; code by A. Dal Corso  v.6.2.2
     Using radial grid of 1201 points,  6 beta functions with: 
                l(1) =   0
                l(2) =   0
                l(3) =   1
                l(4) =   1
                l(5) =   2
                l(6) =   2
     Q(r) pseudized with 0 coefficients 


     PseudoPot. # 2 for O  read from file:
     /home/jvc/QEspresso7.2/ZnO_database/pseudos/O.upf
     MD5 check sum: 91400c9766925bcf19f520983a725ff0
     Pseudo is Ultrasoft + core correction, Zval =  6.0
     Generated using &quot;atomic&quot; code by A. Dal Corso  v.6.3MaX
     Using radial grid of 1095 points,  4 beta functions with: 
                l(1) =   0
                l(2) =   0
                l(3) =   1
                l(4) =   1
     Q(r) pseudized with 0 coefficients 


     atomic species   valence    mass     pseudopotential
        Zn            12.00    65.38000     Zn( 1.00)
        O              6.00    15.99900     O ( 1.00)

     12 Sym. Ops. (no inversion) found ( 6 have fractional translation)



   Cartesian axes

     site n.     atom                  positions (alat units)
         1           Zn  tau(   1) = (   0.0000000   0.0000000   0.0000000  )
         2           O   tau(   2) = (  -0.0000000   0.5773503   0.2211943  )
         3           Zn  tau(   3) = (  -0.0000000   0.5773503   0.8394663  )
         4           O   tau(   4) = (   0.0000000   0.0000000   1.0606607  )

     number of k points=    28
                       cart. coord. in units 2pi/alat
        k(    1) = (   0.0000000   0.0000000   0.0000000), wk =   0.0092593
        k(    2) = (   0.0000000   0.0000000   0.0992694), wk =   0.0185185
        k(    3) = (   0.0000000   0.0000000   0.1985388), wk =   0.0185185
        k(    4) = (   0.0000000   0.0000000  -0.2978082), wk =   0.0092593
        k(    5) = (   0.0000000   0.1924501   0.0000000), wk =   0.0555556
        k(    6) = (   0.0000000   0.1924501   0.0992694), wk =   0.1111111
        k(    7) = (   0.0000000   0.1924501   0.1985388), wk =   0.1111111
        k(    8) = (   0.0000000   0.1924501  -0.2978082), wk =   0.0555556
        k(    9) = (   0.0000000   0.3849002   0.0000000), wk =   0.0555556
        k(   10) = (   0.0000000   0.3849002   0.0992694), wk =   0.1111111
        k(   11) = (   0.0000000   0.3849002   0.1985388), wk =   0.1111111
        k(   12) = (   0.0000000   0.3849002  -0.2978082), wk =   0.0555556
        k(   13) = (   0.0000000  -0.5773503   0.0000000), wk =   0.0277778
        k(   14) = (   0.0000000  -0.5773503   0.0992694), wk =   0.0555556
        k(   15) = (   0.0000000  -0.5773503   0.1985388), wk =   0.0555556
        k(   16) = (   0.0000000  -0.5773503  -0.2978082), wk =   0.0277778
        k(   17) = (   0.1666667   0.2886751   0.0000000), wk =   0.0555556
        k(   18) = (   0.1666667   0.2886751   0.0992694), wk =   0.1111111
        k(   19) = (   0.1666667   0.2886751   0.1985388), wk =   0.1111111
        k(   20) = (   0.1666667   0.2886751  -0.2978082), wk =   0.0555556
        k(   21) = (   0.1666667   0.4811252   0.0000000), wk =   0.1111111
        k(   22) = (   0.1666667   0.4811252   0.0992694), wk =   0.2222222
        k(   23) = (   0.1666667   0.4811252   0.1985388), wk =   0.2222222
        k(   24) = (   0.1666667   0.4811252  -0.2978082), wk =   0.1111111
        k(   25) = (   0.3333333   0.5773503   0.0000000), wk =   0.0185185
        k(   26) = (   0.3333333   0.5773503   0.0992694), wk =   0.0370370
        k(   27) = (   0.3333333   0.5773503   0.1985388), wk =   0.0370370
        k(   28) = (   0.3333333   0.5773503  -0.2978082), wk =   0.0185185

     Dense  grid:    61729 G-vectors     FFT dimensions: (  45,  45,  80)

     Smooth grid:    21795 G-vectors     FFT dimensions: (  36,  36,  54)

     Estimated max dynamical RAM per process >      33.42 MB

     Estimated total dynamical RAM >     267.40 MB

     Check: negative core charge=   -0.000002

     Initial potential from superposition of free atoms

     starting charge      35.9925, renormalised to      36.0000
     Starting wfcs are   26 randomized atomic wfcs

     total cpu time spent up to now is        2.0 secs

     Self-consistent Calculation

     iteration #  1     ecut=    50.00 Ry     beta= 0.30
     Davidson diagonalization with overlap
     ethr =  1.00E-02,  avg # of iterations =  1.1

     total cpu time spent up to now is        3.2 secs

     total energy              =    -361.30660461 Ry
     estimated scf accuracy    <       0.88472643 Ry

     iteration #  2     ecut=    50.00 Ry     beta= 0.30
     Davidson diagonalization with overlap
     ethr =  2.46E-03,  avg # of iterations =  2.0

     total cpu time spent up to now is        4.7 secs

     total energy              =    -361.42270705 Ry
     estimated scf accuracy    <       0.11061456 Ry

     iteration #  3     ecut=    50.00 Ry     beta= 0.30
     Davidson diagonalization with overlap
     ethr =  3.07E-04,  avg # of iterations =  5.6

     total cpu time spent up to now is        6.7 secs

     total energy              =    -361.42538139 Ry
     estimated scf accuracy    <       0.25283070 Ry

     iteration #  4     ecut=    50.00 Ry     beta= 0.30
     Davidson diagonalization with overlap
     ethr =  3.07E-04,  avg # of iterations =  6.7

     total cpu time spent up to now is        9.1 secs

     total energy              =    -361.60409933 Ry
     estimated scf accuracy    <       0.15041299 Ry

     iteration #  5     ecut=    50.00 Ry     beta= 0.30
     Davidson diagonalization with overlap
     ethr =  3.07E-04,  avg # of iterations =  2.4

     total cpu time spent up to now is       10.4 secs

     total energy              =    -361.53351470 Ry
     estimated scf accuracy    <       0.26258439 Ry

     iteration #  6     ecut=    50.00 Ry     beta= 0.30
     Davidson diagonalization with overlap
     ethr =  3.07E-04,  avg # of iterations =  2.0

     total cpu time spent up to now is       11.7 secs

     total energy              =    -361.49221760 Ry
     estimated scf accuracy    <       0.13570009 Ry

     iteration #  7     ecut=    50.00 Ry     beta= 0.30
     Davidson diagonalization with overlap
     ethr =  3.07E-04,  avg # of iterations =  4.5

     total cpu time spent up to now is       13.3 secs

     total energy              =    -361.50889189 Ry
     estimated scf accuracy    <       0.01192166 Ry

     iteration #  8     ecut=    50.00 Ry     beta= 0.30
     Davidson diagonalization with overlap
     ethr =  3.31E-05,  avg # of iterations =  6.5

     total cpu time spent up to now is       15.3 secs

     total energy              =    -361.52147970 Ry
     estimated scf accuracy    <       0.00746124 Ry

     iteration #  9     ecut=    50.00 Ry     beta= 0.30
     Davidson diagonalization with overlap
     ethr =  2.07E-05,  avg # of iterations =  1.7

     total cpu time spent up to now is       16.5 secs

     total energy              =    -361.51985152 Ry
     estimated scf accuracy    <       0.00282066 Ry

     iteration # 10     ecut=    50.00 Ry     beta= 0.30
     Davidson diagonalization with overlap
     ethr =  7.84E-06,  avg # of iterations =  6.9

     total cpu time spent up to now is       18.7 secs

     total energy              =    -361.52425243 Ry
     estimated scf accuracy    <       0.00689714 Ry

     iteration # 11     ecut=    50.00 Ry     beta= 0.30
     Davidson diagonalization with overlap
     ethr =  7.84E-06,  avg # of iterations =  1.1

     total cpu time spent up to now is       19.9 secs

     total energy              =    -361.52175707 Ry
     estimated scf accuracy    <       0.00836978 Ry

     iteration # 12     ecut=    50.00 Ry     beta= 0.30
     Davidson diagonalization with overlap
     ethr =  7.84E-06,  avg # of iterations =  2.0

     total cpu time spent up to now is       21.3 secs

     total energy              =    -361.52120016 Ry
     estimated scf accuracy    <       0.00394048 Ry

     iteration # 13     ecut=    50.00 Ry     beta= 0.30
     Davidson diagonalization with overlap
     ethr =  7.84E-06,  avg # of iterations =  4.5

     total cpu time spent up to now is       22.8 secs

     total energy              =    -361.52179358 Ry
     estimated scf accuracy    <       0.00043222 Ry

     iteration # 14     ecut=    50.00 Ry     beta= 0.30
     Davidson diagonalization with overlap
     ethr =  1.20E-06,  avg # of iterations =  6.5

     total cpu time spent up to now is       24.6 secs

     total energy              =    -361.52207454 Ry
     estimated scf accuracy    <       0.00000212 Ry

     iteration # 15     ecut=    50.00 Ry     beta= 0.30
     Davidson diagonalization with overlap
     c_bands:  1 eigenvalues not converged
     c_bands:  1 eigenvalues not converged
     ethr =  5.89E-09,  avg # of iterations = 14.7

     total cpu time spent up to now is       29.0 secs

     total energy              =    -361.52209366 Ry
     estimated scf accuracy    <       0.00040489 Ry

     iteration # 16     ecut=    50.00 Ry     beta= 0.30
     Davidson diagonalization with overlap
     ethr =  5.89E-09,  avg # of iterations =  6.6

     total cpu time spent up to now is       31.2 secs

     total energy              =    -361.52198502 Ry
     estimated scf accuracy    <       0.00024941 Ry

     iteration # 17     ecut=    50.00 Ry     beta= 0.30
     Davidson diagonalization with overlap
     c_bands:  1 eigenvalues not converged
     c_bands:  1 eigenvalues not converged
     c_bands:  1 eigenvalues not converged
     ethr =  5.89E-09,  avg # of iterations = 14.7

     total cpu time spent up to now is       35.5 secs

     total energy              =    -361.52205337 Ry
     estimated scf accuracy    <       0.00001785 Ry

     iteration # 18     ecut=    50.00 Ry     beta= 0.30
     Davidson diagonalization with overlap
     ethr =  5.89E-09,  avg # of iterations =  5.8

     total cpu time spent up to now is       37.2 secs

     total energy              =    -361.52204636 Ry
     estimated scf accuracy    <       0.00003032 Ry

     iteration # 19     ecut=    50.00 Ry     beta= 0.30
     Davidson diagonalization with overlap
     ethr =  5.89E-09,  avg # of iterations =  6.1

     total cpu time spent up to now is       39.1 secs

     total energy              =    -361.52204883 Ry
     estimated scf accuracy    <       0.00000902 Ry

     iteration # 20     ecut=    50.00 Ry     beta= 0.30
     Davidson diagonalization with overlap
     ethr =  5.89E-09,  avg # of iterations =  1.0

     total cpu time spent up to now is       40.3 secs

     total energy              =    -361.52206683 Ry
     estimated scf accuracy    <       0.00001121 Ry

     iteration # 21     ecut=    50.00 Ry     beta= 0.30
     Davidson diagonalization with overlap
     ethr =  5.89E-09,  avg # of iterations = 11.8

     total cpu time spent up to now is       43.7 secs

     total energy              =    -361.52208320 Ry
     estimated scf accuracy    <       0.00016512 Ry

     iteration # 22     ecut=    50.00 Ry     beta= 0.30
     Davidson diagonalization with overlap
     ethr =  5.89E-09,  avg # of iterations =  1.3

     total cpu time spent up to now is       44.9 secs

     total energy              =    -361.52204479 Ry
     estimated scf accuracy    <       0.00016862 Ry

     iteration # 23     ecut=    50.00 Ry     beta= 0.30
     Davidson diagonalization with overlap
     ethr =  5.89E-09,  avg # of iterations = 10.0

     total cpu time spent up to now is       47.9 secs

     total energy              =    -361.52205679 Ry
     estimated scf accuracy    <       0.00003579 Ry

     iteration # 24     ecut=    50.00 Ry     beta= 0.30
     Davidson diagonalization with overlap
     ethr =  5.89E-09,  avg # of iterations =  1.6

     total cpu time spent up to now is       49.1 secs

     total energy              =    -361.52203911 Ry
     estimated scf accuracy    <       0.00004294 Ry

     iteration # 25     ecut=    50.00 Ry     beta= 0.30
     Davidson diagonalization with overlap
     ethr =  5.89E-09,  avg # of iterations =  9.4

     total cpu time spent up to now is       51.9 secs

     total energy              =    -361.52204614 Ry
     estimated scf accuracy    <       0.00000022 Ry

     iteration # 26     ecut=    50.00 Ry     beta= 0.30
     Davidson diagonalization with overlap
     ethr =  6.10E-10,  avg # of iterations =  8.9

     total cpu time spent up to now is       54.2 secs

     total energy              =    -361.52205205 Ry
     estimated scf accuracy    <       0.00000156 Ry

     iteration # 27     ecut=    50.00 Ry     beta= 0.30
     Davidson diagonalization with overlap
     c_bands:  1 eigenvalues not converged
     c_bands:  1 eigenvalues not converged
     c_bands:  2 eigenvalues not converged
     c_bands:  1 eigenvalues not converged
     ethr =  6.10E-10,  avg # of iterations = 15.4

     total cpu time spent up to now is       58.7 secs

     total energy              =    -361.52206920 Ry
     estimated scf accuracy    <       0.00005973 Ry

     iteration # 28     ecut=    50.00 Ry     beta= 0.30
     Davidson diagonalization with overlap
     ethr =  6.10E-10,  avg # of iterations = 12.0

     total cpu time spent up to now is       62.1 secs

     total energy              =    -361.52203687 Ry
     estimated scf accuracy    <       0.00011416 Ry

     iteration # 29     ecut=    50.00 Ry     beta= 0.30
     Davidson diagonalization with overlap
     c_bands:  1 eigenvalues not converged
     c_bands:  1 eigenvalues not converged
     c_bands:  1 eigenvalues not converged
     ethr =  6.10E-10,  avg # of iterations = 15.8

     total cpu time spent up to now is       66.9 secs

     total energy              =    -361.52204700 Ry
     estimated scf accuracy    <       0.00000647 Ry

     iteration # 30     ecut=    50.00 Ry     beta= 0.30
     Davidson diagonalization with overlap
     ethr =  6.10E-10,  avg # of iterations =  5.0

     total cpu time spent up to now is       68.4 secs

     total energy              =    -361.52204379 Ry
     estimated scf accuracy    <       0.00000503 Ry

     iteration # 31     ecut=    50.00 Ry     beta= 0.30
     Davidson diagonalization with overlap
     c_bands:  1 eigenvalues not converged
     ethr =  6.10E-10,  avg # of iterations = 14.1

     total cpu time spent up to now is       72.5 secs

     total energy              =    -361.52204521 Ry
     estimated scf accuracy    <       0.00000638 Ry

     iteration # 32     ecut=    50.00 Ry     beta= 0.30
     Davidson diagonalization with overlap
     ethr =  6.10E-10,  avg # of iterations = 10.7

     total cpu time spent up to now is       75.5 secs

     total energy              =    -361.52204615 Ry
     estimated scf accuracy    <       0.00000002 Ry

     iteration # 33     ecut=    50.00 Ry     beta= 0.30
     Davidson diagonalization with overlap
     ethr =  6.20E-11,  avg # of iterations =  6.2

     total cpu time spent up to now is       77.4 secs

     End of self-consistent calculation

          k = 0.0000 0.0000 0.0000 (  2719 PWs)   bands (ev):

   -12.9921 -12.7015  -1.8450  -1.8009  -1.8009  -1.7097  -1.7097  -1.4046
    -1.4046  -1.3375  -1.3226  -1.3226  -0.4719   2.5806   2.5806   2.8926
     3.0137   3.0137

          k = 0.0000 0.0000 0.0993 (  2732 PWs)   bands (ev):

   -12.9731 -12.7215  -1.8456  -1.7968  -1.7968  -1.7180  -1.7180  -1.4704
    -1.3978  -1.3978  -1.3267  -1.3267  -0.2265   2.2659   2.6099   2.6099
     2.9850   2.9850

          k = 0.0000 0.0000 0.1985 (  2762 PWs)   bands (ev):

   -12.9209 -12.7757  -1.8360  -1.7841  -1.7841  -1.7386  -1.7386  -1.6627
    -1.3801  -1.3801  -1.3390  -1.3390   0.2876   1.5647   2.6898   2.6898
     2.9063   2.9063

          k = 0.0000 0.0000-0.2978 (  2738 PWs)   bands (ev):

   -12.8488 -12.8488  -1.7846  -1.7846  -1.7632  -1.7632  -1.7632  -1.7632
    -1.3579  -1.3579  -1.3579  -1.3579   0.9013   0.9013   2.7984   2.7984
     2.7984   2.7984

          k = 0.0000 0.1925 0.0000 (  2729 PWs)   bands (ev):

   -12.9239 -12.6684  -1.8123  -1.8007  -1.7652  -1.6862  -1.6520  -1.4273
    -1.4039  -1.3990  -1.3196  -1.2427  -0.2761   1.7487   2.0331   2.3859
     2.7963   2.9110

          k = 0.0000 0.1925 0.0993 (  2726 PWs)   bands (ev):

   -12.9070 -12.6858  -1.8236  -1.7877  -1.7591  -1.6948  -1.6613  -1.4746
    -1.4148  -1.3974  -1.3244  -1.2880  -0.0718   1.6396   2.0355   2.4214
     2.7374   2.8761

          k = 0.0000 0.1925 0.1985 (  2732 PWs)   bands (ev):

   -12.8608 -12.7331  -1.8243  -1.7727  -1.7417  -1.7162  -1.6853  -1.6262
    -1.3898  -1.3806  -1.3385  -1.3264   0.3612   1.2973   2.1519   2.5181
     2.5741   2.7804

          k = 0.0000 0.1925-0.2978 (  2732 PWs)   bands (ev):

   -12.7972 -12.7972  -1.7926  -1.7926  -1.7151  -1.7151  -1.7122  -1.7122
    -1.3589  -1.3589  -1.3581  -1.3581   0.8443   0.8443   2.3555   2.3555
     2.6495   2.6495

          k = 0.0000 0.3849 0.0000 (  2725 PWs)   bands (ev):

   -12.7749 -12.6106  -1.7969  -1.7303  -1.7159  -1.5532  -1.5291  -1.4818
    -1.3931  -1.3675  -1.3122  -1.2034   0.1417   0.6719   1.2362   2.0067
     2.4610   2.6936

          k = 0.0000 0.3849 0.0993 (  2720 PWs)   bands (ev):

   -12.7637 -12.6214  -1.8039  -1.7367  -1.7045  -1.5580  -1.5423  -1.4970
    -1.3961  -1.3645  -1.3173  -1.2338   0.1648   0.6845   1.3145   2.0533
     2.4565   2.6477

          k = 0.0000 0.3849 0.1985 (  2720 PWs)   bands (ev):

   -12.7334 -12.6512  -1.8110  -1.7600  -1.6722  -1.5784  -1.5690  -1.5452
    -1.3761  -1.3560  -1.3296  -1.2873   0.2543   0.5809   1.6346   2.1800
     2.3480   2.5226

          k = 0.0000 0.3849-0.2978 (  2738 PWs)   bands (ev):

   -12.6921 -12.6921  -1.7950  -1.7950  -1.6265  -1.6265  -1.5721  -1.5721
    -1.3439  -1.3439  -1.3359  -1.3359   0.4062   0.4062   2.0470   2.0470
     2.3517   2.3517

          k = 0.0000-0.5774 0.0000 (  2722 PWs)   bands (ev):

   -12.6846 -12.5954  -1.7937  -1.7044  -1.6143  -1.5741  -1.4678  -1.4221
    -1.3273  -1.3036  -1.2791  -1.2644  -0.0475   0.4758   1.1285   1.8169
     2.1404   2.5806

          k = 0.0000-0.5774 0.0993 (  2724 PWs)   bands (ev):

   -12.6783 -12.6010  -1.8008  -1.6902  -1.6573  -1.5627  -1.4843  -1.4077
    -1.3268  -1.3079  -1.2907  -1.2645  -0.0750   0.3845   1.3073   1.8691
     2.1987   2.5297

          k = 0.0000-0.5774 0.1985 (  2726 PWs)   bands (ev):

   -12.6612 -12.6166  -1.8085  -1.7341  -1.6496  -1.5301  -1.5301  -1.4251
    -1.3251  -1.3156  -1.2922  -1.2670  -0.0726   0.1953   1.6948   2.0105
     2.2330   2.3910

          k = 0.0000-0.5774-0.2978 (  2724 PWs)   bands (ev):

   -12.6385 -12.6385  -1.7904  -1.7904  -1.5914  -1.5914  -1.4798  -1.4798
    -1.3216  -1.3216  -1.2766  -1.2766   0.0233   0.0233   2.0599   2.0599
     2.2014   2.2014

          k = 0.1667 0.2887 0.0000 (  2731 PWs)   bands (ev):

   -12.8148 -12.6232  -1.7626  -1.7493  -1.7400  -1.6347  -1.5512  -1.4472
    -1.4175  -1.3886  -1.3151  -1.2056   0.0532   1.0522   1.3554   1.9983
     2.5864   2.6313

          k = 0.1667 0.2887 0.0993 (  2733 PWs)   bands (ev):

   -12.8019 -12.6360  -1.7696  -1.7564  -1.7224  -1.6415  -1.5628  -1.4748
    -1.4318  -1.3758  -1.3199  -1.2407   0.1542   0.9882   1.4654   2.0181
     2.5680   2.5828

          k = 0.1667 0.2887 0.1985 (  2733 PWs)   bands (ev):

   -12.7667 -12.6709  -1.7828  -1.7487  -1.7006  -1.6544  -1.5932  -1.5799
    -1.3938  -1.3629  -1.3315  -1.2942   0.3684   0.8196   1.7596   2.1044
     2.4407   2.4535

          k = 0.1667 0.2887-0.2978 (  2728 PWs)   bands (ev):

   -12.7188 -12.7188  -1.7673  -1.7673  -1.6713  -1.6713  -1.6226  -1.6226
    -1.3549  -1.3549  -1.3373  -1.3373   0.6006   0.6006   2.1108   2.1108
     2.2982   2.2982

          k = 0.1667 0.4811 0.0000 (  2724 PWs)   bands (ev):

   -12.6869 -12.5941  -1.7883  -1.6864  -1.5952  -1.5146  -1.4801  -1.4475
    -1.3881  -1.3658  -1.2845  -1.1933   0.1633   0.5075   1.1820   1.4968
     2.1772   2.3274

          k = 0.1667 0.4811 0.0993 (  2725 PWs)   bands (ev):

   -12.6804 -12.5999  -1.7792  -1.6950  -1.6167  -1.5227  -1.4891  -1.4587
    -1.3912  -1.3526  -1.2828  -1.2033   0.1281   0.4534   1.3052   1.5890
     2.2072   2.2875

          k = 0.1667 0.4811 0.1985 (  2725 PWs)   bands (ev):

   -12.6627 -12.6162  -1.7640  -1.7093  -1.6492  -1.5469  -1.5121  -1.4882
    -1.3707  -1.3429  -1.2746  -1.2281   0.1150   0.3176   1.5460   1.8570
     2.0673   2.3002

          k = 0.1667 0.4811-0.2978 (  2722 PWs)   bands (ev):

   -12.6391 -12.6391  -1.7442  -1.7442  -1.6101  -1.6101  -1.5072  -1.5072
    -1.3494  -1.3494  -1.2555  -1.2555   0.1850   0.1850   1.8032   1.8032
     2.1711   2.1711

          k = 0.3333 0.5774 0.0000 (  2718 PWs)   bands (ev):

   -12.6145 -12.6145  -1.8101  -1.5847  -1.5847  -1.4558  -1.4313  -1.4313
    -1.3918  -1.3839  -1.2168  -1.2168   0.3918   0.3918   0.7551   1.7557
     1.7557   1.9863

          k = 0.3333 0.5774 0.0993 (  2727 PWs)   bands (ev):

   -12.6141 -12.6141  -1.7912  -1.6102  -1.6102  -1.4797  -1.4258  -1.4258
    -1.4003  -1.3860  -1.2097  -1.2097   0.3292   0.3292   0.8396   1.8770
     1.8770   1.9009

          k = 0.3333 0.5774 0.1985 (  2697 PWs)   bands (ev):

   -12.6131 -12.6131  -1.7359  -1.6550  -1.6550  -1.5558  -1.4193  -1.4193
    -1.4031  -1.3912  -1.1960  -1.1960   0.2279   0.2279   1.0651   1.6724
     2.0994   2.0994

          k = 0.3333 0.5774-0.2978 (  2694 PWs)   bands (ev):

   -12.6127 -12.6127  -1.6755  -1.6755  -1.6520  -1.6520  -1.4176  -1.4176
    -1.3980  -1.3980  -1.1896  -1.1896   0.1854   0.1854   1.3678   1.3678
     2.2043   2.2043

     highest occupied level (ev):     3.0137

!    total energy              =    -361.52204616 Ry
     estimated scf accuracy    <          6.1E-09 Ry

     The total energy is the sum of the following terms:
     one-electron contribution =    -190.02912462 Ry
     hartree contribution      =     131.28410278 Ry
     xc contribution           =    -108.98621784 Ry
     ewald contribution        =    -193.79080648 Ry

     convergence has been achieved in  33 iterations

     Forces acting on atoms (cartesian axes, Ry/au):

     atom    1 type  1   force =     0.00000000    0.00000000    0.00697954
     atom    2 type  2   force =     0.00000000    0.00000000   -0.00697954
     atom    3 type  1   force =     0.00000000    0.00000000    0.00697954
     atom    4 type  2   force =     0.00000000    0.00000000   -0.00697954
     The non-local contrib.  to forces
     atom    1 type  1   force =     0.00000000   -0.00000000   -0.04231244
     atom    2 type  2   force =     0.00000000    0.00000000   -0.04874468
     atom    3 type  1   force =     0.00000000    0.00000000   -0.04231244
     atom    4 type  2   force =     0.00000000    0.00000000   -0.04874468
     The ionic contribution  to forces
     atom    1 type  1   force =    -0.00000000    0.00000000   -0.38079705
     atom    2 type  2   force =     0.00000000   -0.00000000    0.38079705
     atom    3 type  1   force =     0.00000000   -0.00000000   -0.38079705
     atom    4 type  2   force =    -0.00000000    0.00000000    0.38079705
     The local contribution  to forces
     atom    1 type  1   force =     0.00000000    0.00000000    0.42825459
     atom    2 type  2   force =     0.00000001   -0.00000001   -0.33949446
     atom    3 type  1   force =     0.00000005   -0.00000003    0.42825459
     atom    4 type  2   force =    -0.00000000   -0.00000000   -0.33949446
     The core correction contribution to forces
     atom    1 type  1   force =    -0.00000000    0.00000000    0.00184050
     atom    2 type  2   force =    -0.00000000    0.00000000    0.00046021
     atom    3 type  1   force =     0.00000001   -0.00000000    0.00184050
     atom    4 type  2   force =    -0.00000000    0.00000000    0.00046021
     The Hubbard contrib.    to forces
     atom    1 type  1   force =     0.00000000    0.00000000    0.00000000
     atom    2 type  2   force =     0.00000000    0.00000000    0.00000000
     atom    3 type  1   force =     0.00000000    0.00000000    0.00000000
     atom    4 type  2   force =     0.00000000    0.00000000    0.00000000
     The SCF correction term to forces
     atom    1 type  1   force =    -0.00000000   -0.00000000   -0.00000906
     atom    2 type  2   force =    -0.00000000    0.00000000   -0.00000063
     atom    3 type  1   force =     0.00000000   -0.00000000   -0.00000906
     atom    4 type  2   force =    -0.00000000    0.00000000   -0.00000063

     Total force =     0.013959     Total SCF correction =     0.000013

     Writing all to output data dir ./ZnO-3.60-1.68-111.in.save/

     init_run     :      2.70s CPU      1.72s WALL (       1 calls)
     electrons    :    209.49s CPU     75.32s WALL (       1 calls)
     forces       :      0.93s CPU      0.44s WALL (       1 calls)

     Called by init_run:
     wfcinit      :      1.55s CPU      0.58s WALL (       1 calls)
     potinit      :      0.34s CPU      0.34s WALL (       1 calls)
     hinit0       :      0.59s CPU      0.60s WALL (       1 calls)

     Called by electrons:
     c_bands      :    175.94s CPU     62.91s WALL (      33 calls)
     sum_band     :     25.01s CPU      9.19s WALL (      33 calls)
     v_of_rho     :      1.68s CPU      0.73s WALL (      34 calls)
     newd         :      6.48s CPU      2.37s WALL (      34 calls)
     mix_rho      :      0.28s CPU      0.13s WALL (      33 calls)

     Called by c_bands:
     init_us_2    :      2.08s CPU      0.69s WALL (    1904 calls)
     init_us_2:cp :      2.05s CPU      0.68s WALL (    1904 calls)
     cegterg      :    171.69s CPU     61.25s WALL (     924 calls)

     Called by *egterg:
     cdiaghg      :     20.89s CPU      7.16s WALL (    7212 calls)
     h_psi        :    112.89s CPU     46.15s WALL (    7240 calls)
     s_psi        :      2.46s CPU      0.63s WALL (    7240 calls)
     g_psi        :      0.93s CPU      0.22s WALL (    6288 calls)

     Called by h_psi:
     h_psi:calbec :      4.43s CPU      1.43s WALL (    7240 calls)
     vloc_psi     :    104.87s CPU     43.70s WALL (    7240 calls)
     add_vuspsi   :      2.63s CPU      0.75s WALL (    7240 calls)

     General routines
     calbec       :      5.51s CPU      1.74s WALL (    8276 calls)
     fft          :      1.19s CPU      0.65s WALL (     451 calls)
     ffts         :      0.24s CPU      0.19s WALL (      67 calls)
     fftw         :    103.67s CPU     43.43s WALL (  158552 calls)
     interpolate  :      0.28s CPU      0.21s WALL (      34 calls)

     Parallel routines

     PWSCF        :   3m33.52s CPU   1m17.96s WALL


   This run was terminated on:  13:45: 7   8Jul2025            

=------------------------------------------------------------------------------=
   JOB DONE.
=------------------------------------------------------------------------------=
Note: The following floating-point exceptions are signalling: IEEE_INVALID_FLAG
