Authorization required, but no authorization protocol specified

Authorization required, but no authorization protocol specified

Authorization required, but no authorization protocol specified

Authorization required, but no authorization protocol specified

Authorization required, but no authorization protocol specified

Authorization required, but no authorization protocol specified

Authorization required, but no authorization protocol specified

Authorization required, but no authorization protocol specified

Authorization required, but no authorization protocol specified

Authorization required, but no authorization protocol specified


     Program PWSCF v.7.2 starts on  8Jul2025 at 12:27:28 

     This program is part of the open-source Quantum ESPRESSO suite
     for quantum simulation of materials; please cite
         "P. Giannozzi et al., J. Phys.:Condens. Matter 21 395502 (2009);
         "P. Giannozzi et al., J. Phys.:Condens. Matter 29 465901 (2017);
         "P. Giannozzi et al., J. Chem. Phys. 152 154105 (2020);
          URL http://www.quantum-espresso.org", 
     in publications or presentations arising from this work. More details at
     http://www.quantum-espresso.org/quote

     Parallel version (MPI), running on     8 processors

     MPI processes distributed on     1 nodes
     53281 MiB available memory on the printing compute node when the environment starts

     Reading input from /home/jvc/QEspresso7.2/ZnO_database/scripts/cell111_strain10%.in/ZnO-3.01-1.74-111.in
Warning: card &CELL ignored
Warning: card / ignored
Warning: card &FCP ignored
Warning: card / ignored
Warning: card &RISM ignored
Warning: card / ignored

     Current dimensions of program PWSCF are:
     Max number of different atomic species (ntypx) = 10
     Max number of k-points (npk) =  40000
     Max angular momentum in pseudopotentials (lmaxx) =  4
     file Zn.upf: wavefunction(s)  3D renormalized
     Message from routine setup:
     using ibrav=0 with symmetry is DISCOURAGED, use correct ibrav instead

     R & G space division:  proc/nbgrp/npool/nimage =       8
     Subspace diagonalization in iterative solution of the eigenvalue problem:
     a serial algorithm will be used


     Parallelization info
     --------------------
     sticks:   dense  smooth     PW     G-vecs:    dense   smooth      PW
     Min         111      54     17                 4679     1648     285
     Max         112      55     18                 4682     1653     290
     Sum         889     439    139                37443    13203    2299

     Using Slab Decomposition



     bravais-lattice index     =            0
     lattice parameter (alat)  =       5.6845  a.u.
     unit-cell volume          =     277.3586 (a.u.)^3
     number of atoms/cell      =            4
     number of atomic types    =            2
     number of electrons       =        36.00
     number of Kohn-Sham states=           18
     kinetic-energy cutoff     =      50.0000  Ry
     charge density cutoff     =     400.0000  Ry
     scf convergence threshold =      1.0E-08
     mixing beta               =       0.3000
     number of iterations used =            8  plain     mixing
     Exchange-correlation= PBE
                           (   1   4   3   4   0   0   0)

     celldm(1)=   5.684546  celldm(2)=   0.000000  celldm(3)=   0.000000
     celldm(4)=   0.000000  celldm(5)=   0.000000  celldm(6)=   0.000000

     crystal axes: (cart. coord. in units of alat)
               a(1) = (   1.000000   0.000000   0.000000 )  
               a(2) = (  -0.500000   0.866025   0.000000 )  
               a(3) = (   0.000000   0.000000   1.743507 )  

     reciprocal axes: (cart. coord. in units 2 pi/alat)
               b(1) = (  1.000000  0.577350 -0.000000 )  
               b(2) = (  0.000000  1.154701  0.000000 )  
               b(3) = (  0.000000 -0.000000  0.573557 )  


     PseudoPot. # 1 for Zn read from file:
     /home/jvc/QEspresso7.2/ZnO_database/pseudos/Zn.upf
     MD5 check sum: 7f56cabf9682ed8c977c2f7d0c5985c5
     Pseudo is Ultrasoft + core correction, Zval = 12.0
     Generated using &quot;atomic&quot; code by A. Dal Corso  v.6.2.2
     Using radial grid of 1201 points,  6 beta functions with: 
                l(1) =   0
                l(2) =   0
                l(3) =   1
                l(4) =   1
                l(5) =   2
                l(6) =   2
     Q(r) pseudized with 0 coefficients 


     PseudoPot. # 2 for O  read from file:
     /home/jvc/QEspresso7.2/ZnO_database/pseudos/O.upf
     MD5 check sum: 91400c9766925bcf19f520983a725ff0
     Pseudo is Ultrasoft + core correction, Zval =  6.0
     Generated using &quot;atomic&quot; code by A. Dal Corso  v.6.3MaX
     Using radial grid of 1095 points,  4 beta functions with: 
                l(1) =   0
                l(2) =   0
                l(3) =   1
                l(4) =   1
     Q(r) pseudized with 0 coefficients 


     atomic species   valence    mass     pseudopotential
        Zn            12.00    65.38000     Zn( 1.00)
        O              6.00    15.99900     O ( 1.00)

     12 Sym. Ops. (no inversion) found ( 6 have fractional translation)



   Cartesian axes

     site n.     atom                  positions (alat units)
         1           Zn  tau(   1) = (   0.0000000   0.0000000   0.0000000  )
         2           O   tau(   2) = (  -0.0000000   0.5773503   0.2446912  )
         3           Zn  tau(   3) = (  -0.0000000   0.5773503   0.8717535  )
         4           O   tau(   4) = (   0.0000000   0.0000000   1.1164447  )

     number of k points=    28
                       cart. coord. in units 2pi/alat
        k(    1) = (   0.0000000   0.0000000   0.0000000), wk =   0.0092593
        k(    2) = (   0.0000000   0.0000000   0.0955928), wk =   0.0185185
        k(    3) = (   0.0000000   0.0000000   0.1911855), wk =   0.0185185
        k(    4) = (   0.0000000   0.0000000  -0.2867783), wk =   0.0092593
        k(    5) = (   0.0000000   0.1924501   0.0000000), wk =   0.0555556
        k(    6) = (   0.0000000   0.1924501   0.0955928), wk =   0.1111111
        k(    7) = (   0.0000000   0.1924501   0.1911855), wk =   0.1111111
        k(    8) = (   0.0000000   0.1924501  -0.2867783), wk =   0.0555556
        k(    9) = (   0.0000000   0.3849002   0.0000000), wk =   0.0555556
        k(   10) = (   0.0000000   0.3849002   0.0955928), wk =   0.1111111
        k(   11) = (   0.0000000   0.3849002   0.1911855), wk =   0.1111111
        k(   12) = (   0.0000000   0.3849002  -0.2867783), wk =   0.0555556
        k(   13) = (   0.0000000  -0.5773503   0.0000000), wk =   0.0277778
        k(   14) = (   0.0000000  -0.5773503   0.0955928), wk =   0.0555556
        k(   15) = (   0.0000000  -0.5773503   0.1911855), wk =   0.0555556
        k(   16) = (   0.0000000  -0.5773503  -0.2867783), wk =   0.0277778
        k(   17) = (   0.1666667   0.2886751   0.0000000), wk =   0.0555556
        k(   18) = (   0.1666667   0.2886751   0.0955928), wk =   0.1111111
        k(   19) = (   0.1666667   0.2886751   0.1911855), wk =   0.1111111
        k(   20) = (   0.1666667   0.2886751  -0.2867783), wk =   0.0555556
        k(   21) = (   0.1666667   0.4811252   0.0000000), wk =   0.1111111
        k(   22) = (   0.1666667   0.4811252   0.0955928), wk =   0.2222222
        k(   23) = (   0.1666667   0.4811252   0.1911855), wk =   0.2222222
        k(   24) = (   0.1666667   0.4811252  -0.2867783), wk =   0.1111111
        k(   25) = (   0.3333333   0.5773503   0.0000000), wk =   0.0185185
        k(   26) = (   0.3333333   0.5773503   0.0955928), wk =   0.0370370
        k(   27) = (   0.3333333   0.5773503   0.1911855), wk =   0.0370370
        k(   28) = (   0.3333333   0.5773503  -0.2867783), wk =   0.0185185

     Dense  grid:    37443 G-vectors     FFT dimensions: (  45,  45,  64)

     Smooth grid:    13203 G-vectors     FFT dimensions: (  27,  27,  48)

     Estimated max dynamical RAM per process >      21.82 MB

     Estimated total dynamical RAM >     174.53 MB

     Check: negative core charge=   -0.000002

     Initial potential from superposition of free atoms

     starting charge      35.9925, renormalised to      36.0000
     Starting wfcs are   26 randomized atomic wfcs

     total cpu time spent up to now is        1.4 secs

     Self-consistent Calculation

     iteration #  1     ecut=    50.00 Ry     beta= 0.30
     Davidson diagonalization with overlap
     ethr =  1.00E-02,  avg # of iterations =  2.0

     total cpu time spent up to now is        2.2 secs

     total energy              =    -361.43767123 Ry
     estimated scf accuracy    <       0.67002206 Ry

     iteration #  2     ecut=    50.00 Ry     beta= 0.30
     Davidson diagonalization with overlap
     ethr =  1.86E-03,  avg # of iterations =  2.0

     total cpu time spent up to now is        3.2 secs

     total energy              =    -361.49898252 Ry
     estimated scf accuracy    <       0.11594208 Ry

     iteration #  3     ecut=    50.00 Ry     beta= 0.30
     Davidson diagonalization with overlap
     ethr =  3.22E-04,  avg # of iterations =  6.0

     total cpu time spent up to now is        4.7 secs

     total energy              =    -361.55466797 Ry
     estimated scf accuracy    <       0.07779657 Ry

     iteration #  4     ecut=    50.00 Ry     beta= 0.30
     Davidson diagonalization with overlap
     ethr =  2.16E-04,  avg # of iterations =  4.4

     total cpu time spent up to now is        5.8 secs

     total energy              =    -361.59378848 Ry
     estimated scf accuracy    <       0.00870310 Ry

     iteration #  5     ecut=    50.00 Ry     beta= 0.30
     Davidson diagonalization with overlap
     ethr =  2.42E-05,  avg # of iterations =  8.9

     total cpu time spent up to now is        7.9 secs

     total energy              =    -361.55689910 Ry
     estimated scf accuracy    <       0.16188995 Ry

     iteration #  6     ecut=    50.00 Ry     beta= 0.30
     Davidson diagonalization with overlap
     ethr =  2.42E-05,  avg # of iterations =  8.3

     total cpu time spent up to now is        9.9 secs

     total energy              =    -361.57622170 Ry
     estimated scf accuracy    <       0.00405064 Ry

     iteration #  7     ecut=    50.00 Ry     beta= 0.30
     Davidson diagonalization with overlap
     ethr =  1.13E-05,  avg # of iterations =  5.2

     total cpu time spent up to now is       11.2 secs

     total energy              =    -361.57790246 Ry
     estimated scf accuracy    <       0.00095142 Ry

     iteration #  8     ecut=    50.00 Ry     beta= 0.30
     Davidson diagonalization with overlap
     ethr =  2.64E-06,  avg # of iterations =  2.7

     total cpu time spent up to now is       12.2 secs

     total energy              =    -361.57769242 Ry
     estimated scf accuracy    <       0.00039984 Ry

     iteration #  9     ecut=    50.00 Ry     beta= 0.30
     Davidson diagonalization with overlap
     ethr =  1.11E-06,  avg # of iterations =  8.1

     total cpu time spent up to now is       14.1 secs

     total energy              =    -361.57732794 Ry
     estimated scf accuracy    <       0.00239843 Ry

     iteration # 10     ecut=    50.00 Ry     beta= 0.30
     Davidson diagonalization with overlap
     ethr =  1.11E-06,  avg # of iterations =  7.6

     total cpu time spent up to now is       16.0 secs

     total energy              =    -361.57799780 Ry
     estimated scf accuracy    <       0.00019460 Ry

     iteration # 11     ecut=    50.00 Ry     beta= 0.30
     Davidson diagonalization with overlap
     ethr =  5.41E-07,  avg # of iterations =  2.0

     total cpu time spent up to now is       16.8 secs

     total energy              =    -361.57799706 Ry
     estimated scf accuracy    <       0.00004970 Ry

     iteration # 12     ecut=    50.00 Ry     beta= 0.30
     Davidson diagonalization with overlap
     ethr =  1.38E-07,  avg # of iterations =  4.8

     total cpu time spent up to now is       18.1 secs

     total energy              =    -361.57802251 Ry
     estimated scf accuracy    <       0.00000009 Ry

     iteration # 13     ecut=    50.00 Ry     beta= 0.30
     Davidson diagonalization with overlap
     c_bands:  2 eigenvalues not converged
     c_bands:  1 eigenvalues not converged
     ethr =  2.51E-10,  avg # of iterations = 10.9

     total cpu time spent up to now is       20.5 secs

     total energy              =    -361.57802417 Ry
     estimated scf accuracy    <       0.00000040 Ry

     iteration # 14     ecut=    50.00 Ry     beta= 0.30
     Davidson diagonalization with overlap
     ethr =  2.51E-10,  avg # of iterations =  1.2

     total cpu time spent up to now is       21.2 secs

     total energy              =    -361.57802406 Ry
     estimated scf accuracy    <       0.00000031 Ry

     iteration # 15     ecut=    50.00 Ry     beta= 0.30
     Davidson diagonalization with overlap
     ethr =  2.51E-10,  avg # of iterations =  4.7

     total cpu time spent up to now is       22.4 secs

     total energy              =    -361.57802412 Ry
     estimated scf accuracy    <       0.00000004 Ry

     iteration # 16     ecut=    50.00 Ry     beta= 0.30
     Davidson diagonalization with overlap
     ethr =  1.05E-10,  avg # of iterations =  2.0

     total cpu time spent up to now is       23.3 secs

     total energy              =    -361.57802409 Ry
     estimated scf accuracy    <       0.00000008 Ry

     iteration # 17     ecut=    50.00 Ry     beta= 0.30
     Davidson diagonalization with overlap
     ethr =  1.05E-10,  avg # of iterations =  4.5

     total cpu time spent up to now is       24.5 secs

     End of self-consistent calculation

          k = 0.0000 0.0000 0.0000 (  1631 PWs)   bands (ev):

    -9.7012  -8.8498   2.4686   2.9205   3.2413   3.2413   3.5351   3.5351
     4.7943   4.7943   5.0415   5.0415   5.2746   8.7379   8.7379   9.4671
     9.7028   9.7028

          k = 0.0000 0.0000 0.0956 (  1654 PWs)   bands (ev):

    -9.6486  -8.9118   2.4549   2.8602   3.2555   3.2555   3.5089   3.5089
     4.8140   4.8140   5.0292   5.0292   5.5244   8.8031   8.8031   8.8789
     9.6387   9.6387

          k = 0.0000 0.0000 0.1912 (  1660 PWs)   bands (ev):

    -9.5018  -9.0770   2.4661   2.7142   3.2986   3.2986   3.4438   3.4438
     4.8668   4.8668   4.9914   4.9914   6.1727   7.9688   8.9811   8.9811
     9.4634   9.4634

          k = 0.0000 0.0000-0.2868 (  1642 PWs)   bands (ev):

    -9.2939  -9.2939   2.5590   2.5590   3.3657   3.3657   3.3657   3.3657
     4.9333   4.9333   4.9333   4.9333   7.0360   7.0360   9.2229   9.2229
     9.2229   9.2229

          k = 0.0000 0.1925 0.0000 (  1663 PWs)   bands (ev):

    -9.4915  -8.7390   2.7583   3.0266   3.0669   3.3162   3.4763   3.6775
     4.6928   4.7988   5.0356   5.0510   5.2744   7.7210   8.3691   8.5771
     9.2876   9.5167

          k = 0.0000 0.1925 0.0956 (  1669 PWs)   bands (ev):

    -9.4441  -8.7925   2.6841   2.8757   3.1676   3.3350   3.4741   3.6468
     4.7259   4.8172   5.0355   5.0397   5.5334   7.7870   8.4080   8.4487
     9.1165   9.4415

          k = 0.0000 0.1925 0.1912 (  1668 PWs)   bands (ev):

    -9.3123  -8.9364   2.5826   2.7012   3.2618   3.3899   3.4306   3.5685
     4.8054   4.8664   4.9894   4.9925   6.2248   7.7705   8.1233   8.6636
     8.7502   9.2356

          k = 0.0000 0.1925-0.2868 (  1666 PWs)   bands (ev):

    -9.1274  -9.1274   2.5857   2.5857   3.3515   3.3515   3.4734   3.4734
     4.9024   4.9024   4.9310   4.9310   7.0662   7.0662   8.3774   8.3774
     8.9517   8.9517

          k = 0.0000 0.3849 0.0000 (  1655 PWs)   bands (ev):

    -9.0192  -8.5335   2.5907   3.0581   3.4105   3.4923   3.6688   4.0168
     4.6669   4.9282   4.9748   5.0805   5.4718   6.0553   7.3627   7.5886
     8.5818   9.0994

          k = 0.0000 0.3849 0.0956 (  1648 PWs)   bands (ev):

    -8.9866  -8.5657   2.5527   2.9096   3.4425   3.4705   3.6639   3.9645
     4.6935   4.9369   5.0641   5.0671   5.6455   6.1769   7.2765   7.7008
     8.5383   9.0037

          k = 0.0000 0.3849 0.1912 (  1658 PWs)   bands (ev):

    -8.8974  -8.6542   2.4896   2.6528   3.4909   3.5349   3.6167   3.8329
     4.7844   4.9610   5.0232   5.0344   6.0880   6.4627   7.2250   7.9944
     8.2716   8.7407

          k = 0.0000 0.3849-0.2868 (  1674 PWs)   bands (ev):

    -8.7756  -8.7756   2.5018   2.5018   3.5486   3.5486   3.6742   3.6742
     4.9068   4.9068   4.9955   4.9955   6.4100   6.4100   7.7077   7.7077
     8.3746   8.3746

          k = 0.0000-0.5774 0.0000 (  1650 PWs)   bands (ev):

    -8.7236  -8.4692   2.6745   2.7898   3.4262   3.5782   3.7986   4.2172
     4.7095   5.0730   5.1232   5.2578   5.5707   5.9140   6.4233   7.1353
     7.8980   8.8625

          k = 0.0000-0.5774 0.0956 (  1644 PWs)   bands (ev):

    -8.7049  -8.4844   2.6140   2.6962   3.4659   3.5969   3.7718   4.1442
     4.7963   5.0744   5.1141   5.2495   5.5665   5.8513   6.6460   7.2722
     7.9613   8.7564

          k = 0.0000-0.5774 0.1912 (  1654 PWs)   bands (ev):

    -8.6549  -8.5273   2.5007   2.5315   3.5809   3.6354   3.7234   3.9651
     4.9646   5.0782   5.0977   5.2115   5.5756   5.7247   7.1725   7.6190
     7.9795   8.4641

          k = 0.0000-0.5774-0.2868 (  1660 PWs)   bands (ev):

    -8.5893  -8.5893   2.4525   2.4525   3.6774   3.6774   3.7577   3.7577
     5.0856   5.0856   5.1169   5.1169   5.6231   5.6231   7.7062   7.7062
     8.0537   8.0537

          k = 0.1667 0.2887 0.0000 (  1657 PWs)   bands (ev):

    -9.1482  -8.5807   2.8066   2.9863   3.2346   3.5233   3.6217   3.8752
     4.6087   4.7863   5.0599   5.0670   5.4187   6.7458   7.2025   7.8799
     8.8719   9.0327

          k = 0.1667 0.2887 0.0956 (  1657 PWs)   bands (ev):

    -9.1109  -8.6193   2.7400   2.8812   3.2736   3.4328   3.6495   3.8372
     4.6483   4.8662   5.0541   5.0874   5.6282   6.8522   7.2261   7.8532
     8.7742   8.9316

          k = 0.1667 0.2887 0.1912 (  1664 PWs)   bands (ev):

    -9.0084  -8.7244   2.6259   2.6804   3.3461   3.4127   3.6308   3.7427
     4.7531   4.9273   5.0218   5.0244   6.2429   7.1299   7.1817   7.9494
     8.4175   8.6607

          k = 0.1667 0.2887-0.2868 (  1668 PWs)   bands (ev):

    -8.8670  -8.8670   2.5835   2.5835   3.4052   3.4052   3.6498   3.6498
     4.8870   4.8870   4.9822   4.9822   6.7986   6.7986   7.7529   7.7529
     8.3135   8.3135

          k = 0.1667 0.4811 0.0000 (  1644 PWs)   bands (ev):

    -8.7365  -8.4643   2.7776   3.0414   3.3976   3.6585   3.7631   4.1619
     4.6980   4.7710   5.1610   5.3567   5.5223   5.9852   6.5206   6.7661
     7.9965   8.5108

          k = 0.1667 0.4811 0.0956 (  1654 PWs)   bands (ev):

    -8.7167  -8.4808   2.7375   2.9410   3.3759   3.5882   3.8158   4.0908
     4.7119   4.8834   5.1630   5.4048   5.4569   6.1322   6.5660   6.8839
     8.0283   8.4008

          k = 0.1667 0.4811 0.1912 (  1652 PWs)   bands (ev):

    -8.6636  -8.5272   2.6531   2.7489   3.3691   3.5419   3.8429   3.9732
     4.7989   4.9526   5.1773   5.2987   5.6410   6.1084   6.9047   7.2599
     7.9251   8.1738

          k = 0.1667 0.4811-0.2868 (  1646 PWs)   bands (ev):

    -8.5937  -8.5937   2.6342   2.6342   3.4496   3.4496   3.8882   3.8882
     4.9031   4.9031   5.2164   5.2164   5.8904   5.8904   7.3626   7.3626
     7.8881   7.8881

          k = 0.3333 0.5774 0.0000 (  1668 PWs)   bands (ev):

    -8.5129  -8.5129   2.8384   3.5497   3.5497   3.6159   3.9872   3.9872
     4.6443   4.8110   4.9834   4.9834   5.6518   5.9533   5.9533   7.3324
     7.3324   7.8397

          k = 0.3333 0.5774 0.0956 (  1650 PWs)   bands (ev):

    -8.5105  -8.5105   2.8725   3.3575   3.3575   3.5275   4.0950   4.0950
     4.6633   4.8023   5.0731   5.0731   5.8080   5.8806   5.8806   7.4709
     7.4709   7.6812

          k = 0.3333 0.5774 0.1912 (  1638 PWs)   bands (ev):

    -8.5059  -8.5059   2.9727   3.1059   3.1059   3.3339   4.1848   4.1848
     4.7017   4.7776   5.2809   5.2809   5.7152   5.7152   6.2097   7.2687
     7.7377   7.7377

          k = 0.3333 0.5774-0.2868 (  1644 PWs)   bands (ev):

    -8.5035  -8.5035   3.0061   3.0061   3.1327   3.1327   4.2082   4.2082
     4.7419   4.7419   5.4930   5.4930   5.5251   5.5251   6.7353   6.7353
     7.8690   7.8690

     highest occupied level (ev):     9.7028

!    total energy              =    -361.57802410 Ry
     estimated scf accuracy    <          6.2E-10 Ry

     The total energy is the sum of the following terms:
     one-electron contribution =    -133.46358852 Ry
     hartree contribution      =     110.81672832 Ry
     xc contribution           =    -109.91773933 Ry
     ewald contribution        =    -229.01342458 Ry

     convergence has been achieved in  17 iterations

     Forces acting on atoms (cartesian axes, Ry/au):

     atom    1 type  1   force =     0.00000000    0.00000000   -0.00988941
     atom    2 type  2   force =     0.00000000    0.00000000    0.00988941
     atom    3 type  1   force =     0.00000000    0.00000000   -0.00988941
     atom    4 type  2   force =     0.00000000    0.00000000    0.00988941
     The non-local contrib.  to forces
     atom    1 type  1   force =     0.00000000    0.00000000   -0.10940564
     atom    2 type  2   force =     0.00000000   -0.00000000   -0.08350778
     atom    3 type  1   force =     0.00000000   -0.00000000   -0.10940564
     atom    4 type  2   force =     0.00000000    0.00000000   -0.08350778
     The ionic contribution  to forces
     atom    1 type  1   force =    -0.00000000    0.00000000   -1.03502474
     atom    2 type  2   force =     0.00000000   -0.00000000    1.03502474
     atom    3 type  1   force =     0.00000000   -0.00000000   -1.03502474
     atom    4 type  2   force =    -0.00000000    0.00000000    1.03502474
     The local contribution  to forces
     atom    1 type  1   force =    -0.00000000   -0.00000000    1.12719416
     atom    2 type  2   force =     0.00000001   -0.00000001   -0.94219003
     atom    3 type  1   force =     0.00000004   -0.00000002    1.12719416
     atom    4 type  2   force =    -0.00000000   -0.00000000   -0.94219004
     The core correction contribution to forces
     atom    1 type  1   force =    -0.00000000    0.00000000    0.00734220
     atom    2 type  2   force =    -0.00000000    0.00000000    0.00057490
     atom    3 type  1   force =     0.00000001   -0.00000000    0.00734220
     atom    4 type  2   force =    -0.00000000    0.00000000    0.00057490
     The Hubbard contrib.    to forces
     atom    1 type  1   force =     0.00000000    0.00000000    0.00000000
     atom    2 type  2   force =     0.00000000    0.00000000    0.00000000
     atom    3 type  1   force =     0.00000000    0.00000000    0.00000000
     atom    4 type  2   force =     0.00000000    0.00000000    0.00000000
     The SCF correction term to forces
     atom    1 type  1   force =    -0.00000000    0.00000000    0.00001131
     atom    2 type  2   force =     0.00000000   -0.00000000   -0.00000571
     atom    3 type  1   force =     0.00000000   -0.00000000    0.00001131
     atom    4 type  2   force =    -0.00000000    0.00000000   -0.00000571

     Total force =     0.019779     Total SCF correction =     0.000018

     Writing all to output data dir ./ZnO-3.01-1.74-111.in.save/

     init_run     :      1.61s CPU      1.05s WALL (       1 calls)
     electrons    :     60.78s CPU     23.11s WALL (       1 calls)
     forces       :      0.59s CPU      0.28s WALL (       1 calls)

     Called by init_run:
     wfcinit      :      0.94s CPU      0.37s WALL (       1 calls)
     potinit      :      0.23s CPU      0.24s WALL (       1 calls)
     hinit0       :      0.35s CPU      0.36s WALL (       1 calls)

     Called by electrons:
     c_bands      :     51.19s CPU     19.25s WALL (      17 calls)
     sum_band     :      7.15s CPU      2.85s WALL (      17 calls)
     v_of_rho     :      0.65s CPU      0.29s WALL (      18 calls)
     newd         :      1.69s CPU      0.70s WALL (      18 calls)
     mix_rho      :      0.08s CPU      0.04s WALL (      17 calls)

     Called by c_bands:
     init_us_2    :      0.61s CPU      0.22s WALL (    1008 calls)
     init_us_2:cp :      0.60s CPU      0.22s WALL (    1008 calls)
     cegterg      :     49.82s CPU     18.72s WALL (     476 calls)

     Called by *egterg:
     cdiaghg      :      8.39s CPU      2.80s WALL (    2863 calls)
     h_psi        :     34.61s CPU     14.10s WALL (    2891 calls)
     s_psi        :      0.73s CPU      0.23s WALL (    2891 calls)
     g_psi        :      0.23s CPU      0.06s WALL (    2387 calls)

     Called by h_psi:
     h_psi:calbec :      1.27s CPU      0.49s WALL (    2891 calls)
     vloc_psi     :     32.37s CPU     13.29s WALL (    2891 calls)
     add_vuspsi   :      0.71s CPU      0.24s WALL (    2891 calls)

     General routines
     calbec       :      1.63s CPU      0.63s WALL (    3479 calls)
     fft          :      0.47s CPU      0.27s WALL (     243 calls)
     ffts         :      0.11s CPU      0.10s WALL (      35 calls)
     fftw         :     31.87s CPU     13.12s WALL (   76930 calls)
     interpolate  :      0.13s CPU      0.11s WALL (      18 calls)

     Parallel routines

     PWSCF        :   1m 3.38s CPU     24.88s WALL


   This run was terminated on:  12:27:53   8Jul2025            

=------------------------------------------------------------------------------=
   JOB DONE.
=------------------------------------------------------------------------------=
Note: The following floating-point exceptions are signalling: IEEE_INVALID_FLAG
