Authorization required, but no authorization protocol specified

Authorization required, but no authorization protocol specified

Authorization required, but no authorization protocol specified

Authorization required, but no authorization protocol specified

Authorization required, but no authorization protocol specified

Authorization required, but no authorization protocol specified

Authorization required, but no authorization protocol specified

Authorization required, but no authorization protocol specified

Authorization required, but no authorization protocol specified

Authorization required, but no authorization protocol specified


     Program PWSCF v.7.2 starts on  8Jul2025 at 12:25:37 

     This program is part of the open-source Quantum ESPRESSO suite
     for quantum simulation of materials; please cite
         "P. Giannozzi et al., J. Phys.:Condens. Matter 21 395502 (2009);
         "P. Giannozzi et al., J. Phys.:Condens. Matter 29 465901 (2017);
         "P. Giannozzi et al., J. Chem. Phys. 152 154105 (2020);
          URL http://www.quantum-espresso.org", 
     in publications or presentations arising from this work. More details at
     http://www.quantum-espresso.org/quote

     Parallel version (MPI), running on     8 processors

     MPI processes distributed on     1 nodes
     53323 MiB available memory on the printing compute node when the environment starts

     Reading input from /home/jvc/QEspresso7.2/ZnO_database/scripts/cell111_strain10%.in/ZnO-3.01-1.65-111.in
Warning: card &CELL ignored
Warning: card / ignored
Warning: card &FCP ignored
Warning: card / ignored
Warning: card &RISM ignored
Warning: card / ignored

     Current dimensions of program PWSCF are:
     Max number of different atomic species (ntypx) = 10
     Max number of k-points (npk) =  40000
     Max angular momentum in pseudopotentials (lmaxx) =  4
     file Zn.upf: wavefunction(s)  3D renormalized
     Message from routine setup:
     using ibrav=0 with symmetry is DISCOURAGED, use correct ibrav instead

     R & G space division:  proc/nbgrp/npool/nimage =       8
     Subspace diagonalization in iterative solution of the eigenvalue problem:
     a serial algorithm will be used


     Parallelization info
     --------------------
     sticks:   dense  smooth     PW     G-vecs:    dense   smooth      PW
     Min         111      54     16                 4413     1558     269
     Max         112      55     18                 4418     1563     274
     Sum         889     439    139                35315    12493    2177

     Using Slab Decomposition



     bravais-lattice index     =            0
     lattice parameter (alat)  =       5.6845  a.u.
     unit-cell volume          =     261.9498 (a.u.)^3
     number of atoms/cell      =            4
     number of atomic types    =            2
     number of electrons       =        36.00
     number of Kohn-Sham states=           18
     kinetic-energy cutoff     =      50.0000  Ry
     charge density cutoff     =     400.0000  Ry
     scf convergence threshold =      1.0E-08
     mixing beta               =       0.3000
     number of iterations used =            8  plain     mixing
     Exchange-correlation= PBE
                           (   1   4   3   4   0   0   0)

     celldm(1)=   5.684546  celldm(2)=   0.000000  celldm(3)=   0.000000
     celldm(4)=   0.000000  celldm(5)=   0.000000  celldm(6)=   0.000000

     crystal axes: (cart. coord. in units of alat)
               a(1) = (   1.000000   0.000000   0.000000 )  
               a(2) = (  -0.500000   0.866025   0.000000 )  
               a(3) = (   0.000000   0.000000   1.646646 )  

     reciprocal axes: (cart. coord. in units 2 pi/alat)
               b(1) = (  1.000000  0.577350 -0.000000 )  
               b(2) = (  0.000000  1.154701  0.000000 )  
               b(3) = (  0.000000 -0.000000  0.607295 )  


     PseudoPot. # 1 for Zn read from file:
     /home/jvc/QEspresso7.2/ZnO_database/pseudos/Zn.upf
     MD5 check sum: 7f56cabf9682ed8c977c2f7d0c5985c5
     Pseudo is Ultrasoft + core correction, Zval = 12.0
     Generated using &quot;atomic&quot; code by A. Dal Corso  v.6.2.2
     Using radial grid of 1201 points,  6 beta functions with: 
                l(1) =   0
                l(2) =   0
                l(3) =   1
                l(4) =   1
                l(5) =   2
                l(6) =   2
     Q(r) pseudized with 0 coefficients 


     PseudoPot. # 2 for O  read from file:
     /home/jvc/QEspresso7.2/ZnO_database/pseudos/O.upf
     MD5 check sum: 91400c9766925bcf19f520983a725ff0
     Pseudo is Ultrasoft + core correction, Zval =  6.0
     Generated using &quot;atomic&quot; code by A. Dal Corso  v.6.3MaX
     Using radial grid of 1095 points,  4 beta functions with: 
                l(1) =   0
                l(2) =   0
                l(3) =   1
                l(4) =   1
     Q(r) pseudized with 0 coefficients 


     atomic species   valence    mass     pseudopotential
        Zn            12.00    65.38000     Zn( 1.00)
        O              6.00    15.99900     O ( 1.00)

     12 Sym. Ops. (no inversion) found ( 6 have fractional translation)



   Cartesian axes

     site n.     atom                  positions (alat units)
         1           Zn  tau(   1) = (   0.0000000   0.0000000   0.0000000  )
         2           O   tau(   2) = (  -0.0000000   0.5773503   0.2092296  )
         3           Zn  tau(   3) = (  -0.0000000   0.5773503   0.8233228  )
         4           O   tau(   4) = (   0.0000000   0.0000000   1.0325524  )

     number of k points=    28
                       cart. coord. in units 2pi/alat
        k(    1) = (   0.0000000   0.0000000   0.0000000), wk =   0.0092593
        k(    2) = (   0.0000000   0.0000000   0.1012159), wk =   0.0185185
        k(    3) = (   0.0000000   0.0000000   0.2024317), wk =   0.0185185
        k(    4) = (   0.0000000   0.0000000  -0.3036476), wk =   0.0092593
        k(    5) = (   0.0000000   0.1924501   0.0000000), wk =   0.0555556
        k(    6) = (   0.0000000   0.1924501   0.1012159), wk =   0.1111111
        k(    7) = (   0.0000000   0.1924501   0.2024317), wk =   0.1111111
        k(    8) = (   0.0000000   0.1924501  -0.3036476), wk =   0.0555556
        k(    9) = (   0.0000000   0.3849002   0.0000000), wk =   0.0555556
        k(   10) = (   0.0000000   0.3849002   0.1012159), wk =   0.1111111
        k(   11) = (   0.0000000   0.3849002   0.2024317), wk =   0.1111111
        k(   12) = (   0.0000000   0.3849002  -0.3036476), wk =   0.0555556
        k(   13) = (   0.0000000  -0.5773503   0.0000000), wk =   0.0277778
        k(   14) = (   0.0000000  -0.5773503   0.1012159), wk =   0.0555556
        k(   15) = (   0.0000000  -0.5773503   0.2024317), wk =   0.0555556
        k(   16) = (   0.0000000  -0.5773503  -0.3036476), wk =   0.0277778
        k(   17) = (   0.1666667   0.2886751   0.0000000), wk =   0.0555556
        k(   18) = (   0.1666667   0.2886751   0.1012159), wk =   0.1111111
        k(   19) = (   0.1666667   0.2886751   0.2024317), wk =   0.1111111
        k(   20) = (   0.1666667   0.2886751  -0.3036476), wk =   0.0555556
        k(   21) = (   0.1666667   0.4811252   0.0000000), wk =   0.1111111
        k(   22) = (   0.1666667   0.4811252   0.1012159), wk =   0.2222222
        k(   23) = (   0.1666667   0.4811252   0.2024317), wk =   0.2222222
        k(   24) = (   0.1666667   0.4811252  -0.3036476), wk =   0.1111111
        k(   25) = (   0.3333333   0.5773503   0.0000000), wk =   0.0185185
        k(   26) = (   0.3333333   0.5773503   0.1012159), wk =   0.0370370
        k(   27) = (   0.3333333   0.5773503   0.2024317), wk =   0.0370370
        k(   28) = (   0.3333333   0.5773503  -0.3036476), wk =   0.0185185

     Dense  grid:    35315 G-vectors     FFT dimensions: (  45,  45,  60)

     Smooth grid:    12493 G-vectors     FFT dimensions: (  27,  27,  48)

     Estimated max dynamical RAM per process >      20.82 MB

     Estimated total dynamical RAM >     166.57 MB

     Check: negative core charge=   -0.000002

     Initial potential from superposition of free atoms

     starting charge      35.9925, renormalised to      36.0000
     Starting wfcs are   26 randomized atomic wfcs

     total cpu time spent up to now is        1.4 secs

     Self-consistent Calculation

     iteration #  1     ecut=    50.00 Ry     beta= 0.30
     Davidson diagonalization with overlap
     ethr =  1.00E-02,  avg # of iterations =  2.0

     total cpu time spent up to now is        2.2 secs

     total energy              =    -361.39922259 Ry
     estimated scf accuracy    <       0.67459165 Ry

     iteration #  2     ecut=    50.00 Ry     beta= 0.30
     Davidson diagonalization with overlap
     ethr =  1.87E-03,  avg # of iterations =  2.0

     total cpu time spent up to now is        3.1 secs

     total energy              =    -361.44197151 Ry
     estimated scf accuracy    <       0.13299717 Ry

     iteration #  3     ecut=    50.00 Ry     beta= 0.30
     Davidson diagonalization with overlap
     ethr =  3.69E-04,  avg # of iterations =  6.2

     total cpu time spent up to now is        4.7 secs

     total energy              =    -361.52292057 Ry
     estimated scf accuracy    <       0.09518260 Ry

     iteration #  4     ecut=    50.00 Ry     beta= 0.30
     Davidson diagonalization with overlap
     ethr =  2.64E-04,  avg # of iterations =  2.0

     total cpu time spent up to now is        5.5 secs

     total energy              =    -361.51942233 Ry
     estimated scf accuracy    <       0.02621155 Ry

     iteration #  5     ecut=    50.00 Ry     beta= 0.30
     Davidson diagonalization with overlap
     ethr =  7.28E-05,  avg # of iterations =  9.2

     total cpu time spent up to now is        7.7 secs

     total energy              =    -361.58216651 Ry
     estimated scf accuracy    <       0.47806162 Ry

     iteration #  6     ecut=    50.00 Ry     beta= 0.30
     Davidson diagonalization with overlap
     ethr =  7.28E-05,  avg # of iterations =  4.8

     total cpu time spent up to now is        8.9 secs

     total energy              =    -361.49196893 Ry
     estimated scf accuracy    <       0.23210189 Ry

     iteration #  7     ecut=    50.00 Ry     beta= 0.30
     Davidson diagonalization with overlap
     ethr =  7.28E-05,  avg # of iterations =  7.2

     total cpu time spent up to now is       10.7 secs

     total energy              =    -361.53239500 Ry
     estimated scf accuracy    <       0.00162249 Ry

     iteration #  8     ecut=    50.00 Ry     beta= 0.30
     Davidson diagonalization with overlap
     ethr =  4.51E-06,  avg # of iterations =  8.8

     total cpu time spent up to now is       12.6 secs

     total energy              =    -361.53446865 Ry
     estimated scf accuracy    <       0.00685561 Ry

     iteration #  9     ecut=    50.00 Ry     beta= 0.30
     Davidson diagonalization with overlap
     ethr =  4.51E-06,  avg # of iterations =  2.0

     total cpu time spent up to now is       13.4 secs

     total energy              =    -361.53207161 Ry
     estimated scf accuracy    <       0.00394893 Ry

     iteration # 10     ecut=    50.00 Ry     beta= 0.30
     Davidson diagonalization with overlap
     ethr =  4.51E-06,  avg # of iterations =  7.1

     total cpu time spent up to now is       15.2 secs

     total energy              =    -361.53422107 Ry
     estimated scf accuracy    <       0.00189939 Ry

     iteration # 11     ecut=    50.00 Ry     beta= 0.30
     Davidson diagonalization with overlap
     ethr =  4.51E-06,  avg # of iterations =  1.0

     total cpu time spent up to now is       15.9 secs

     total energy              =    -361.53428647 Ry
     estimated scf accuracy    <       0.00114920 Ry

     iteration # 12     ecut=    50.00 Ry     beta= 0.30
     Davidson diagonalization with overlap
     ethr =  3.19E-06,  avg # of iterations =  1.0

     total cpu time spent up to now is       16.7 secs

     total energy              =    -361.53432091 Ry
     estimated scf accuracy    <       0.00120174 Ry

     iteration # 13     ecut=    50.00 Ry     beta= 0.30
     Davidson diagonalization with overlap
     ethr =  3.19E-06,  avg # of iterations =  1.0

     total cpu time spent up to now is       17.4 secs

     total energy              =    -361.53422916 Ry
     estimated scf accuracy    <       0.00114581 Ry

     iteration # 14     ecut=    50.00 Ry     beta= 0.30
     Davidson diagonalization with overlap
     ethr =  3.18E-06,  avg # of iterations =  1.0

     total cpu time spent up to now is       18.2 secs

     total energy              =    -361.53420343 Ry
     estimated scf accuracy    <       0.00084106 Ry

     iteration # 15     ecut=    50.00 Ry     beta= 0.30
     Davidson diagonalization with overlap
     ethr =  2.34E-06,  avg # of iterations =  1.0

     total cpu time spent up to now is       18.9 secs

     total energy              =    -361.53421472 Ry
     estimated scf accuracy    <       0.00073399 Ry

     iteration # 16     ecut=    50.00 Ry     beta= 0.30
     Davidson diagonalization with overlap
     ethr =  2.04E-06,  avg # of iterations =  1.0

     total cpu time spent up to now is       19.6 secs

     total energy              =    -361.53421044 Ry
     estimated scf accuracy    <       0.00071646 Ry

     iteration # 17     ecut=    50.00 Ry     beta= 0.30
     Davidson diagonalization with overlap
     ethr =  1.99E-06,  avg # of iterations =  1.0

     total cpu time spent up to now is       20.4 secs

     total energy              =    -361.53421468 Ry
     estimated scf accuracy    <       0.00067677 Ry

     iteration # 18     ecut=    50.00 Ry     beta= 0.30
     Davidson diagonalization with overlap
     ethr =  1.88E-06,  avg # of iterations =  1.0

     total cpu time spent up to now is       21.1 secs

     total energy              =    -361.53395497 Ry
     estimated scf accuracy    <       0.00065651 Ry

     iteration # 19     ecut=    50.00 Ry     beta= 0.30
     Davidson diagonalization with overlap
     ethr =  1.82E-06,  avg # of iterations =  2.0

     total cpu time spent up to now is       21.9 secs

     total energy              =    -361.53385796 Ry
     estimated scf accuracy    <       0.00019861 Ry

     iteration # 20     ecut=    50.00 Ry     beta= 0.30
     Davidson diagonalization with overlap
     ethr =  5.52E-07,  avg # of iterations =  6.4

     total cpu time spent up to now is       23.5 secs

     total energy              =    -361.53400484 Ry
     estimated scf accuracy    <       0.00028821 Ry

     iteration # 21     ecut=    50.00 Ry     beta= 0.30
     Davidson diagonalization with overlap
     ethr =  5.52E-07,  avg # of iterations =  2.0

     total cpu time spent up to now is       24.4 secs

     total energy              =    -361.53402049 Ry
     estimated scf accuracy    <       0.00006291 Ry

     iteration # 22     ecut=    50.00 Ry     beta= 0.30
     Davidson diagonalization with overlap
     ethr =  1.75E-07,  avg # of iterations =  4.8

     total cpu time spent up to now is       25.5 secs

     total energy              =    -361.53404636 Ry
     estimated scf accuracy    <       0.00000298 Ry

     iteration # 23     ecut=    50.00 Ry     beta= 0.30
     Davidson diagonalization with overlap
     ethr =  8.28E-09,  avg # of iterations =  5.5

     total cpu time spent up to now is       26.9 secs

     total energy              =    -361.53404875 Ry
     estimated scf accuracy    <       0.00000074 Ry

     iteration # 24     ecut=    50.00 Ry     beta= 0.30
     Davidson diagonalization with overlap
     ethr =  2.06E-09,  avg # of iterations =  8.9

     total cpu time spent up to now is       29.0 secs

     total energy              =    -361.53404979 Ry
     estimated scf accuracy    <       0.00000966 Ry

     iteration # 25     ecut=    50.00 Ry     beta= 0.30
     Davidson diagonalization with overlap
     ethr =  2.06E-09,  avg # of iterations =  4.2

     total cpu time spent up to now is       30.1 secs

     total energy              =    -361.53405135 Ry
     estimated scf accuracy    <       0.00000476 Ry

     iteration # 26     ecut=    50.00 Ry     beta= 0.30
     Davidson diagonalization with overlap
     ethr =  2.06E-09,  avg # of iterations =  2.0

     total cpu time spent up to now is       30.9 secs

     total energy              =    -361.53405118 Ry
     estimated scf accuracy    <       0.00000721 Ry

     iteration # 27     ecut=    50.00 Ry     beta= 0.30
     Davidson diagonalization with overlap
     ethr =  2.06E-09,  avg # of iterations =  1.2

     total cpu time spent up to now is       31.6 secs

     total energy              =    -361.53405019 Ry
     estimated scf accuracy    <       0.00000708 Ry

     iteration # 28     ecut=    50.00 Ry     beta= 0.30
     Davidson diagonalization with overlap
     ethr =  2.06E-09,  avg # of iterations =  2.0

     total cpu time spent up to now is       32.4 secs

     total energy              =    -361.53404952 Ry
     estimated scf accuracy    <       0.00000527 Ry

     iteration # 29     ecut=    50.00 Ry     beta= 0.30
     Davidson diagonalization with overlap
     ethr =  2.06E-09,  avg # of iterations =  2.2

     total cpu time spent up to now is       33.3 secs

     total energy              =    -361.53404974 Ry
     estimated scf accuracy    <       0.00000316 Ry

     iteration # 30     ecut=    50.00 Ry     beta= 0.30
     Davidson diagonalization with overlap
     ethr =  2.06E-09,  avg # of iterations =  1.1

     total cpu time spent up to now is       34.0 secs

     total energy              =    -361.53404950 Ry
     estimated scf accuracy    <       0.00000308 Ry

     iteration # 31     ecut=    50.00 Ry     beta= 0.30
     Davidson diagonalization with overlap
     ethr =  2.06E-09,  avg # of iterations =  1.4

     total cpu time spent up to now is       34.8 secs

     total energy              =    -361.53404889 Ry
     estimated scf accuracy    <       0.00000241 Ry

     iteration # 32     ecut=    50.00 Ry     beta= 0.30
     Davidson diagonalization with overlap
     ethr =  2.06E-09,  avg # of iterations =  3.9

     total cpu time spent up to now is       35.8 secs

     total energy              =    -361.53404901 Ry
     estimated scf accuracy    <       0.00000073 Ry

     iteration # 33     ecut=    50.00 Ry     beta= 0.30
     Davidson diagonalization with overlap
     ethr =  2.03E-09,  avg # of iterations =  1.9

     total cpu time spent up to now is       36.6 secs

     total energy              =    -361.53404897 Ry
     estimated scf accuracy    <       0.00000048 Ry

     iteration # 34     ecut=    50.00 Ry     beta= 0.30
     Davidson diagonalization with overlap
     ethr =  1.35E-09,  avg # of iterations =  2.0

     total cpu time spent up to now is       37.5 secs

     total energy              =    -361.53404909 Ry
     estimated scf accuracy    <       0.00000023 Ry

     iteration # 35     ecut=    50.00 Ry     beta= 0.30
     Davidson diagonalization with overlap
     ethr =  6.29E-10,  avg # of iterations =  1.7

     total cpu time spent up to now is       38.2 secs

     total energy              =    -361.53404894 Ry
     estimated scf accuracy    <       0.00000034 Ry

     iteration # 36     ecut=    50.00 Ry     beta= 0.30
     Davidson diagonalization with overlap
     ethr =  6.29E-10,  avg # of iterations =  3.7

     total cpu time spent up to now is       39.3 secs

     total energy              =    -361.53404899 Ry
     estimated scf accuracy    <       0.00000003 Ry

     iteration # 37     ecut=    50.00 Ry     beta= 0.30
     Davidson diagonalization with overlap
     ethr =  7.14E-11,  avg # of iterations =  6.7

     total cpu time spent up to now is       40.8 secs

     total energy              =    -361.53404902 Ry
     estimated scf accuracy    <       0.00000002 Ry

     iteration # 38     ecut=    50.00 Ry     beta= 0.30
     Davidson diagonalization with overlap
     ethr =  5.61E-11,  avg # of iterations =  1.1

     total cpu time spent up to now is       41.5 secs

     total energy              =    -361.53404901 Ry
     estimated scf accuracy    <       0.00000002 Ry

     iteration # 39     ecut=    50.00 Ry     beta= 0.30
     Davidson diagonalization with overlap
     ethr =  4.19E-11,  avg # of iterations =  5.2

     total cpu time spent up to now is       42.9 secs

     End of self-consistent calculation

          k = 0.0000 0.0000 0.0000 (  1557 PWs)   bands (ev):

    -9.2614  -8.2151   3.1885   3.7402   3.8004   3.8004   4.0900   4.0900
     5.6632   5.6632   5.9812   5.9812   6.3246   9.6879   9.6879  10.6033
    10.7548  10.7548

          k = 0.0000 0.0000 0.1012 (  1569 PWs)   bands (ev):

    -9.1966  -8.2910   3.1562   3.6572   3.8118   3.8118   4.0616   4.0616
     5.6913   5.6913   5.9681   5.9681   6.6186   9.7594   9.7594  10.0629
    10.6839  10.6839

          k = 0.0000 0.0000 0.2024 (  1551 PWs)   bands (ev):

    -9.0160  -8.4938   3.1465   3.4574   3.8488   3.8488   3.9916   3.9916
     5.7648   5.7648   5.9260   5.9260   7.3520   9.1987   9.9551   9.9551
    10.4895  10.4895

          k = 0.0000 0.0000-0.3036 (  1570 PWs)   bands (ev):

    -8.7604  -8.7604   3.2539   3.2539   3.9117   3.9117   3.9117   3.9117
     5.8526   5.8526   5.8526   5.8526   8.2699   8.2699  10.2226  10.2226
    10.2226  10.2226

          k = 0.0000 0.1925 0.0000 (  1579 PWs)   bands (ev):

    -9.0414  -8.1139   3.4075   3.6305   3.8438   3.9009   4.0515   4.2484
     5.5546   5.6618   5.9986   6.0164   6.3183   8.6572   9.2561   9.6444
    10.3692  10.5205

          k = 0.0000 0.1925 0.1012 (  1579 PWs)   bands (ev):

    -8.9825  -8.1793   3.3177   3.5104   3.8705   3.9165   4.0574   4.2157
     5.6004   5.6888   5.9809   6.0100   6.6304   8.7350   9.3435   9.4673
    10.2441  10.4380

          k = 0.0000 0.1925 0.2024 (  1574 PWs)   bands (ev):

    -8.8194  -8.3557   3.1862   3.3244   3.9062   3.9639   4.0242   4.1348
     5.7101   5.7593   5.9286   5.9473   7.4021   8.8576   9.1269   9.5800
     9.8671  10.2112

          k = 0.0000 0.1925-0.3036 (  1566 PWs)   bands (ev):

    -8.5909  -8.5909   3.1878   3.1878   3.9613   3.9613   4.0411   4.0411
     5.8386   5.8386   5.8484   5.8484   8.2649   8.2649   9.4031   9.4031
     9.8980   9.8980

          k = 0.0000 0.3849 0.0000 (  1559 PWs)   bands (ev):

    -8.5401  -7.9376   3.1547   3.6484   4.0558   4.1446   4.4566   4.6394
     5.4708   5.7896   5.9337   6.0314   6.5398   7.0001   8.2944   8.3480
     9.6402   9.9948

          k = 0.0000 0.3849 0.1012 (  1564 PWs)   bands (ev):

    -8.4988  -7.9763   3.1051   3.4626   4.0853   4.1480   4.4004   4.5872
     5.5383   5.8040   6.0108   6.0496   6.6928   7.1483   8.2079   8.4723
     9.6413   9.8919

          k = 0.0000 0.3849 0.2024 (  1567 PWs)   bands (ev):

    -8.3861  -8.0837   3.0134   3.1665   4.1651   4.1714   4.3043   4.4571
     5.6911   5.8438   5.9605   6.0129   7.0899   7.4847   8.2267   8.7955
     9.4398   9.6082

          k = 0.0000 0.3849-0.3036 (  1568 PWs)   bands (ev):

    -8.2336  -8.2336   3.0058   3.0058   4.2184   4.2184   4.3035   4.3035
     5.8650   5.8650   5.8999   5.8999   7.3921   7.3921   8.8593   8.8593
     9.2110   9.2110

          k = 0.0000-0.5774 0.0000 (  1578 PWs)   bands (ev):

    -8.2182  -7.9010   3.2524   3.3258   4.1015   4.3784   4.5307   4.8927
     5.6480   5.9513   6.0615   6.1832   6.5212   6.6727   7.2946   7.8143
     9.0535   9.6950

          k = 0.0000-0.5774 0.1012 (  1564 PWs)   bands (ev):

    -8.1935  -7.9182   3.1739   3.2132   4.1404   4.3632   4.5026   4.8183
     5.7467   5.9545   6.0424   6.1779   6.5184   6.6083   7.5995   7.9691
     9.1276   9.5822

          k = 0.0000-0.5774 0.2024 (  1560 PWs)   bands (ev):

    -8.1282  -7.9687   3.0177   3.0178   4.2539   4.3596   4.4437   4.6371
     5.9200   5.9641   6.0081   6.1451   6.5128   6.5431   8.2480   8.3542
     9.1651   9.2700

          k = 0.0000-0.5774-0.3036 (  1544 PWs)   bands (ev):

    -8.0448  -8.0448   2.9364   2.9364   4.3896   4.3896   4.4295   4.4295
     5.9816   5.9816   6.0603   6.0603   6.5168   6.5168   8.8282   8.8282
     8.8688   8.8688

          k = 0.1667 0.2887 0.0000 (  1571 PWs)   bands (ev):

    -8.6782  -7.9754   3.3555   3.5968   3.9994   4.1152   4.2606   4.5173
     5.4627   5.6764   6.0112   6.0175   6.4813   7.6358   8.1201   8.7763
     9.9127   9.9587

          k = 0.1667 0.2887 0.1012 (  1564 PWs)   bands (ev):

    -8.6313  -8.0221   3.2943   3.4569   3.9973   4.0462   4.2780   4.4782
     5.5237   5.7413   5.9987   6.0683   6.7185   7.7511   8.1829   8.7084
     9.8501   9.8683

          k = 0.1667 0.2887 0.2024 (  1569 PWs)   bands (ev):

    -8.5026  -8.1503   3.1686   3.2125   4.0067   4.0302   4.2648   4.3833
     5.6725   5.8131   5.9503   6.0064   7.3616   8.1443   8.1448   8.7717
     9.5593   9.5758

          k = 0.1667 0.2887-0.3036 (  1568 PWs)   bands (ev):

    -8.3264  -8.3264   3.1081   3.1081   4.0281   4.0281   4.2917   4.2917
     5.8424   5.8424   5.8922   5.8922   7.8503   7.8503   8.8271   8.8271
     9.2132   9.2132

          k = 0.1667 0.4811 0.0000 (  1554 PWs)   bands (ev):

    -8.2331  -7.8941   3.3734   3.6281   4.0463   4.2806   4.6259   4.8549
     5.5819   5.6432   6.0794   6.1697   6.4631   6.9771   7.2074   7.6893
     9.0166   9.3686

          k = 0.1667 0.4811 0.1012 (  1562 PWs)   bands (ev):

    -8.2071  -7.9130   3.3103   3.5053   4.0266   4.2383   4.5983   4.7705
     5.5935   5.8104   6.0737   6.2704   6.3913   7.0969   7.2984   7.8206
     9.0288   9.3031

          k = 0.1667 0.4811 0.2024 (  1558 PWs)   bands (ev):

    -8.1381  -7.9678   3.1814   3.2668   4.0386   4.1822   4.5592   4.6355
     5.7184   5.8819   6.0844   6.2546   6.5425   7.0197   7.7225   8.2614
     8.8155   9.2423

          k = 0.1667 0.4811-0.3036 (  1558 PWs)   bands (ev):

    -8.0494  -8.0494   3.1368   3.1368   4.1096   4.1096   4.5584   4.5584
     5.8378   5.8378   6.1416   6.1416   6.8082   6.8082   8.2137   8.2137
     8.9656   8.9656

          k = 0.3333 0.5774 0.0000 (  1560 PWs)   bands (ev):

    -7.9765  -7.9765   3.5433   4.1232   4.1232   4.2138   4.8318   4.8318
     5.5048   5.7139   5.7139   5.7312   6.4147   6.9427   6.9427   8.3122
     8.3122   8.5769

          k = 0.3333 0.5774 0.1012 (  1545 PWs)   bands (ev):

    -7.9720  -7.9720   3.5726   3.9345   3.9345   4.1394   4.8334   4.8334
     5.5277   5.7185   5.8940   5.8940   6.5621   6.8728   6.8728   8.4179
     8.4796   8.4796

          k = 0.3333 0.5774 0.2024 (  1560 PWs)   bands (ev):

    -7.9630  -7.9630   3.6410   3.6410   3.6593   3.9730   4.8282   4.8282
     5.5769   5.6831   6.2125   6.2125   6.7116   6.7116   6.9504   8.0040
     8.8089   8.8089

          k = 0.3333 0.5774-0.3036 (  1548 PWs)   bands (ev):

    -7.9585  -7.9585   3.5185   3.5185   3.7983   3.7983   4.8247   4.8247
     5.6327   5.6327   6.4567   6.4567   6.5284   6.5284   7.4706   7.4706
     8.9740   8.9740

     highest occupied level (ev):    10.7548

!    total energy              =    -361.53404902 Ry
     estimated scf accuracy    <          5.7E-09 Ry

     The total energy is the sum of the following terms:
     one-electron contribution =    -127.11547997 Ry
     hartree contribution      =     108.80073744 Ry
     xc contribution           =    -110.08348899 Ry
     ewald contribution        =    -233.13581750 Ry

     convergence has been achieved in  39 iterations

     Forces acting on atoms (cartesian axes, Ry/au):

     atom    1 type  1   force =     0.00000000    0.00000000   -0.00257289
     atom    2 type  2   force =     0.00000000    0.00000000    0.00257289
     atom    3 type  1   force =    -0.00000000    0.00000000   -0.00257289
     atom    4 type  2   force =     0.00000000    0.00000000    0.00257289
     The non-local contrib.  to forces
     atom    1 type  1   force =    -0.00000000    0.00000000   -0.01851577
     atom    2 type  2   force =     0.00000000    0.00000000   -0.01949647
     atom    3 type  1   force =     0.00000000    0.00000000   -0.01851577
     atom    4 type  2   force =    -0.00000000   -0.00000000   -0.01949647
     The ionic contribution  to forces
     atom    1 type  1   force =    -0.00000000    0.00000000   -0.28714436
     atom    2 type  2   force =     0.00000000   -0.00000000    0.28714436
     atom    3 type  1   force =     0.00000000   -0.00000000   -0.28714436
     atom    4 type  2   force =    -0.00000000    0.00000000    0.28714436
     The local contribution  to forces
     atom    1 type  1   force =    -0.00000000    0.00000000    0.30217008
     atom    2 type  2   force =     0.00000001   -0.00000001   -0.26522096
     atom    3 type  1   force =     0.00000004   -0.00000002    0.30217009
     atom    4 type  2   force =    -0.00000000   -0.00000000   -0.26522095
     The core correction contribution to forces
     atom    1 type  1   force =    -0.00000000    0.00000000    0.00091494
     atom    2 type  2   force =    -0.00000000    0.00000000    0.00013846
     atom    3 type  1   force =     0.00000001   -0.00000000    0.00091494
     atom    4 type  2   force =    -0.00000000    0.00000000    0.00013846
     The Hubbard contrib.    to forces
     atom    1 type  1   force =     0.00000000    0.00000000    0.00000000
     atom    2 type  2   force =     0.00000000    0.00000000    0.00000000
     atom    3 type  1   force =     0.00000000    0.00000000    0.00000000
     atom    4 type  2   force =     0.00000000    0.00000000    0.00000000
     The SCF correction term to forces
     atom    1 type  1   force =     0.00000000   -0.00000000   -0.00000199
     atom    2 type  2   force =    -0.00000000    0.00000000    0.00000330
     atom    3 type  1   force =    -0.00000000    0.00000000   -0.00000199
     atom    4 type  2   force =     0.00000000   -0.00000000    0.00000330

     Total force =     0.005146     Total SCF correction =     0.000005

     Writing all to output data dir ./ZnO-3.01-1.65-111.in.save/

     init_run     :      1.63s CPU      1.07s WALL (       1 calls)
     electrons    :    107.59s CPU     41.49s WALL (       1 calls)
     forces       :      0.57s CPU      0.26s WALL (       1 calls)

     Called by init_run:
     wfcinit      :      0.95s CPU      0.37s WALL (       1 calls)
     potinit      :      0.20s CPU      0.21s WALL (       1 calls)
     hinit0       :      0.40s CPU      0.41s WALL (       1 calls)

     Called by electrons:
     c_bands      :     86.25s CPU     32.94s WALL (      39 calls)
     sum_band     :     15.96s CPU      6.34s WALL (      39 calls)
     v_of_rho     :      1.47s CPU      0.65s WALL (      40 calls)
     newd         :      3.55s CPU      1.44s WALL (      40 calls)
     mix_rho      :      0.23s CPU      0.10s WALL (      39 calls)

     Called by c_bands:
     init_us_2    :      1.25s CPU      0.45s WALL (    2240 calls)
     init_us_2:cp :      1.22s CPU      0.44s WALL (    2240 calls)
     cegterg      :     83.33s CPU     31.81s WALL (    1092 calls)

     Called by *egterg:
     cdiaghg      :     12.76s CPU      4.38s WALL (    4711 calls)
     h_psi        :     59.98s CPU     24.53s WALL (    4739 calls)
     s_psi        :      1.19s CPU      0.38s WALL (    4739 calls)
     g_psi        :      0.35s CPU      0.09s WALL (    3619 calls)

     Called by h_psi:
     h_psi:calbec :      1.83s CPU      0.69s WALL (    4739 calls)
     vloc_psi     :     56.56s CPU     23.30s WALL (    4739 calls)
     add_vuspsi   :      1.17s CPU      0.41s WALL (    4739 calls)

     General routines
     calbec       :      2.52s CPU      0.94s WALL (    5943 calls)
     fft          :      0.95s CPU      0.50s WALL (     529 calls)
     ffts         :      0.15s CPU      0.12s WALL (      79 calls)
     fftw         :     57.68s CPU     23.77s WALL (  139234 calls)
     interpolate  :      0.19s CPU      0.13s WALL (      40 calls)

     Parallel routines

     PWSCF        :   1m50.19s CPU     43.26s WALL


   This run was terminated on:  12:26:20   8Jul2025            

=------------------------------------------------------------------------------=
   JOB DONE.
=------------------------------------------------------------------------------=
Note: The following floating-point exceptions are signalling: IEEE_INVALID_FLAG
