Authorization required, but no authorization protocol specified

Authorization required, but no authorization protocol specified

Authorization required, but no authorization protocol specified

Authorization required, but no authorization protocol specified

Authorization required, but no authorization protocol specified

Authorization required, but no authorization protocol specified

Authorization required, but no authorization protocol specified

Authorization required, but no authorization protocol specified

Authorization required, but no authorization protocol specified

Authorization required, but no authorization protocol specified


     Program PWSCF v.7.2 starts on  8Jul2025 at 12:20:28 

     This program is part of the open-source Quantum ESPRESSO suite
     for quantum simulation of materials; please cite
         "P. Giannozzi et al., J. Phys.:Condens. Matter 21 395502 (2009);
         "P. Giannozzi et al., J. Phys.:Condens. Matter 29 465901 (2017);
         "P. Giannozzi et al., J. Chem. Phys. 152 154105 (2020);
          URL http://www.quantum-espresso.org", 
     in publications or presentations arising from this work. More details at
     http://www.quantum-espresso.org/quote

     Parallel version (MPI), running on     8 processors

     MPI processes distributed on     1 nodes
     53511 MiB available memory on the printing compute node when the environment starts

     Reading input from /home/jvc/QEspresso7.2/ZnO_database/scripts/cell111_strain10%.in/ZnO-2.94-1.65-111.in
Warning: card &CELL ignored
Warning: card / ignored
Warning: card &FCP ignored
Warning: card / ignored
Warning: card &RISM ignored
Warning: card / ignored

     Current dimensions of program PWSCF are:
     Max number of different atomic species (ntypx) = 10
     Max number of k-points (npk) =  40000
     Max angular momentum in pseudopotentials (lmaxx) =  4
     file Zn.upf: wavefunction(s)  3D renormalized
     Message from routine setup:
     using ibrav=0 with symmetry is DISCOURAGED, use correct ibrav instead

     R & G space division:  proc/nbgrp/npool/nimage =       8
     Subspace diagonalization in iterative solution of the eigenvalue problem:
     a serial algorithm will be used


     Parallelization info
     --------------------
     sticks:   dense  smooth     PW     G-vecs:    dense   smooth      PW
     Min         105      53     15                 4133     1461     247
     Max         106      55     16                 4142     1464     254
     Sum         847     433    127                33125    11705    1997

     Using Slab Decomposition



     bravais-lattice index     =            0
     lattice parameter (alat)  =       5.5610  a.u.
     unit-cell volume          =     245.2348 (a.u.)^3
     number of atoms/cell      =            4
     number of atomic types    =            2
     number of electrons       =        36.00
     number of Kohn-Sham states=           18
     kinetic-energy cutoff     =      50.0000  Ry
     charge density cutoff     =     400.0000  Ry
     scf convergence threshold =      1.0E-08
     mixing beta               =       0.3000
     number of iterations used =            8  plain     mixing
     Exchange-correlation= PBE
                           (   1   4   3   4   0   0   0)

     celldm(1)=   5.560969  celldm(2)=   0.000000  celldm(3)=   0.000000
     celldm(4)=   0.000000  celldm(5)=   0.000000  celldm(6)=   0.000000

     crystal axes: (cart. coord. in units of alat)
               a(1) = (   1.000000   0.000000   0.000000 )  
               a(2) = (  -0.500000   0.866025   0.000000 )  
               a(3) = (   0.000000   0.000000   1.646646 )  

     reciprocal axes: (cart. coord. in units 2 pi/alat)
               b(1) = (  1.000000  0.577350 -0.000000 )  
               b(2) = (  0.000000  1.154701  0.000000 )  
               b(3) = (  0.000000 -0.000000  0.607295 )  


     PseudoPot. # 1 for Zn read from file:
     /home/jvc/QEspresso7.2/ZnO_database/pseudos/Zn.upf
     MD5 check sum: 7f56cabf9682ed8c977c2f7d0c5985c5
     Pseudo is Ultrasoft + core correction, Zval = 12.0
     Generated using &quot;atomic&quot; code by A. Dal Corso  v.6.2.2
     Using radial grid of 1201 points,  6 beta functions with: 
                l(1) =   0
                l(2) =   0
                l(3) =   1
                l(4) =   1
                l(5) =   2
                l(6) =   2
     Q(r) pseudized with 0 coefficients 


     PseudoPot. # 2 for O  read from file:
     /home/jvc/QEspresso7.2/ZnO_database/pseudos/O.upf
     MD5 check sum: 91400c9766925bcf19f520983a725ff0
     Pseudo is Ultrasoft + core correction, Zval =  6.0
     Generated using &quot;atomic&quot; code by A. Dal Corso  v.6.3MaX
     Using radial grid of 1095 points,  4 beta functions with: 
                l(1) =   0
                l(2) =   0
                l(3) =   1
                l(4) =   1
     Q(r) pseudized with 0 coefficients 


     atomic species   valence    mass     pseudopotential
        Zn            12.00    65.38000     Zn( 1.00)
        O              6.00    15.99900     O ( 1.00)

     12 Sym. Ops. (no inversion) found ( 6 have fractional translation)



   Cartesian axes

     site n.     atom                  positions (alat units)
         1           Zn  tau(   1) = (   0.0000000   0.0000000   0.0000000  )
         2           O   tau(   2) = (  -0.0000000   0.5773503   0.2092296  )
         3           Zn  tau(   3) = (  -0.0000000   0.5773503   0.8233228  )
         4           O   tau(   4) = (   0.0000000   0.0000000   1.0325524  )

     number of k points=    28
                       cart. coord. in units 2pi/alat
        k(    1) = (   0.0000000   0.0000000   0.0000000), wk =   0.0092593
        k(    2) = (   0.0000000   0.0000000   0.1012159), wk =   0.0185185
        k(    3) = (   0.0000000   0.0000000   0.2024317), wk =   0.0185185
        k(    4) = (   0.0000000   0.0000000  -0.3036476), wk =   0.0092593
        k(    5) = (   0.0000000   0.1924501   0.0000000), wk =   0.0555556
        k(    6) = (   0.0000000   0.1924501   0.1012159), wk =   0.1111111
        k(    7) = (   0.0000000   0.1924501   0.2024317), wk =   0.1111111
        k(    8) = (   0.0000000   0.1924501  -0.3036476), wk =   0.0555556
        k(    9) = (   0.0000000   0.3849002   0.0000000), wk =   0.0555556
        k(   10) = (   0.0000000   0.3849002   0.1012159), wk =   0.1111111
        k(   11) = (   0.0000000   0.3849002   0.2024317), wk =   0.1111111
        k(   12) = (   0.0000000   0.3849002  -0.3036476), wk =   0.0555556
        k(   13) = (   0.0000000  -0.5773503   0.0000000), wk =   0.0277778
        k(   14) = (   0.0000000  -0.5773503   0.1012159), wk =   0.0555556
        k(   15) = (   0.0000000  -0.5773503   0.2024317), wk =   0.0555556
        k(   16) = (   0.0000000  -0.5773503  -0.3036476), wk =   0.0277778
        k(   17) = (   0.1666667   0.2886751   0.0000000), wk =   0.0555556
        k(   18) = (   0.1666667   0.2886751   0.1012159), wk =   0.1111111
        k(   19) = (   0.1666667   0.2886751   0.2024317), wk =   0.1111111
        k(   20) = (   0.1666667   0.2886751  -0.3036476), wk =   0.0555556
        k(   21) = (   0.1666667   0.4811252   0.0000000), wk =   0.1111111
        k(   22) = (   0.1666667   0.4811252   0.1012159), wk =   0.2222222
        k(   23) = (   0.1666667   0.4811252   0.2024317), wk =   0.2222222
        k(   24) = (   0.1666667   0.4811252  -0.3036476), wk =   0.1111111
        k(   25) = (   0.3333333   0.5773503   0.0000000), wk =   0.0185185
        k(   26) = (   0.3333333   0.5773503   0.1012159), wk =   0.0370370
        k(   27) = (   0.3333333   0.5773503   0.2024317), wk =   0.0370370
        k(   28) = (   0.3333333   0.5773503  -0.3036476), wk =   0.0185185

     Dense  grid:    33125 G-vectors     FFT dimensions: (  36,  36,  60)

     Smooth grid:    11705 G-vectors     FFT dimensions: (  27,  27,  48)

     Estimated max dynamical RAM per process >      19.40 MB

     Estimated total dynamical RAM >     155.21 MB

     Check: negative core charge=   -0.000001

     Initial potential from superposition of free atoms

     starting charge      35.9925, renormalised to      36.0000
     Starting wfcs are   26 randomized atomic wfcs

     total cpu time spent up to now is        1.4 secs

     Self-consistent Calculation

     iteration #  1     ecut=    50.00 Ry     beta= 0.30
     Davidson diagonalization with overlap
     ethr =  1.00E-02,  avg # of iterations =  2.1

     total cpu time spent up to now is        2.2 secs

     total energy              =    -361.33208576 Ry
     estimated scf accuracy    <       0.67916054 Ry

     iteration #  2     ecut=    50.00 Ry     beta= 0.30
     Davidson diagonalization with overlap
     ethr =  1.89E-03,  avg # of iterations =  2.0

     total cpu time spent up to now is        3.1 secs

     total energy              =    -361.36190201 Ry
     estimated scf accuracy    <       0.14409373 Ry

     iteration #  3     ecut=    50.00 Ry     beta= 0.30
     Davidson diagonalization with overlap
     ethr =  4.00E-04,  avg # of iterations =  6.2

     total cpu time spent up to now is        4.6 secs

     total energy              =    -361.45275027 Ry
     estimated scf accuracy    <       0.09326402 Ry

     iteration #  4     ecut=    50.00 Ry     beta= 0.30
     Davidson diagonalization with overlap
     ethr =  2.59E-04,  avg # of iterations =  2.0

     total cpu time spent up to now is        5.4 secs

     total energy              =    -361.44794455 Ry
     estimated scf accuracy    <       0.02927353 Ry

     iteration #  5     ecut=    50.00 Ry     beta= 0.30
     Davidson diagonalization with overlap
     ethr =  8.13E-05,  avg # of iterations =  9.2

     total cpu time spent up to now is        7.5 secs

     total energy              =    -361.50056604 Ry
     estimated scf accuracy    <       0.48526209 Ry

     iteration #  6     ecut=    50.00 Ry     beta= 0.30
     Davidson diagonalization with overlap
     ethr =  8.13E-05,  avg # of iterations =  5.2

     total cpu time spent up to now is        8.8 secs

     total energy              =    -361.41671984 Ry
     estimated scf accuracy    <       0.20139659 Ry

     iteration #  7     ecut=    50.00 Ry     beta= 0.30
     Davidson diagonalization with overlap
     ethr =  8.13E-05,  avg # of iterations =  6.9

     total cpu time spent up to now is       10.4 secs

     total energy              =    -361.45997237 Ry
     estimated scf accuracy    <       0.00016704 Ry

     iteration #  8     ecut=    50.00 Ry     beta= 0.30
     Davidson diagonalization with overlap
     ethr =  4.64E-07,  avg # of iterations = 10.9

     total cpu time spent up to now is       12.7 secs

     total energy              =    -361.46041451 Ry
     estimated scf accuracy    <       0.00443405 Ry

     iteration #  9     ecut=    50.00 Ry     beta= 0.30
     Davidson diagonalization with overlap
     ethr =  4.64E-07,  avg # of iterations =  6.5

     total cpu time spent up to now is       14.3 secs

     total energy              =    -361.45991727 Ry
     estimated scf accuracy    <       0.00130476 Ry

     iteration # 10     ecut=    50.00 Ry     beta= 0.30
     Davidson diagonalization with overlap
     ethr =  4.64E-07,  avg # of iterations =  7.8

     total cpu time spent up to now is       16.1 secs

     total energy              =    -361.46024531 Ry
     estimated scf accuracy    <       0.00002516 Ry

     iteration # 11     ecut=    50.00 Ry     beta= 0.30
     Davidson diagonalization with overlap
     ethr =  6.99E-08,  avg # of iterations =  3.4

     total cpu time spent up to now is       17.1 secs

     total energy              =    -361.46024871 Ry
     estimated scf accuracy    <       0.00000248 Ry

     iteration # 12     ecut=    50.00 Ry     beta= 0.30
     Davidson diagonalization with overlap
     ethr =  6.90E-09,  avg # of iterations =  7.7

     total cpu time spent up to now is       18.8 secs

     total energy              =    -361.46025090 Ry
     estimated scf accuracy    <       0.00000640 Ry

     iteration # 13     ecut=    50.00 Ry     beta= 0.30
     Davidson diagonalization with overlap
     ethr =  6.90E-09,  avg # of iterations =  4.7

     total cpu time spent up to now is       20.0 secs

     total energy              =    -361.46025193 Ry
     estimated scf accuracy    <       0.00000010 Ry

     iteration # 14     ecut=    50.00 Ry     beta= 0.30
     Davidson diagonalization with overlap
     ethr =  2.64E-10,  avg # of iterations =  6.8

     total cpu time spent up to now is       21.5 secs

     total energy              =    -361.46025206 Ry
     estimated scf accuracy    <       0.00000001 Ry

     iteration # 15     ecut=    50.00 Ry     beta= 0.30
     Davidson diagonalization with overlap
     ethr =  3.32E-11,  avg # of iterations =  5.1

     total cpu time spent up to now is       22.7 secs

     End of self-consistent calculation

          k = 0.0000 0.0000 0.0000 (  1449 PWs)   bands (ev):

    -8.6969  -7.5152   3.7988   4.5004   4.5644   4.5644   4.8822   4.8822
     6.6818   6.6818   7.0466   7.0466   7.4343  10.8840  10.8840  11.8781
    12.0522  12.0522

          k = 0.0000 0.0000 0.1012 (  1467 PWs)   bands (ev):

    -8.6242  -7.6015   3.7780   4.4049   4.5765   4.5765   4.8506   4.8506
     6.7139   6.7139   7.0325   7.0325   7.7425  10.9615  10.9615  11.3449
    11.9740  11.9740

          k = 0.0000 0.0000 0.2024 (  1472 PWs)   bands (ev):

    -8.4214  -7.8317   3.7947   4.1751   4.6167   4.6167   4.7734   4.7734
     6.7981   6.7981   6.9841   6.9841   8.5167  10.4597  11.1747  11.1747
    11.7602  11.7602

          k = 0.0000 0.0000-0.3036 (  1496 PWs)   bands (ev):

    -8.1334  -8.1334   3.9355   3.9355   4.6857   4.6857   4.6857   4.6857
     6.8995   6.8995   6.8995   6.8995   9.4871   9.4871  11.4673  11.4673
    11.4673  11.4673

          k = 0.0000 0.1925 0.0000 (  1453 PWs)   bands (ev):

    -8.4500  -7.4014   4.0602   4.3383   4.6117   4.6743   4.8292   5.0550
     6.5533   6.6792   7.0675   7.0725   7.4313   9.8121  10.4187  10.9398
    11.6273  11.7985

          k = 0.0000 0.1925 0.1012 (  1449 PWs)   bands (ev):

    -8.3838  -7.4757   3.9659   4.2259   4.6360   4.6913   4.8333   5.0191
     6.6062   6.7105   7.0476   7.0736   7.7467   9.8962  10.5139  10.7554
    11.4934  11.7082

          k = 0.0000 0.1925 0.2024 (  1464 PWs)   bands (ev):

    -8.2002  -7.6758   3.8418   4.0242   4.6732   4.7427   4.7986   4.9298
     6.7327   6.7917   6.9873   7.0061   8.5612  10.0740  10.3545  10.7713
    11.0833  11.4603

          k = 0.0000 0.1925-0.3036 (  1464 PWs)   bands (ev):

    -7.9422  -7.9422   3.8627   3.8627   4.7320   4.7320   4.8270   4.8270
     6.8813   6.8813   6.8946   6.8946   9.4913   9.4913  10.5887  10.5887
    11.1182  11.1182

          k = 0.0000 0.3849 0.0000 (  1471 PWs)   bands (ev):

    -7.8849  -7.2026   3.8171   4.3447   4.8430   4.8889   5.2415   5.4792
     6.4413   6.8256   6.9524   7.1055   7.6802   8.0834   9.4365   9.5026
    10.8420  11.2241

          k = 0.0000 0.3849 0.1012 (  1469 PWs)   bands (ev):

    -7.8380  -7.2462   3.7624   4.1370   4.8751   4.9083   5.1930   5.4220
     6.5231   6.8425   7.0816   7.0956   7.8024   8.2452   9.4056   9.5721
    10.8428  11.1126

          k = 0.0000 0.3849 0.2024 (  1467 PWs)   bands (ev):

    -7.7101  -7.3675   3.6606   3.8192   4.9395   4.9682   5.0965   5.2796
     6.7033   6.8885   7.0235   7.0740   8.2181   8.6185   9.3784   9.9239
    10.6258  10.8052

          k = 0.0000 0.3849-0.3036 (  1462 PWs)   bands (ev):

    -7.5372  -7.5372   3.6495   3.6495   5.0025   5.0025   5.1121   5.1121
     6.9055   6.9055   6.9536   6.9536   8.5479   8.5479  10.0086  10.0086
    10.3748  10.3748

          k = 0.0000-0.5774 0.0000 (  1456 PWs)   bands (ev):

    -7.5195  -7.1614   3.9181   3.9636   4.8924   5.1263   5.3630   5.7573
     6.6580   7.0131   7.1406   7.2778   7.5116   7.8152   8.3715   8.8527
    10.2270  10.8921

          k = 0.0000-0.5774 0.1012 (  1472 PWs)   bands (ev):

    -7.4913  -7.1805   3.8304   3.8455   4.9342   5.1187   5.3276   5.6750
     6.7676   7.0165   7.1177   7.2692   7.5287   7.7364   8.6903   9.0225
    10.2972  10.7703

          k = 0.0000-0.5774 0.2024 (  1480 PWs)   bands (ev):

    -7.4168  -7.2366   3.6419   3.6558   5.0575   5.1304   5.2519   5.4760
     6.9628   7.0278   7.0784   7.2236   7.5657   7.6545   9.3621   9.4423
    10.3257  10.4333

          k = 0.0000-0.5774-0.3036 (  1464 PWs)   bands (ev):

    -7.3220  -7.3220   3.5614   3.5614   5.1787   5.1787   5.2491   5.2491
     7.0479   7.0479   7.1220   7.1220   7.6056   7.6056   9.9560   9.9560
    10.0107  10.0107

          k = 0.1667 0.2887 0.0000 (  1466 PWs)   bands (ev):

    -8.0411  -7.2454   4.0443   4.2839   4.7803   4.8950   5.0021   5.3433
     6.4453   6.6904   7.0525   7.0890   7.6121   8.7248   9.2517   9.9915
    11.1358  11.1953

          k = 0.1667 0.2887 0.1012 (  1465 PWs)   bands (ev):

    -7.9880  -7.2982   3.9782   4.1259   4.7741   4.8155   5.0566   5.3012
     6.5151   6.7666   7.0672   7.1267   7.8327   8.8429   9.3387   9.9014
    11.0776  11.0871

          k = 0.1667 0.2887 0.2024 (  1468 PWs)   bands (ev):

    -7.8423  -7.4433   3.8395   3.8675   4.7782   4.8000   5.0637   5.1996
     6.6862   6.8522   7.0111   7.0679   8.5187   9.2332   9.3572   9.9144
    10.7634  10.7694

          k = 0.1667 0.2887-0.3036 (  1474 PWs)   bands (ev):

    -7.6427  -7.6427   3.7657   3.7657   4.7972   4.7972   5.1003   5.1003
     6.8837   6.8837   6.9417   6.9417   9.0540   9.0540   9.9483   9.9483
    10.3919  10.3919

          k = 0.1667 0.4811 0.0000 (  1466 PWs)   bands (ev):

    -7.5372  -7.1537   4.0435   4.3037   4.8180   5.0449   5.4449   5.6974
     6.5709   6.6471   7.1573   7.2196   7.5736   8.0671   8.2422   8.8292
    10.1719  10.5583

          k = 0.1667 0.4811 0.1012 (  1468 PWs)   bands (ev):

    -7.5075  -7.1746   3.9735   4.1721   4.7933   4.9996   5.4230   5.6151
     6.5904   6.8418   7.1505   7.3198   7.4955   8.2029   8.3423   8.9403
    10.1810  10.4875

          k = 0.1667 0.4811 0.2024 (  1457 PWs)   bands (ev):

    -7.4287  -7.2357   3.8319   3.9183   4.8006   4.9391   5.3900   5.4778
     6.7344   6.9301   7.1609   7.3460   7.6188   8.1386   8.7928   9.3633
     9.9636  10.4094

          k = 0.1667 0.4811-0.3036 (  1460 PWs)   bands (ev):

    -7.3278  -7.3278   3.7814   3.7814   4.8675   4.8675   5.3947   5.3947
     6.8753   6.8753   7.2215   7.2215   7.9149   7.9149   9.3112   9.3112
    10.1135  10.1135

          k = 0.3333 0.5774 0.0000 (  1458 PWs)   bands (ev):

    -7.2470  -7.2470   4.2490   4.8727   4.8727   4.8840   5.6529   5.6529
     6.4942   6.7202   6.7202   6.7545   7.4705   8.1184   8.1184   9.4336
     9.4336   9.6780

          k = 0.3333 0.5774 0.1012 (  1464 PWs)   bands (ev):

    -7.2415  -7.2415   4.2778   4.6615   4.6615   4.8181   5.6718   5.6718
     6.5175   6.7393   6.9163   6.9163   7.6146   8.0384   8.0384   9.5109
     9.6048   9.6048

          k = 0.3333 0.5774 0.2024 (  1455 PWs)   bands (ev):

    -7.2302  -7.2302   4.3393   4.3393   4.3633   4.6652   5.6807   5.6807
     6.5720   6.6971   7.2765   7.2765   7.8556   7.8556   8.0014   9.0793
     9.9418   9.9418

          k = 0.3333 0.5774-0.3036 (  1464 PWs)   bands (ev):

    -7.2246  -7.2246   4.2054   4.2054   4.4987   4.4987   5.6800   5.6800
     6.6370   6.6370   7.5456   7.5456   7.6571   7.6571   8.5292   8.5292
    10.1111  10.1111

     highest occupied level (ev):    12.0522

!    total energy              =    -361.46025207 Ry
     estimated scf accuracy    <          6.3E-09 Ry

     The total energy is the sum of the following terms:
     one-electron contribution =    -118.97731085 Ry
     hartree contribution      =     106.10104747 Ry
     xc contribution           =    -110.26737525 Ry
     ewald contribution        =    -238.31661344 Ry

     convergence has been achieved in  15 iterations

     Forces acting on atoms (cartesian axes, Ry/au):

     atom    1 type  1   force =    -0.00000000   -0.00000000   -0.00437977
     atom    2 type  2   force =    -0.00000000    0.00000000    0.00437977
     atom    3 type  1   force =     0.00000000    0.00000000   -0.00437977
     atom    4 type  2   force =     0.00000000    0.00000000    0.00437977
     The non-local contrib.  to forces
     atom    1 type  1   force =    -0.00000000   -0.00000000   -0.01829060
     atom    2 type  2   force =     0.00000000   -0.00000000   -0.01723464
     atom    3 type  1   force =     0.00000000    0.00000000   -0.01829060
     atom    4 type  2   force =     0.00000000    0.00000000   -0.01723464
     The ionic contribution  to forces
     atom    1 type  1   force =    -0.00000000    0.00000000   -0.30004813
     atom    2 type  2   force =     0.00000000   -0.00000000    0.30004813
     atom    3 type  1   force =     0.00000000   -0.00000000   -0.30004813
     atom    4 type  2   force =    -0.00000000    0.00000000    0.30004813
     The local contribution  to forces
     atom    1 type  1   force =    -0.00000000   -0.00000000    0.31303774
     atom    2 type  2   force =     0.00000001   -0.00000001   -0.27851130
     atom    3 type  1   force =     0.00000004   -0.00000002    0.31303774
     atom    4 type  2   force =     0.00000000    0.00000000   -0.27851131
     The core correction contribution to forces
     atom    1 type  1   force =    -0.00000000    0.00000000    0.00090660
     atom    2 type  2   force =    -0.00000000    0.00000000    0.00010820
     atom    3 type  1   force =     0.00000001   -0.00000000    0.00090660
     atom    4 type  2   force =    -0.00000000    0.00000000    0.00010820
     The Hubbard contrib.    to forces
     atom    1 type  1   force =     0.00000000    0.00000000    0.00000000
     atom    2 type  2   force =     0.00000000    0.00000000    0.00000000
     atom    3 type  1   force =     0.00000000    0.00000000    0.00000000
     atom    4 type  2   force =     0.00000000    0.00000000    0.00000000
     The SCF correction term to forces
     atom    1 type  1   force =    -0.00000000    0.00000000    0.00001337
     atom    2 type  2   force =     0.00000000   -0.00000000   -0.00003186
     atom    3 type  1   force =     0.00000000   -0.00000000    0.00001337
     atom    4 type  2   force =    -0.00000000    0.00000000   -0.00003186

     Total force =     0.008760     Total SCF correction =     0.000049

     Writing all to output data dir ./ZnO-2.94-1.65-111.in.save/

     init_run     :      1.61s CPU      1.11s WALL (       1 calls)
     electrons    :     55.89s CPU     21.32s WALL (       1 calls)
     forces       :      0.54s CPU      0.25s WALL (       1 calls)

     Called by init_run:
     wfcinit      :      0.86s CPU      0.36s WALL (       1 calls)
     potinit      :      0.20s CPU      0.20s WALL (       1 calls)
     hinit0       :      0.47s CPU      0.47s WALL (       1 calls)

     Called by electrons:
     c_bands      :     48.28s CPU     18.27s WALL (      15 calls)
     sum_band     :      5.79s CPU      2.31s WALL (      15 calls)
     v_of_rho     :      0.38s CPU      0.18s WALL (      16 calls)
     newd         :      1.36s CPU      0.55s WALL (      16 calls)
     mix_rho      :      0.06s CPU      0.03s WALL (      15 calls)

     Called by c_bands:
     init_us_2    :      0.47s CPU      0.17s WALL (     896 calls)
     init_us_2:cp :      0.46s CPU      0.17s WALL (     896 calls)
     cegterg      :     47.22s CPU     17.85s WALL (     420 calls)

     Called by *egterg:
     cdiaghg      :      8.35s CPU      2.83s WALL (    2841 calls)
     h_psi        :     32.49s CPU     13.33s WALL (    2869 calls)
     s_psi        :      0.68s CPU      0.21s WALL (    2869 calls)
     g_psi        :      0.21s CPU      0.06s WALL (    2421 calls)

     Called by h_psi:
     h_psi:calbec :      1.21s CPU      0.46s WALL (    2869 calls)
     vloc_psi     :     30.38s CPU     12.56s WALL (    2869 calls)
     add_vuspsi   :      0.66s CPU      0.23s WALL (    2869 calls)

     General routines
     calbec       :      1.52s CPU      0.57s WALL (    3401 calls)
     fft          :      0.46s CPU      0.31s WALL (     217 calls)
     ffts         :      0.11s CPU      0.10s WALL (      31 calls)
     fftw         :     30.30s CPU     12.57s WALL (   74314 calls)
     interpolate  :      0.12s CPU      0.11s WALL (      16 calls)

     Parallel routines

     PWSCF        :     58.42s CPU     23.10s WALL


   This run was terminated on:  12:20:51   8Jul2025            

=------------------------------------------------------------------------------=
   JOB DONE.
=------------------------------------------------------------------------------=
Note: The following floating-point exceptions are signalling: IEEE_INVALID_FLAG
