Authorization required, but no authorization protocol specified

Authorization required, but no authorization protocol specified

Authorization required, but no authorization protocol specified

Authorization required, but no authorization protocol specified

Authorization required, but no authorization protocol specified

Authorization required, but no authorization protocol specified

Authorization required, but no authorization protocol specified

Authorization required, but no authorization protocol specified

Authorization required, but no authorization protocol specified

Authorization required, but no authorization protocol specified


     Program PWSCF v.7.2 starts on  8Jul2025 at 12:48:33 

     This program is part of the open-source Quantum ESPRESSO suite
     for quantum simulation of materials; please cite
         "P. Giannozzi et al., J. Phys.:Condens. Matter 21 395502 (2009);
         "P. Giannozzi et al., J. Phys.:Condens. Matter 29 465901 (2017);
         "P. Giannozzi et al., J. Chem. Phys. 152 154105 (2020);
          URL http://www.quantum-espresso.org", 
     in publications or presentations arising from this work. More details at
     http://www.quantum-espresso.org/quote

     Parallel version (MPI), running on     8 processors

     MPI processes distributed on     1 nodes
     52686 MiB available memory on the printing compute node when the environment starts

     Reading input from /home/jvc/QEspresso7.2/ZnO_database/scripts/cell111_strain10%.in/ZnO-3.20-1.78-111.in
Warning: card &CELL ignored
Warning: card / ignored
Warning: card &FCP ignored
Warning: card / ignored
Warning: card &RISM ignored
Warning: card / ignored

     Current dimensions of program PWSCF are:
     Max number of different atomic species (ntypx) = 10
     Max number of k-points (npk) =  40000
     Max angular momentum in pseudopotentials (lmaxx) =  4
     file Zn.upf: wavefunction(s)  3D renormalized
     Message from routine setup:
     using ibrav=0 with symmetry is DISCOURAGED, use correct ibrav instead

     R & G space division:  proc/nbgrp/npool/nimage =       8
     Subspace diagonalization in iterative solution of the eigenvalue problem:
     a serial algorithm will be used


     Parallelization info
     --------------------
     sticks:   dense  smooth     PW     G-vecs:    dense   smooth      PW
     Min         126      63     18                 5776     2044     334
     Max         127      65     19                 5781     2047     341
     Sum        1015     511    151                46227    16363    2721

     Using Slab Decomposition



     bravais-lattice index     =            0
     lattice parameter (alat)  =       6.0553  a.u.
     unit-cell volume          =     341.4486 (a.u.)^3
     number of atoms/cell      =            4
     number of atomic types    =            2
     number of electrons       =        36.00
     number of Kohn-Sham states=           18
     kinetic-energy cutoff     =      50.0000  Ry
     charge density cutoff     =     400.0000  Ry
     scf convergence threshold =      1.0E-08
     mixing beta               =       0.3000
     number of iterations used =            8  plain     mixing
     Exchange-correlation= PBE
                           (   1   4   3   4   0   0   0)

     celldm(1)=   6.055277  celldm(2)=   0.000000  celldm(3)=   0.000000
     celldm(4)=   0.000000  celldm(5)=   0.000000  celldm(6)=   0.000000

     crystal axes: (cart. coord. in units of alat)
               a(1) = (   1.000000   0.000000   0.000000 )  
               a(2) = (  -0.500000   0.866025   0.000000 )  
               a(3) = (   0.000000   0.000000   1.775794 )  

     reciprocal axes: (cart. coord. in units 2 pi/alat)
               b(1) = (  1.000000  0.577350 -0.000000 )  
               b(2) = (  0.000000  1.154701  0.000000 )  
               b(3) = (  0.000000 -0.000000  0.563128 )  


     PseudoPot. # 1 for Zn read from file:
     /home/jvc/QEspresso7.2/ZnO_database/pseudos/Zn.upf
     MD5 check sum: 7f56cabf9682ed8c977c2f7d0c5985c5
     Pseudo is Ultrasoft + core correction, Zval = 12.0
     Generated using &quot;atomic&quot; code by A. Dal Corso  v.6.2.2
     Using radial grid of 1201 points,  6 beta functions with: 
                l(1) =   0
                l(2) =   0
                l(3) =   1
                l(4) =   1
                l(5) =   2
                l(6) =   2
     Q(r) pseudized with 0 coefficients 


     PseudoPot. # 2 for O  read from file:
     /home/jvc/QEspresso7.2/ZnO_database/pseudos/O.upf
     MD5 check sum: 91400c9766925bcf19f520983a725ff0
     Pseudo is Ultrasoft + core correction, Zval =  6.0
     Generated using &quot;atomic&quot; code by A. Dal Corso  v.6.3MaX
     Using radial grid of 1095 points,  4 beta functions with: 
                l(1) =   0
                l(2) =   0
                l(3) =   1
                l(4) =   1
     Q(r) pseudized with 0 coefficients 


     atomic species   valence    mass     pseudopotential
        Zn            12.00    65.38000     Zn( 1.00)
        O              6.00    15.99900     O ( 1.00)

     12 Sym. Ops. (no inversion) found ( 6 have fractional translation)



   Cartesian axes

     site n.     atom                  positions (alat units)
         1           Zn  tau(   1) = (   0.0000000   0.0000000   0.0000000  )
         2           O   tau(   2) = (  -0.0000000   0.5773503   0.2562391  )
         3           Zn  tau(   3) = (  -0.0000000   0.5773503   0.8878971  )
         4           O   tau(   4) = (   0.0000000   0.0000000   1.1441362  )

     number of k points=    28
                       cart. coord. in units 2pi/alat
        k(    1) = (   0.0000000   0.0000000   0.0000000), wk =   0.0092593
        k(    2) = (   0.0000000   0.0000000   0.0938547), wk =   0.0185185
        k(    3) = (   0.0000000   0.0000000   0.1877094), wk =   0.0185185
        k(    4) = (   0.0000000   0.0000000  -0.2815642), wk =   0.0092593
        k(    5) = (   0.0000000   0.1924501   0.0000000), wk =   0.0555556
        k(    6) = (   0.0000000   0.1924501   0.0938547), wk =   0.1111111
        k(    7) = (   0.0000000   0.1924501   0.1877094), wk =   0.1111111
        k(    8) = (   0.0000000   0.1924501  -0.2815642), wk =   0.0555556
        k(    9) = (   0.0000000   0.3849002   0.0000000), wk =   0.0555556
        k(   10) = (   0.0000000   0.3849002   0.0938547), wk =   0.1111111
        k(   11) = (   0.0000000   0.3849002   0.1877094), wk =   0.1111111
        k(   12) = (   0.0000000   0.3849002  -0.2815642), wk =   0.0555556
        k(   13) = (   0.0000000  -0.5773503   0.0000000), wk =   0.0277778
        k(   14) = (   0.0000000  -0.5773503   0.0938547), wk =   0.0555556
        k(   15) = (   0.0000000  -0.5773503   0.1877094), wk =   0.0555556
        k(   16) = (   0.0000000  -0.5773503  -0.2815642), wk =   0.0277778
        k(   17) = (   0.1666667   0.2886751   0.0000000), wk =   0.0555556
        k(   18) = (   0.1666667   0.2886751   0.0938547), wk =   0.1111111
        k(   19) = (   0.1666667   0.2886751   0.1877094), wk =   0.1111111
        k(   20) = (   0.1666667   0.2886751  -0.2815642), wk =   0.0555556
        k(   21) = (   0.1666667   0.4811252   0.0000000), wk =   0.1111111
        k(   22) = (   0.1666667   0.4811252   0.0938547), wk =   0.2222222
        k(   23) = (   0.1666667   0.4811252   0.1877094), wk =   0.2222222
        k(   24) = (   0.1666667   0.4811252  -0.2815642), wk =   0.1111111
        k(   25) = (   0.3333333   0.5773503   0.0000000), wk =   0.0185185
        k(   26) = (   0.3333333   0.5773503   0.0938547), wk =   0.0370370
        k(   27) = (   0.3333333   0.5773503   0.1877094), wk =   0.0370370
        k(   28) = (   0.3333333   0.5773503  -0.2815642), wk =   0.0185185

     Dense  grid:    46227 G-vectors     FFT dimensions: (  45,  45,  72)

     Smooth grid:    16363 G-vectors     FFT dimensions: (  27,  27,  50)

     Estimated max dynamical RAM per process >      26.05 MB

     Estimated total dynamical RAM >     208.40 MB

     Check: negative core charge=   -0.000002

     Initial potential from superposition of free atoms

     starting charge      35.9925, renormalised to      36.0000
     Starting wfcs are   26 randomized atomic wfcs

     total cpu time spent up to now is        1.6 secs

     Self-consistent Calculation

     iteration #  1     ecut=    50.00 Ry     beta= 0.30
     Davidson diagonalization with overlap
     ethr =  1.00E-02,  avg # of iterations =  1.7

     total cpu time spent up to now is        2.5 secs

     total energy              =    -361.46308995 Ry
     estimated scf accuracy    <       0.70986536 Ry

     iteration #  2     ecut=    50.00 Ry     beta= 0.30
     Davidson diagonalization with overlap
     ethr =  1.97E-03,  avg # of iterations =  2.0

     total cpu time spent up to now is        3.6 secs

     total energy              =    -361.57021924 Ry
     estimated scf accuracy    <       0.08502349 Ry

     iteration #  3     ecut=    50.00 Ry     beta= 0.30
     Davidson diagonalization with overlap
     ethr =  2.36E-04,  avg # of iterations =  6.5

     total cpu time spent up to now is        5.4 secs

     total energy              =    -361.59820312 Ry
     estimated scf accuracy    <       0.06163047 Ry

     iteration #  4     ecut=    50.00 Ry     beta= 0.30
     Davidson diagonalization with overlap
     ethr =  1.71E-04,  avg # of iterations =  8.0

     total cpu time spent up to now is        7.5 secs

     total energy              =    -361.63794195 Ry
     estimated scf accuracy    <       0.23924771 Ry

     iteration #  5     ecut=    50.00 Ry     beta= 0.30
     Davidson diagonalization with overlap
     ethr =  1.71E-04,  avg # of iterations =  2.0

     total cpu time spent up to now is        8.6 secs

     total energy              =    -361.52766990 Ry
     estimated scf accuracy    <       0.13707663 Ry

     iteration #  6     ecut=    50.00 Ry     beta= 0.30
     Davidson diagonalization with overlap
     ethr =  1.71E-04,  avg # of iterations =  9.8

     total cpu time spent up to now is       10.9 secs

     total energy              =    -361.56090209 Ry
     estimated scf accuracy    <       0.83651870 Ry

     iteration #  7     ecut=    50.00 Ry     beta= 0.30
     Davidson diagonalization with overlap
     ethr =  1.71E-04,  avg # of iterations =  7.0

     total cpu time spent up to now is       12.8 secs

     total energy              =    -361.62478596 Ry
     estimated scf accuracy    <       0.06877009 Ry

     iteration #  8     ecut=    50.00 Ry     beta= 0.30
     Davidson diagonalization with overlap
     ethr =  1.71E-04,  avg # of iterations =  1.3

     total cpu time spent up to now is       13.7 secs

     total energy              =    -361.62047306 Ry
     estimated scf accuracy    <       0.03667062 Ry

     iteration #  9     ecut=    50.00 Ry     beta= 0.30
     Davidson diagonalization with overlap
     ethr =  1.02E-04,  avg # of iterations =  2.7

     total cpu time spent up to now is       14.8 secs

     total energy              =    -361.62724558 Ry
     estimated scf accuracy    <       0.00981580 Ry

     iteration # 10     ecut=    50.00 Ry     beta= 0.30
     Davidson diagonalization with overlap
     ethr =  2.73E-05,  avg # of iterations =  2.7

     total cpu time spent up to now is       15.8 secs

     total energy              =    -361.62519200 Ry
     estimated scf accuracy    <       0.00958593 Ry

     iteration # 11     ecut=    50.00 Ry     beta= 0.30
     Davidson diagonalization with overlap
     ethr =  2.66E-05,  avg # of iterations =  2.9

     total cpu time spent up to now is       16.8 secs

     total energy              =    -361.62535290 Ry
     estimated scf accuracy    <       0.00254865 Ry

     iteration # 12     ecut=    50.00 Ry     beta= 0.30
     Davidson diagonalization with overlap
     ethr =  7.08E-06,  avg # of iterations =  5.8

     total cpu time spent up to now is       18.4 secs

     total energy              =    -361.62718051 Ry
     estimated scf accuracy    <       0.00032203 Ry

     iteration # 13     ecut=    50.00 Ry     beta= 0.30
     Davidson diagonalization with overlap
     ethr =  8.95E-07,  avg # of iterations =  4.7

     total cpu time spent up to now is       19.7 secs

     total energy              =    -361.62702196 Ry
     estimated scf accuracy    <       0.00106773 Ry

     iteration # 14     ecut=    50.00 Ry     beta= 0.30
     Davidson diagonalization with overlap
     ethr =  8.95E-07,  avg # of iterations =  2.0

     total cpu time spent up to now is       20.6 secs

     total energy              =    -361.62686533 Ry
     estimated scf accuracy    <       0.00057131 Ry

     iteration # 15     ecut=    50.00 Ry     beta= 0.30
     Davidson diagonalization with overlap
     ethr =  8.95E-07,  avg # of iterations =  3.9

     total cpu time spent up to now is       21.9 secs

     total energy              =    -361.62699788 Ry
     estimated scf accuracy    <       0.00002852 Ry

     iteration # 16     ecut=    50.00 Ry     beta= 0.30
     Davidson diagonalization with overlap
     ethr =  7.92E-08,  avg # of iterations =  5.1

     total cpu time spent up to now is       23.3 secs

     total energy              =    -361.62701118 Ry
     estimated scf accuracy    <       0.00008032 Ry

     iteration # 17     ecut=    50.00 Ry     beta= 0.30
     Davidson diagonalization with overlap
     ethr =  7.92E-08,  avg # of iterations =  1.4

     total cpu time spent up to now is       24.2 secs

     total energy              =    -361.62695617 Ry
     estimated scf accuracy    <       0.00008498 Ry

     iteration # 18     ecut=    50.00 Ry     beta= 0.30
     Davidson diagonalization with overlap
     ethr =  7.92E-08,  avg # of iterations =  7.8

     total cpu time spent up to now is       26.2 secs

     total energy              =    -361.62699225 Ry
     estimated scf accuracy    <       0.00004141 Ry

     iteration # 19     ecut=    50.00 Ry     beta= 0.30
     Davidson diagonalization with overlap
     ethr =  7.92E-08,  avg # of iterations =  1.2

     total cpu time spent up to now is       27.1 secs

     total energy              =    -361.62699043 Ry
     estimated scf accuracy    <       0.00002543 Ry

     iteration # 20     ecut=    50.00 Ry     beta= 0.30
     Davidson diagonalization with overlap
     ethr =  7.06E-08,  avg # of iterations =  1.1

     total cpu time spent up to now is       28.0 secs

     total energy              =    -361.62698430 Ry
     estimated scf accuracy    <       0.00001724 Ry

     iteration # 21     ecut=    50.00 Ry     beta= 0.30
     Davidson diagonalization with overlap
     ethr =  4.79E-08,  avg # of iterations =  3.8

     total cpu time spent up to now is       29.1 secs

     total energy              =    -361.62698738 Ry
     estimated scf accuracy    <       0.00000079 Ry

     iteration # 22     ecut=    50.00 Ry     beta= 0.30
     Davidson diagonalization with overlap
     ethr =  2.19E-09,  avg # of iterations =  8.5

     total cpu time spent up to now is       31.3 secs

     total energy              =    -361.62698907 Ry
     estimated scf accuracy    <       0.00000247 Ry

     iteration # 23     ecut=    50.00 Ry     beta= 0.30
     Davidson diagonalization with overlap
     ethr =  2.19E-09,  avg # of iterations =  4.3

     total cpu time spent up to now is       32.5 secs

     total energy              =    -361.62698915 Ry
     estimated scf accuracy    <       0.00000038 Ry

     iteration # 24     ecut=    50.00 Ry     beta= 0.30
     Davidson diagonalization with overlap
     ethr =  1.07E-09,  avg # of iterations =  5.0

     total cpu time spent up to now is       33.9 secs

     End of self-consistent calculation

          k = 0.0000 0.0000 0.0000 (  2029 PWs)   bands (ev):

   -11.1984 -10.6668   0.7781   0.8241   1.0351   1.0351   1.2310   1.2310
     1.9401   1.9401   2.0895   2.0895   2.2737   5.7610   5.7610   6.1460
     6.4394   6.4394

          k = 0.0000 0.0000 0.0939 (  2016 PWs)   bands (ev):

   -11.1647 -10.7045   0.7511   0.7564   1.0455   1.0455   1.2147   1.2147
     1.9519   1.9519   2.0817   2.0817   2.5157   5.5342   5.8072   5.8072
     6.3945   6.3945

          k = 0.0000 0.0000 0.1877 (  2040 PWs)   bands (ev):

   -11.0715 -10.8060   0.6646   0.6899   1.0753   1.0753   1.1725   1.1725
     1.9823   1.9823   2.0577   2.0577   3.1018   4.6862   5.9326   5.9326
     6.2715   6.2715

          k = 0.0000 0.0000-0.2816 (  2040 PWs)   bands (ev):

   -10.9408 -10.9408   0.6450   0.6450   1.1209   1.1209   1.1209   1.1209
     2.0217   2.0217   2.0217   2.0217   3.8568   3.8568   6.1026   6.1026
     6.1026   6.1026

          k = 0.0000 0.1925 0.0000 (  2016 PWs)   bands (ev):

   -11.0561 -10.5881   0.8515   0.8900   1.0899   1.1168   1.2520   1.3349
     1.8806   1.9434   2.0935   2.1344   2.2486   4.8276   5.3007   5.4821
     6.0157   6.2983

          k = 0.0000 0.1925 0.0939 (  2030 PWs)   bands (ev):

   -11.0261 -10.6208   0.7855   0.8906   1.0417   1.1035   1.2367   1.3152
     1.8999   1.9539   2.0839   2.0987   2.5543   4.8343   5.1629   5.5383
     5.9061   6.2446

          k = 0.0000 0.1925 0.1877 (  2033 PWs)   bands (ev):

   -10.9431 -10.7092   0.7099   0.7597   1.0658   1.1424   1.1898   1.2641
     1.9455   1.9822   2.0564   2.0572   3.1743   4.5132   5.1597   5.6619
     5.6902   6.0973

          k = 0.0000 0.1925-0.2816 (  2038 PWs)   bands (ev):

   -10.8275 -10.8275   0.6881   0.6881   1.1275   1.1275   1.2002   1.2002
     2.0023   2.0023   2.0201   2.0201   3.8761   3.8761   5.3865   5.3865
     5.8949   5.8949

          k = 0.0000 0.3849 0.0000 (  2052 PWs)   bands (ev):

   -10.7420 -10.4417   0.7137   0.9599   1.1550   1.3496   1.5106   1.5680
     1.9053   2.0247   2.1106   2.2608   2.4808   3.2913   4.2696   4.9084
     5.4976   5.9919

          k = 0.0000 0.3849 0.0939 (  2038 PWs)   bands (ev):

   -10.7219 -10.4618   0.6915   0.9188   1.1783   1.3167   1.4381   1.5352
     1.9060   2.0296   2.1027   2.1734   2.7615   3.3965   4.2223   4.9858
     5.4594   5.9218

          k = 0.0000 0.3849 0.1877 (  2044 PWs)   bands (ev):

   -10.6669 -10.5167   0.6607   0.7925   1.2445   1.2827   1.3619   1.4495
     1.9455   2.0426   2.0837   2.0902   3.1198   3.5372   4.3215   5.1918
     5.2453   5.7296

          k = 0.0000 0.3849-0.2816 (  2040 PWs)   bands (ev):

   -10.5918 -10.5918   0.6849   0.6849   1.3079   1.3079   1.3422   1.3422
     2.0129   2.0129   2.0619   2.0619   3.3922   3.3922   4.7956   4.7956
     5.4640   5.4640

          k = 0.0000-0.5774 0.0000 (  2042 PWs)   bands (ev):

   -10.5510 -10.3922   0.7854   0.9508   1.1644   1.2402   1.6911   1.7313
     1.9476   2.1130   2.1389   2.2308   2.5275   3.2726   3.6801   4.5969
     4.9401   5.8260

          k = 0.0000-0.5774 0.0939 (  2042 PWs)   bands (ev):

   -10.5397 -10.4021   0.7531   0.8861   1.1926   1.2665   1.6469   1.6688
     1.9833   2.1137   2.1342   2.2268   2.5615   3.1760   3.8833   4.6877
     5.0041   5.7477

          k = 0.0000-0.5774 0.1877 (  2046 PWs)   bands (ev):

   -10.5093 -10.4298   0.6979   0.7643   1.2742   1.3308   1.5340   1.5397
     2.0764   2.1155   2.1257   2.2088   2.6445   2.9745   4.3466   4.9257
     5.0299   5.5330

          k = 0.0000-0.5774-0.2816 (  2056 PWs)   bands (ev):

   -10.4688 -10.4688   0.6902   0.6902   1.3963   1.3963   1.4217   1.4217
     2.1191   2.1191   2.1615   2.1615   2.7817   2.7817   4.8015   4.8015
     5.2348   5.2348

          k = 0.1667 0.2887 0.0000 (  2031 PWs)   bands (ev):

   -10.8266 -10.4755   0.8374   0.9628   1.0301   1.2834   1.4882   1.5682
     1.8294   1.9456   2.1032   2.2417   2.3680   4.0420   4.1771   4.9896
     5.7113   5.9108

          k = 0.1667 0.2887 0.0939 (  2038 PWs)   bands (ev):

   -10.8035 -10.4994   0.7918   0.9323   1.0687   1.2519   1.4241   1.4613
     1.8523   1.9903   2.0955   2.1630   2.7005   4.1377   4.1408   5.0054
     5.6386   5.8363

          k = 0.1667 0.2887 0.1877 (  2043 PWs)   bands (ev):

   -10.7399 -10.5643   0.7293   0.8204   1.1350   1.2192   1.3179   1.3923
     1.9136   2.0213   2.0769   2.0878   3.2247   3.9736   4.4410   5.1174
     5.3769   5.6367

          k = 0.1667 0.2887-0.2816 (  2030 PWs)   bands (ev):

   -10.6524 -10.6524   0.7289   0.7289   1.1973   1.1973   1.3180   1.3180
     1.9937   1.9937   2.0562   2.0562   3.6671   3.6671   4.8996   4.8996
     5.3780   5.3780

          k = 0.1667 0.4811 0.0000 (  2045 PWs)   bands (ev):

   -10.5578 -10.3894   0.8323   1.0605   1.1721   1.4325   1.5263   1.6787
     1.8928   1.9668   2.1789   2.3774   2.6915   3.2196   3.8333   4.1052
     5.0585   5.4922

          k = 0.1667 0.4811 0.0939 (  2038 PWs)   bands (ev):

   -10.5459 -10.4000   0.8244   0.9939   1.1818   1.3953   1.5122   1.6306
     1.9025   2.0096   2.1814   2.3420   2.7133   3.2702   3.9168   4.2219
     5.0944   5.4021

          k = 0.1667 0.4811 0.1877 (  2038 PWs)   bands (ev):

   -10.5138 -10.4295   0.7977   0.8844   1.1810   1.3634   1.4701   1.5587
     1.9512   2.0383   2.1913   2.2692   2.8286   3.1872   4.2474   4.5315
     5.0309   5.2088

          k = 0.1667 0.4811-0.2816 (  2046 PWs)   bands (ev):

   -10.4710 -10.4710   0.8035   0.8035   1.2583   1.2583   1.5025   1.5025
     2.0100   2.0100   2.2163   2.2163   3.0059   3.0059   4.6311   4.6311
     4.9785   4.9785

          k = 0.3333 0.5774 0.0000 (  2043 PWs)   bands (ev):

   -10.4147 -10.4147   0.8120   1.3084   1.3084   1.5478   1.6742   1.6742
     1.8560   1.9452   2.2216   2.2216   3.0187   3.0187   3.1137   4.4925
     4.4925   4.9860

          k = 0.3333 0.5774 0.0939 (  2046 PWs)   bands (ev):

   -10.4138 -10.4138   0.8430   1.2200   1.2200   1.4564   1.7143   1.7143
     1.8694   1.9408   2.2564   2.2564   2.9608   2.9608   3.2598   4.6184
     4.6184   4.8588

          k = 0.3333 0.5774 0.1877 (  2043 PWs)   bands (ev):

   -10.4119 -10.4119   0.9342   1.0847   1.0847   1.2688   1.7562   1.7562
     1.8908   1.9288   2.3318   2.3318   2.8548   2.8548   3.6209   4.5221
     4.8558   4.8558

          k = 0.3333 0.5774-0.2816 (  2040 PWs)   bands (ev):

   -10.4110 -10.4110   1.0275   1.0275   1.0811   1.0811   1.7686   1.7686
     1.9112   1.9112   2.3746   2.3746   2.8016   2.8016   4.0752   4.0752
     4.9701   4.9701

     highest occupied level (ev):     6.4394

!    total energy              =    -361.62698932 Ry
     estimated scf accuracy    <          4.2E-09 Ry

     The total energy is the sum of the following terms:
     one-electron contribution =    -157.57356296 Ry
     hartree contribution      =     119.19956764 Ry
     xc contribution           =    -109.45287581 Ry
     ewald contribution        =    -213.80011819 Ry

     convergence has been achieved in  24 iterations

     Forces acting on atoms (cartesian axes, Ry/au):

     atom    1 type  1   force =     0.00000000    0.00000000    0.00545512
     atom    2 type  2   force =     0.00000000    0.00000000   -0.00545512
     atom    3 type  1   force =     0.00000000    0.00000000    0.00545512
     atom    4 type  2   force =     0.00000000    0.00000000   -0.00545512
     The non-local contrib.  to forces
     atom    1 type  1   force =     0.00000000   -0.00000000   -0.12975146
     atom    2 type  2   force =    -0.00000000    0.00000000   -0.11000571
     atom    3 type  1   force =     0.00000000   -0.00000000   -0.12975146
     atom    4 type  2   force =     0.00000000    0.00000000   -0.11000571
     The ionic contribution  to forces
     atom    1 type  1   force =    -0.00000000    0.00000000   -1.11546603
     atom    2 type  2   force =     0.00000000   -0.00000000    1.11546603
     atom    3 type  1   force =     0.00000000   -0.00000000   -1.11546603
     atom    4 type  2   force =    -0.00000000    0.00000000    1.11546603
     The local contribution  to forces
     atom    1 type  1   force =     0.00000000    0.00000000    1.24346943
     atom    2 type  2   force =     0.00000001   -0.00000001   -1.01180540
     atom    3 type  1   force =     0.00000004   -0.00000002    1.24346943
     atom    4 type  2   force =     0.00000000    0.00000000   -1.01180540
     The core correction contribution to forces
     atom    1 type  1   force =    -0.00000000    0.00000000    0.00719584
     atom    2 type  2   force =    -0.00000000    0.00000000    0.00088955
     atom    3 type  1   force =     0.00000001   -0.00000000    0.00719584
     atom    4 type  2   force =    -0.00000000    0.00000000    0.00088955
     The Hubbard contrib.    to forces
     atom    1 type  1   force =     0.00000000    0.00000000    0.00000000
     atom    2 type  2   force =     0.00000000    0.00000000    0.00000000
     atom    3 type  1   force =     0.00000000    0.00000000    0.00000000
     atom    4 type  2   force =     0.00000000    0.00000000    0.00000000
     The SCF correction term to forces
     atom    1 type  1   force =    -0.00000000    0.00000000    0.00001176
     atom    2 type  2   force =     0.00000000   -0.00000000    0.00000484
     atom    3 type  1   force =     0.00000000   -0.00000000    0.00001176
     atom    4 type  2   force =    -0.00000000    0.00000000    0.00000484

     Total force =     0.010910     Total SCF correction =     0.000018

     Writing all to output data dir ./ZnO-3.20-1.78-111.in.save/

     init_run     :      1.98s CPU      1.24s WALL (       1 calls)
     electrons    :     89.18s CPU     32.34s WALL (       1 calls)
     forces       :      0.71s CPU      0.33s WALL (       1 calls)

     Called by init_run:
     wfcinit      :      1.16s CPU      0.42s WALL (       1 calls)
     potinit      :      0.20s CPU      0.21s WALL (       1 calls)
     hinit0       :      0.48s CPU      0.49s WALL (       1 calls)

     Called by electrons:
     c_bands      :     71.94s CPU     25.75s WALL (      24 calls)
     sum_band     :     12.89s CPU      4.84s WALL (      24 calls)
     v_of_rho     :      1.04s CPU      0.47s WALL (      25 calls)
     newd         :      3.09s CPU      1.22s WALL (      25 calls)
     mix_rho      :      0.17s CPU      0.07s WALL (      24 calls)

     Called by c_bands:
     init_us_2    :      1.13s CPU      0.38s WALL (    1400 calls)
     init_us_2:cp :      1.11s CPU      0.37s WALL (    1400 calls)
     cegterg      :     69.67s CPU     24.85s WALL (     672 calls)

     Called by *egterg:
     cdiaghg      :     10.47s CPU      3.34s WALL (    3504 calls)
     h_psi        :     46.29s CPU     18.74s WALL (    3532 calls)
     s_psi        :      1.13s CPU      0.31s WALL (    3532 calls)
     g_psi        :      0.35s CPU      0.08s WALL (    2832 calls)

     Called by h_psi:
     h_psi:calbec :      1.85s CPU      0.63s WALL (    3532 calls)
     vloc_psi     :     42.82s CPU     17.64s WALL (    3532 calls)
     add_vuspsi   :      1.19s CPU      0.35s WALL (    3532 calls)

     General routines
     calbec       :      2.42s CPU      0.81s WALL (    4316 calls)
     fft          :      0.80s CPU      0.46s WALL (     334 calls)
     ffts         :      0.11s CPU      0.08s WALL (      49 calls)
     fftw         :     43.19s CPU     17.89s WALL (   92626 calls)
     interpolate  :      0.13s CPU      0.09s WALL (      25 calls)

     Parallel routines

     PWSCF        :   1m32.26s CPU     34.37s WALL


   This run was terminated on:  12:49: 7   8Jul2025            

=------------------------------------------------------------------------------=
   JOB DONE.
=------------------------------------------------------------------------------=
Note: The following floating-point exceptions are signalling: IEEE_INVALID_FLAG
