Authorization required, but no authorization protocol specified

Authorization required, but no authorization protocol specified

Authorization required, but no authorization protocol specified

Authorization required, but no authorization protocol specified

Authorization required, but no authorization protocol specified

Authorization required, but no authorization protocol specified

Authorization required, but no authorization protocol specified

Authorization required, but no authorization protocol specified

Authorization required, but no authorization protocol specified

Authorization required, but no authorization protocol specified


     Program PWSCF v.7.2 starts on  8Jul2025 at 12:20:52 

     This program is part of the open-source Quantum ESPRESSO suite
     for quantum simulation of materials; please cite
         "P. Giannozzi et al., J. Phys.:Condens. Matter 21 395502 (2009);
         "P. Giannozzi et al., J. Phys.:Condens. Matter 29 465901 (2017);
         "P. Giannozzi et al., J. Chem. Phys. 152 154105 (2020);
          URL http://www.quantum-espresso.org", 
     in publications or presentations arising from this work. More details at
     http://www.quantum-espresso.org/quote

     Parallel version (MPI), running on     8 processors

     MPI processes distributed on     1 nodes
     53503 MiB available memory on the printing compute node when the environment starts

     Reading input from /home/jvc/QEspresso7.2/ZnO_database/scripts/cell111_strain10%.in/ZnO-2.94-1.68-111.in
Warning: card &CELL ignored
Warning: card / ignored
Warning: card &FCP ignored
Warning: card / ignored
Warning: card &RISM ignored
Warning: card / ignored

     Current dimensions of program PWSCF are:
     Max number of different atomic species (ntypx) = 10
     Max number of k-points (npk) =  40000
     Max angular momentum in pseudopotentials (lmaxx) =  4
     file Zn.upf: wavefunction(s)  3D renormalized
     Message from routine setup:
     using ibrav=0 with symmetry is DISCOURAGED, use correct ibrav instead

     R & G space division:  proc/nbgrp/npool/nimage =       8
     Subspace diagonalization in iterative solution of the eigenvalue problem:
     a serial algorithm will be used


     Parallelization info
     --------------------
     sticks:   dense  smooth     PW     G-vecs:    dense   smooth      PW
     Min         105      53     15                 4227     1497     255
     Max         106      55     16                 4236     1500     262
     Sum         847     433    127                33869    11983    2057

     Using Slab Decomposition



     bravais-lattice index     =            0
     lattice parameter (alat)  =       5.5610  a.u.
     unit-cell volume          =     250.0433 (a.u.)^3
     number of atoms/cell      =            4
     number of atomic types    =            2
     number of electrons       =        36.00
     number of Kohn-Sham states=           18
     kinetic-energy cutoff     =      50.0000  Ry
     charge density cutoff     =     400.0000  Ry
     scf convergence threshold =      1.0E-08
     mixing beta               =       0.3000
     number of iterations used =            8  plain     mixing
     Exchange-correlation= PBE
                           (   1   4   3   4   0   0   0)

     celldm(1)=   5.560969  celldm(2)=   0.000000  celldm(3)=   0.000000
     celldm(4)=   0.000000  celldm(5)=   0.000000  celldm(6)=   0.000000

     crystal axes: (cart. coord. in units of alat)
               a(1) = (   1.000000   0.000000   0.000000 )  
               a(2) = (  -0.500000   0.866025   0.000000 )  
               a(3) = (   0.000000   0.000000   1.678933 )  

     reciprocal axes: (cart. coord. in units 2 pi/alat)
               b(1) = (  1.000000  0.577350 -0.000000 )  
               b(2) = (  0.000000  1.154701  0.000000 )  
               b(3) = (  0.000000 -0.000000  0.595616 )  


     PseudoPot. # 1 for Zn read from file:
     /home/jvc/QEspresso7.2/ZnO_database/pseudos/Zn.upf
     MD5 check sum: 7f56cabf9682ed8c977c2f7d0c5985c5
     Pseudo is Ultrasoft + core correction, Zval = 12.0
     Generated using &quot;atomic&quot; code by A. Dal Corso  v.6.2.2
     Using radial grid of 1201 points,  6 beta functions with: 
                l(1) =   0
                l(2) =   0
                l(3) =   1
                l(4) =   1
                l(5) =   2
                l(6) =   2
     Q(r) pseudized with 0 coefficients 


     PseudoPot. # 2 for O  read from file:
     /home/jvc/QEspresso7.2/ZnO_database/pseudos/O.upf
     MD5 check sum: 91400c9766925bcf19f520983a725ff0
     Pseudo is Ultrasoft + core correction, Zval =  6.0
     Generated using &quot;atomic&quot; code by A. Dal Corso  v.6.3MaX
     Using radial grid of 1095 points,  4 beta functions with: 
                l(1) =   0
                l(2) =   0
                l(3) =   1
                l(4) =   1
     Q(r) pseudized with 0 coefficients 


     atomic species   valence    mass     pseudopotential
        Zn            12.00    65.38000     Zn( 1.00)
        O              6.00    15.99900     O ( 1.00)

     12 Sym. Ops. (no inversion) found ( 6 have fractional translation)



   Cartesian axes

     site n.     atom                  positions (alat units)
         1           Zn  tau(   1) = (   0.0000000   0.0000000   0.0000000  )
         2           O   tau(   2) = (  -0.0000000   0.5773503   0.2211943  )
         3           Zn  tau(   3) = (  -0.0000000   0.5773503   0.8394663  )
         4           O   tau(   4) = (   0.0000000   0.0000000   1.0606607  )

     number of k points=    28
                       cart. coord. in units 2pi/alat
        k(    1) = (   0.0000000   0.0000000   0.0000000), wk =   0.0092593
        k(    2) = (   0.0000000   0.0000000   0.0992694), wk =   0.0185185
        k(    3) = (   0.0000000   0.0000000   0.1985388), wk =   0.0185185
        k(    4) = (   0.0000000   0.0000000  -0.2978082), wk =   0.0092593
        k(    5) = (   0.0000000   0.1924501   0.0000000), wk =   0.0555556
        k(    6) = (   0.0000000   0.1924501   0.0992694), wk =   0.1111111
        k(    7) = (   0.0000000   0.1924501   0.1985388), wk =   0.1111111
        k(    8) = (   0.0000000   0.1924501  -0.2978082), wk =   0.0555556
        k(    9) = (   0.0000000   0.3849002   0.0000000), wk =   0.0555556
        k(   10) = (   0.0000000   0.3849002   0.0992694), wk =   0.1111111
        k(   11) = (   0.0000000   0.3849002   0.1985388), wk =   0.1111111
        k(   12) = (   0.0000000   0.3849002  -0.2978082), wk =   0.0555556
        k(   13) = (   0.0000000  -0.5773503   0.0000000), wk =   0.0277778
        k(   14) = (   0.0000000  -0.5773503   0.0992694), wk =   0.0555556
        k(   15) = (   0.0000000  -0.5773503   0.1985388), wk =   0.0555556
        k(   16) = (   0.0000000  -0.5773503  -0.2978082), wk =   0.0277778
        k(   17) = (   0.1666667   0.2886751   0.0000000), wk =   0.0555556
        k(   18) = (   0.1666667   0.2886751   0.0992694), wk =   0.1111111
        k(   19) = (   0.1666667   0.2886751   0.1985388), wk =   0.1111111
        k(   20) = (   0.1666667   0.2886751  -0.2978082), wk =   0.0555556
        k(   21) = (   0.1666667   0.4811252   0.0000000), wk =   0.1111111
        k(   22) = (   0.1666667   0.4811252   0.0992694), wk =   0.2222222
        k(   23) = (   0.1666667   0.4811252   0.1985388), wk =   0.2222222
        k(   24) = (   0.1666667   0.4811252  -0.2978082), wk =   0.1111111
        k(   25) = (   0.3333333   0.5773503   0.0000000), wk =   0.0185185
        k(   26) = (   0.3333333   0.5773503   0.0992694), wk =   0.0370370
        k(   27) = (   0.3333333   0.5773503   0.1985388), wk =   0.0370370
        k(   28) = (   0.3333333   0.5773503  -0.2978082), wk =   0.0185185

     Dense  grid:    33869 G-vectors     FFT dimensions: (  36,  36,  60)

     Smooth grid:    11983 G-vectors     FFT dimensions: (  27,  27,  48)

     Estimated max dynamical RAM per process >      19.74 MB

     Estimated total dynamical RAM >     157.94 MB

     Check: negative core charge=   -0.000001

     Initial potential from superposition of free atoms

     starting charge      35.9925, renormalised to      36.0000
     Starting wfcs are   26 randomized atomic wfcs

     total cpu time spent up to now is        1.5 secs

     Self-consistent Calculation

     iteration #  1     ecut=    50.00 Ry     beta= 0.30
     Davidson diagonalization with overlap
     ethr =  1.00E-02,  avg # of iterations =  2.0

     total cpu time spent up to now is        2.2 secs

     total energy              =    -361.35466213 Ry
     estimated scf accuracy    <       0.67544050 Ry

     iteration #  2     ecut=    50.00 Ry     beta= 0.30
     Davidson diagonalization with overlap
     ethr =  1.88E-03,  avg # of iterations =  2.0

     total cpu time spent up to now is        3.2 secs

     total energy              =    -361.38903042 Ry
     estimated scf accuracy    <       0.13997678 Ry

     iteration #  3     ecut=    50.00 Ry     beta= 0.30
     Davidson diagonalization with overlap
     ethr =  3.89E-04,  avg # of iterations =  6.3

     total cpu time spent up to now is        4.7 secs

     total energy              =    -361.47490013 Ry
     estimated scf accuracy    <       0.09123020 Ry

     iteration #  4     ecut=    50.00 Ry     beta= 0.30
     Davidson diagonalization with overlap
     ethr =  2.53E-04,  avg # of iterations =  2.0

     total cpu time spent up to now is        5.5 secs

     total energy              =    -361.47193229 Ry
     estimated scf accuracy    <       0.02669278 Ry

     iteration #  5     ecut=    50.00 Ry     beta= 0.30
     Davidson diagonalization with overlap
     ethr =  7.41E-05,  avg # of iterations =  9.0

     total cpu time spent up to now is        7.6 secs

     total energy              =    -361.52811410 Ry
     estimated scf accuracy    <       0.46778314 Ry

     iteration #  6     ecut=    50.00 Ry     beta= 0.30
     Davidson diagonalization with overlap
     ethr =  7.41E-05,  avg # of iterations =  5.0

     total cpu time spent up to now is        8.8 secs

     total energy              =    -361.43668868 Ry
     estimated scf accuracy    <       0.20852032 Ry

     iteration #  7     ecut=    50.00 Ry     beta= 0.30
     Davidson diagonalization with overlap
     ethr =  7.41E-05,  avg # of iterations =  7.2

     total cpu time spent up to now is       10.5 secs

     total energy              =    -361.48512137 Ry
     estimated scf accuracy    <       0.00081066 Ry

     iteration #  8     ecut=    50.00 Ry     beta= 0.30
     Davidson diagonalization with overlap
     ethr =  2.25E-06,  avg # of iterations =  7.6

     total cpu time spent up to now is       12.2 secs

     total energy              =    -361.48464464 Ry
     estimated scf accuracy    <       0.00548516 Ry

     iteration #  9     ecut=    50.00 Ry     beta= 0.30
     Davidson diagonalization with overlap
     ethr =  2.25E-06,  avg # of iterations =  4.4

     total cpu time spent up to now is       13.3 secs

     total energy              =    -361.48435120 Ry
     estimated scf accuracy    <       0.00123886 Ry

     iteration # 10     ecut=    50.00 Ry     beta= 0.30
     Davidson diagonalization with overlap
     ethr =  2.25E-06,  avg # of iterations =  4.5

     total cpu time spent up to now is       14.5 secs

     total energy              =    -361.48469151 Ry
     estimated scf accuracy    <       0.00000113 Ry

     iteration # 11     ecut=    50.00 Ry     beta= 0.30
     Davidson diagonalization with overlap
     c_bands:  1 eigenvalues not converged
     ethr =  3.15E-09,  avg # of iterations = 12.4

     total cpu time spent up to now is       17.3 secs

     total energy              =    -361.48475160 Ry
     estimated scf accuracy    <       0.00008164 Ry

     iteration # 12     ecut=    50.00 Ry     beta= 0.30
     Davidson diagonalization with overlap
     ethr =  3.15E-09,  avg # of iterations =  5.6

     total cpu time spent up to now is       18.6 secs

     total energy              =    -361.48472533 Ry
     estimated scf accuracy    <       0.00005248 Ry

     iteration # 13     ecut=    50.00 Ry     beta= 0.30
     Davidson diagonalization with overlap
     ethr =  3.15E-09,  avg # of iterations = 10.5

     total cpu time spent up to now is       21.1 secs

     total energy              =    -361.48473800 Ry
     estimated scf accuracy    <       0.00000076 Ry

     iteration # 14     ecut=    50.00 Ry     beta= 0.30
     Davidson diagonalization with overlap
     ethr =  2.10E-09,  avg # of iterations =  1.2

     total cpu time spent up to now is       21.8 secs

     total energy              =    -361.48473776 Ry
     estimated scf accuracy    <       0.00000062 Ry

     iteration # 15     ecut=    50.00 Ry     beta= 0.30
     Davidson diagonalization with overlap
     ethr =  1.72E-09,  avg # of iterations =  2.0

     total cpu time spent up to now is       22.6 secs

     total energy              =    -361.48473777 Ry
     estimated scf accuracy    <       0.00000012 Ry

     iteration # 16     ecut=    50.00 Ry     beta= 0.30
     Davidson diagonalization with overlap
     ethr =  3.47E-10,  avg # of iterations =  5.8

     total cpu time spent up to now is       24.0 secs

     total energy              =    -361.48473785 Ry
     estimated scf accuracy    <       0.00000002 Ry

     iteration # 17     ecut=    50.00 Ry     beta= 0.30
     Davidson diagonalization with overlap
     ethr =  6.20E-11,  avg # of iterations =  4.1

     total cpu time spent up to now is       25.2 secs

     End of self-consistent calculation

          k = 0.0000 0.0000 0.0000 (  1509 PWs)   bands (ev):

    -8.8620  -7.7574   3.5361   4.1922   4.3659   4.3659   4.6915   4.6915
     6.3748   6.3748   6.7101   6.7101   7.0509  10.5221  10.5221  11.4839
    11.6585  11.6585

          k = 0.0000 0.0000 0.0993 (  1515 PWs)   bands (ev):

    -8.7942  -7.8383   3.5223   4.1066   4.3799   4.3799   4.6607   4.6607
     6.4041   6.4041   6.6958   6.6958   7.3421  10.5980  10.5980  10.9282
    11.5826  11.5826

          k = 0.0000 0.0000 0.1985 (  1485 PWs)   bands (ev):

    -8.6047  -8.0537   3.5468   3.9005   4.4239   4.4239   4.5844   4.5844
     6.4801   6.4801   6.6501   6.6501   8.0858  10.0196  10.8059  10.8059
    11.3749  11.3749

          k = 0.0000 0.0000-0.2978 (  1498 PWs)   bands (ev):

    -8.3357  -8.3357   3.6813   3.6813   4.4959   4.4959   4.4959   4.4959
     6.5720   6.5720   6.5720   6.5720   9.0396   9.0396  11.0904  11.0904
    11.0904  11.0904

          k = 0.0000 0.1925 0.0000 (  1485 PWs)   bands (ev):

    -8.6190  -7.6398   3.8216   4.1349   4.3152   4.4656   4.6224   4.8587
     6.2499   6.3761   6.7190   6.7280   7.0508   9.4600  10.0813  10.5464
    11.2484  11.4246

          k = 0.0000 0.1925 0.0993 (  1493 PWs)   bands (ev):

    -8.5574  -7.7095   3.7356   4.0061   4.3692   4.4841   4.6259   4.8227
     6.2972   6.4034   6.7087   6.7247   7.3446   9.5412  10.1741  10.3707
    11.0857  11.3366

          k = 0.0000 0.1925 0.1985 (  1489 PWs)   bands (ev):

    -8.3863  -7.8969   3.6243   3.8009   4.4380   4.5401   4.5883   4.7334
     6.4110   6.4758   6.6526   6.6625   8.1292   9.6921   9.9730  10.4250
    10.6645  11.0953

          k = 0.0000 0.1925-0.2978 (  1494 PWs)   bands (ev):

    -8.1457  -8.1457   3.6459   3.6459   4.5142   4.5142   4.6284   4.6284
     6.5463   6.5463   6.5680   6.5680   9.0561   9.0561  10.2034  10.2034
    10.7625  10.7625

          k = 0.0000 0.3849 0.0000 (  1491 PWs)   bands (ev):

    -8.0650  -7.4292   3.6127   4.1429   4.6087   4.6480   4.9421   5.2649
     6.1611   6.5245   6.5976   6.7646   7.2927   7.7369   9.1470   9.1691
    10.4552  10.8942

          k = 0.0000 0.3849 0.0993 (  1502 PWs)   bands (ev):

    -8.0216  -7.4705   3.5621   3.9421   4.6422   4.6660   4.9158   5.2066
     6.2253   6.5385   6.7363   6.7436   7.4194   7.8862   9.0707   9.2788
    10.4372  10.7847

          k = 0.0000 0.3849 0.1985 (  1498 PWs)   bands (ev):

    -7.9035  -7.5845   3.4712   3.6344   4.7006   4.7400   4.8453   5.0613
     6.3794   6.5777   6.6933   6.7166   7.8556   8.2403   9.0097   9.6215
    10.1908  10.4831

          k = 0.0000 0.3849-0.2978 (  1482 PWs)   bands (ev):

    -7.7430  -7.7430   3.4677   3.4677   4.7635   4.7635   4.8893   4.8893
     6.5611   6.5611   6.6333   6.6333   8.1936   8.1936   9.5756   9.5756
    10.0618  10.0618

          k = 0.0000-0.5774 0.0000 (  1496 PWs)   bands (ev):

    -7.7099  -7.3769   3.7045   3.7730   4.6448   4.9092   5.0053   5.5248
     6.3195   6.7053   6.8042   6.9525   7.2978   7.4182   8.0472   8.5923
     9.8020  10.5876

          k = 0.0000-0.5774 0.0993 (  1494 PWs)   bands (ev):

    -7.6842  -7.3953   3.6238   3.6604   4.6885   4.9018   4.9928   5.4415
     6.4260   6.7079   6.7866   6.9421   7.2894   7.3629   8.3311   8.7563
     9.8659  10.4675

          k = 0.0000-0.5774 0.1985 (  1500 PWs)   bands (ev):

    -7.6162  -7.4488   3.4663   3.4664   4.8144   4.9036   4.9617   5.2398
     6.6209   6.7162   6.7553   6.8937   7.2764   7.3031   8.9565   9.1643
     9.8830  10.1354

          k = 0.0000-0.5774-0.2978 (  1496 PWs)   bands (ev):

    -7.5288  -7.5288   3.3854   3.3854   4.9267   4.9267   5.0094   5.0094
     6.7317   6.7317   6.7863   6.7863   7.2775   7.2775   9.5733   9.5733
     9.6666   9.6666

          k = 0.1667 0.2887 0.0000 (  1496 PWs)   bands (ev):

    -8.2176  -7.4759   3.8483   4.0637   4.4973   4.6879   4.7679   5.1139
     6.1448   6.3781   6.7054   6.7480   7.2260   8.3916   8.9246   9.6487
    10.7617  10.8542

          k = 0.1667 0.2887 0.0993 (  1497 PWs)   bands (ev):

    -8.1685  -7.5256   3.7798   3.9194   4.5088   4.5934   4.8344   5.0727
     6.2053   6.4602   6.7287   6.7709   7.4315   8.5069   9.0010   9.5716
    10.6889  10.7386

          k = 0.1667 0.2887 0.1985 (  1498 PWs)   bands (ev):

    -8.0335  -7.6617   3.6441   3.6769   4.5403   4.5774   4.8406   4.9717
     6.3577   6.5407   6.6796   6.7139   8.1075   8.8720   8.9947   9.6021
    10.3390  10.4298

          k = 0.1667 0.2887-0.2978 (  1498 PWs)   bands (ev):

    -7.8479  -7.8479   3.5771   3.5771   4.5744   4.5744   4.8732   4.8732
     6.5413   6.5413   6.6181   6.6181   8.6781   8.6781   9.5437   9.5437
    10.0511  10.0511

          k = 0.1667 0.4811 0.0000 (  1496 PWs)   bands (ev):

    -7.7268  -7.3700   3.8289   4.0936   4.5859   4.8194   5.1190   5.4556
     6.2848   6.3098   6.8285   6.9242   7.2486   7.7141   7.9568   8.4947
     9.7971  10.2433

          k = 0.1667 0.4811 0.0993 (  1494 PWs)   bands (ev):

    -7.6997  -7.3901   3.7670   3.9700   4.5579   4.7682   5.1333   5.3751
     6.2805   6.5080   6.8255   7.0137   7.1589   7.8681   8.0438   8.5909
     9.8199  10.1472

          k = 0.1667 0.4811 0.1985 (  1489 PWs)   bands (ev):

    -7.6277  -7.4483   3.6414   3.7318   4.5586   4.7103   5.1360   5.2414
     6.4068   6.6007   6.8389   7.0080   7.2873   7.8130   8.4809   8.9839
     9.6393  10.0029

          k = 0.1667 0.4811-0.2978 (  1492 PWs)   bands (ev):

    -7.5345  -7.5345   3.6002   3.6002   4.6310   4.6310   5.1570   5.1570
     6.5431   6.5431   6.8932   6.8932   7.5806   7.5806   8.9939   8.9939
     9.7051   9.7051

          k = 0.3333 0.5774 0.0000 (  1500 PWs)   bands (ev):

    -7.4497  -7.4497   3.9857   4.6737   4.6800   4.6800   5.3323   5.3323
     6.1921   6.4275   6.4572   6.4572   7.1817   7.7606   7.7606   9.0677
     9.0677   9.4184

          k = 0.3333 0.5774 0.0993 (  1482 PWs)   bands (ev):

    -7.4451  -7.4451   4.0172   4.4630   4.4630   4.6016   5.3997   5.3997
     6.2143   6.4140   6.6163   6.6163   7.3301   7.6795   7.6795   9.2277
     9.2277   9.2501

          k = 0.3333 0.5774 0.1985 (  1497 PWs)   bands (ev):

    -7.4361  -7.4361   4.1094   4.1524   4.1524   4.4355   5.4497   5.4497
     6.2642   6.3763   6.9342   6.9342   7.4939   7.4939   7.7246   8.8146
     9.5396   9.5396

          k = 0.3333 0.5774-0.2978 (  1482 PWs)   bands (ev):

    -7.4316  -7.4316   4.0264   4.0264   4.2558   4.2558   5.4607   5.4607
     6.3229   6.3229   7.1903   7.1903   7.2947   7.2947   8.2595   8.2595
     9.6954   9.6954

     highest occupied level (ev):    11.6585

!    total energy              =    -361.48473786 Ry
     estimated scf accuracy    <          5.4E-10 Ry

     The total energy is the sum of the following terms:
     one-electron contribution =    -121.22675734 Ry
     hartree contribution      =     106.80432222 Ry
     xc contribution           =    -110.20687260 Ry
     ewald contribution        =    -236.85543014 Ry

     convergence has been achieved in  17 iterations

     Forces acting on atoms (cartesian axes, Ry/au):

     atom    1 type  1   force =    -0.00000000   -0.00000000   -0.00962394
     atom    2 type  2   force =     0.00000000    0.00000000    0.00962394
     atom    3 type  1   force =     0.00000000   -0.00000000   -0.00962394
     atom    4 type  2   force =     0.00000000    0.00000000    0.00962394
     The non-local contrib.  to forces
     atom    1 type  1   force =    -0.00000000   -0.00000000   -0.05045820
     atom    2 type  2   force =     0.00000000    0.00000000   -0.03881004
     atom    3 type  1   force =    -0.00000000   -0.00000000   -0.05045820
     atom    4 type  2   force =     0.00000000   -0.00000000   -0.03881004
     The ionic contribution  to forces
     atom    1 type  1   force =    -0.00000000    0.00000000   -0.56884497
     atom    2 type  2   force =     0.00000000   -0.00000000    0.56884497
     atom    3 type  1   force =     0.00000000   -0.00000000   -0.56884497
     atom    4 type  2   force =    -0.00000000    0.00000000    0.56884497
     The local contribution  to forces
     atom    1 type  1   force =    -0.00000000   -0.00000000    0.60618557
     atom    2 type  2   force =     0.00000001   -0.00000001   -0.52065837
     atom    3 type  1   force =     0.00000004   -0.00000002    0.60618557
     atom    4 type  2   force =    -0.00000000   -0.00000000   -0.52065836
     The core correction contribution to forces
     atom    1 type  1   force =    -0.00000000    0.00000000    0.00349288
     atom    2 type  2   force =    -0.00000000    0.00000000    0.00024126
     atom    3 type  1   force =     0.00000001   -0.00000000    0.00349288
     atom    4 type  2   force =    -0.00000000    0.00000000    0.00024126
     The Hubbard contrib.    to forces
     atom    1 type  1   force =     0.00000000    0.00000000    0.00000000
     atom    2 type  2   force =     0.00000000    0.00000000    0.00000000
     atom    3 type  1   force =     0.00000000    0.00000000    0.00000000
     atom    4 type  2   force =     0.00000000    0.00000000    0.00000000
     The SCF correction term to forces
     atom    1 type  1   force =    -0.00000000    0.00000000   -0.00000407
     atom    2 type  2   force =     0.00000000   -0.00000000    0.00000127
     atom    3 type  1   force =     0.00000000   -0.00000000   -0.00000407
     atom    4 type  2   force =    -0.00000000    0.00000000    0.00000127

     Total force =     0.019248     Total SCF correction =     0.000006

     Writing all to output data dir ./ZnO-2.94-1.68-111.in.save/

     init_run     :      1.71s CPU      1.14s WALL (       1 calls)
     electrons    :     61.35s CPU     23.70s WALL (       1 calls)
     forces       :      0.55s CPU      0.25s WALL (       1 calls)

     Called by init_run:
     wfcinit      :      0.93s CPU      0.36s WALL (       1 calls)
     potinit      :      0.20s CPU      0.21s WALL (       1 calls)
     hinit0       :      0.48s CPU      0.49s WALL (       1 calls)

     Called by electrons:
     c_bands      :     52.68s CPU     20.23s WALL (      17 calls)
     sum_band     :      6.62s CPU      2.62s WALL (      17 calls)
     v_of_rho     :      0.45s CPU      0.20s WALL (      18 calls)
     newd         :      1.53s CPU      0.63s WALL (      18 calls)
     mix_rho      :      0.07s CPU      0.03s WALL (      17 calls)

     Called by c_bands:
     init_us_2    :      0.56s CPU      0.20s WALL (    1008 calls)
     init_us_2:cp :      0.54s CPU      0.19s WALL (    1008 calls)
     cegterg      :     51.45s CPU     19.75s WALL (     476 calls)

     Called by *egterg:
     cdiaghg      :      8.73s CPU      3.03s WALL (    3042 calls)
     h_psi        :     35.85s CPU     14.83s WALL (    3070 calls)
     s_psi        :      0.73s CPU      0.23s WALL (    3070 calls)
     g_psi        :      0.23s CPU      0.06s WALL (    2566 calls)

     Called by h_psi:
     h_psi:calbec :      1.43s CPU      0.56s WALL (    3070 calls)
     vloc_psi     :     33.46s CPU     13.94s WALL (    3070 calls)
     add_vuspsi   :      0.69s CPU      0.25s WALL (    3070 calls)

     General routines
     calbec       :      1.71s CPU      0.65s WALL (    3658 calls)
     fft          :      0.47s CPU      0.32s WALL (     243 calls)
     ffts         :      0.11s CPU      0.10s WALL (      35 calls)
     fftw         :     33.61s CPU     13.98s WALL (   82366 calls)
     interpolate  :      0.12s CPU      0.11s WALL (      18 calls)

     Parallel routines

     PWSCF        :   1m 3.99s CPU     25.51s WALL


   This run was terminated on:  12:21:17   8Jul2025            

=------------------------------------------------------------------------------=
   JOB DONE.
=------------------------------------------------------------------------------=
Note: The following floating-point exceptions are signalling: IEEE_INVALID_FLAG
