Authorization required, but no authorization protocol specified

Authorization required, but no authorization protocol specified

Authorization required, but no authorization protocol specified

Authorization required, but no authorization protocol specified

Authorization required, but no authorization protocol specified

Authorization required, but no authorization protocol specified

Authorization required, but no authorization protocol specified

Authorization required, but no authorization protocol specified

Authorization required, but no authorization protocol specified

Authorization required, but no authorization protocol specified


     Program PWSCF v.7.2 starts on  8Jul2025 at 13:31:16 

     This program is part of the open-source Quantum ESPRESSO suite
     for quantum simulation of materials; please cite
         "P. Giannozzi et al., J. Phys.:Condens. Matter 21 395502 (2009);
         "P. Giannozzi et al., J. Phys.:Condens. Matter 29 465901 (2017);
         "P. Giannozzi et al., J. Chem. Phys. 152 154105 (2020);
          URL http://www.quantum-espresso.org", 
     in publications or presentations arising from this work. More details at
     http://www.quantum-espresso.org/quote

     Parallel version (MPI), running on     8 processors

     MPI processes distributed on     1 nodes
     51580 MiB available memory on the printing compute node when the environment starts

     Reading input from /home/jvc/QEspresso7.2/ZnO_database/scripts/cell111_strain10%.in/ZnO-3.53-1.61-111.in
Warning: card &CELL ignored
Warning: card / ignored
Warning: card &FCP ignored
Warning: card / ignored
Warning: card &RISM ignored
Warning: card / ignored

     Current dimensions of program PWSCF are:
     Max number of different atomic species (ntypx) = 10
     Max number of k-points (npk) =  40000
     Max angular momentum in pseudopotentials (lmaxx) =  4
     file Zn.upf: wavefunction(s)  3D renormalized
     Message from routine setup:
     using ibrav=0 with symmetry is DISCOURAGED, use correct ibrav instead

     R & G space division:  proc/nbgrp/npool/nimage =       8
     Subspace diagonalization in iterative solution of the eigenvalue problem:
     a serial algorithm will be used


     Parallelization info
     --------------------
     sticks:   dense  smooth     PW     G-vecs:    dense   smooth      PW
     Min         154      75     23                 7028     2470     409
     Max         155      79     24                 7033     2475     414
     Sum        1237     613    187                56241    19777    3297

     Using Slab Decomposition



     bravais-lattice index     =            0
     lattice parameter (alat)  =       6.6732  a.u.
     unit-cell volume          =     415.4566 (a.u.)^3
     number of atoms/cell      =            4
     number of atomic types    =            2
     number of electrons       =        36.00
     number of Kohn-Sham states=           18
     kinetic-energy cutoff     =      50.0000  Ry
     charge density cutoff     =     400.0000  Ry
     scf convergence threshold =      1.0E-08
     mixing beta               =       0.3000
     number of iterations used =            8  plain     mixing
     Exchange-correlation= PBE
                           (   1   4   3   4   0   0   0)

     celldm(1)=   6.673162  celldm(2)=   0.000000  celldm(3)=   0.000000
     celldm(4)=   0.000000  celldm(5)=   0.000000  celldm(6)=   0.000000

     crystal axes: (cart. coord. in units of alat)
               a(1) = (   1.000000   0.000000   0.000000 )  
               a(2) = (  -0.500000   0.866025   0.000000 )  
               a(3) = (   0.000000   0.000000   1.614358 )  

     reciprocal axes: (cart. coord. in units 2 pi/alat)
               b(1) = (  1.000000  0.577350 -0.000000 )  
               b(2) = (  0.000000  1.154701  0.000000 )  
               b(3) = (  0.000000 -0.000000  0.619441 )  


     PseudoPot. # 1 for Zn read from file:
     /home/jvc/QEspresso7.2/ZnO_database/pseudos/Zn.upf
     MD5 check sum: 7f56cabf9682ed8c977c2f7d0c5985c5
     Pseudo is Ultrasoft + core correction, Zval = 12.0
     Generated using &quot;atomic&quot; code by A. Dal Corso  v.6.2.2
     Using radial grid of 1201 points,  6 beta functions with: 
                l(1) =   0
                l(2) =   0
                l(3) =   1
                l(4) =   1
                l(5) =   2
                l(6) =   2
     Q(r) pseudized with 0 coefficients 


     PseudoPot. # 2 for O  read from file:
     /home/jvc/QEspresso7.2/ZnO_database/pseudos/O.upf
     MD5 check sum: 91400c9766925bcf19f520983a725ff0
     Pseudo is Ultrasoft + core correction, Zval =  6.0
     Generated using &quot;atomic&quot; code by A. Dal Corso  v.6.3MaX
     Using radial grid of 1095 points,  4 beta functions with: 
                l(1) =   0
                l(2) =   0
                l(3) =   1
                l(4) =   1
     Q(r) pseudized with 0 coefficients 


     atomic species   valence    mass     pseudopotential
        Zn            12.00    65.38000     Zn( 1.00)
        O              6.00    15.99900     O ( 1.00)

     12 Sym. Ops. (no inversion) found ( 6 have fractional translation)



   Cartesian axes

     site n.     atom                  positions (alat units)
         1           Zn  tau(   1) = (   0.0000000   0.0000000   0.0000000  )
         2           O   tau(   2) = (  -0.0000000   0.5773503   0.1971092  )
         3           Zn  tau(   3) = (  -0.0000000   0.5773503   0.8071792  )
         4           O   tau(   4) = (   0.0000000   0.0000000   1.0042884  )

     number of k points=    28
                       cart. coord. in units 2pi/alat
        k(    1) = (   0.0000000   0.0000000   0.0000000), wk =   0.0092593
        k(    2) = (   0.0000000   0.0000000   0.1032402), wk =   0.0185185
        k(    3) = (   0.0000000   0.0000000   0.2064804), wk =   0.0185185
        k(    4) = (   0.0000000   0.0000000  -0.3097206), wk =   0.0092593
        k(    5) = (   0.0000000   0.1924501   0.0000000), wk =   0.0555556
        k(    6) = (   0.0000000   0.1924501   0.1032402), wk =   0.1111111
        k(    7) = (   0.0000000   0.1924501   0.2064804), wk =   0.1111111
        k(    8) = (   0.0000000   0.1924501  -0.3097206), wk =   0.0555556
        k(    9) = (   0.0000000   0.3849002   0.0000000), wk =   0.0555556
        k(   10) = (   0.0000000   0.3849002   0.1032402), wk =   0.1111111
        k(   11) = (   0.0000000   0.3849002   0.2064804), wk =   0.1111111
        k(   12) = (   0.0000000   0.3849002  -0.3097206), wk =   0.0555556
        k(   13) = (   0.0000000  -0.5773503   0.0000000), wk =   0.0277778
        k(   14) = (   0.0000000  -0.5773503   0.1032402), wk =   0.0555556
        k(   15) = (   0.0000000  -0.5773503   0.2064804), wk =   0.0555556
        k(   16) = (   0.0000000  -0.5773503  -0.3097206), wk =   0.0277778
        k(   17) = (   0.1666667   0.2886751   0.0000000), wk =   0.0555556
        k(   18) = (   0.1666667   0.2886751   0.1032402), wk =   0.1111111
        k(   19) = (   0.1666667   0.2886751   0.2064804), wk =   0.1111111
        k(   20) = (   0.1666667   0.2886751  -0.3097206), wk =   0.0555556
        k(   21) = (   0.1666667   0.4811252   0.0000000), wk =   0.1111111
        k(   22) = (   0.1666667   0.4811252   0.1032402), wk =   0.2222222
        k(   23) = (   0.1666667   0.4811252   0.2064804), wk =   0.2222222
        k(   24) = (   0.1666667   0.4811252  -0.3097206), wk =   0.1111111
        k(   25) = (   0.3333333   0.5773503   0.0000000), wk =   0.0185185
        k(   26) = (   0.3333333   0.5773503   0.1032402), wk =   0.0370370
        k(   27) = (   0.3333333   0.5773503   0.2064804), wk =   0.0370370
        k(   28) = (   0.3333333   0.5773503  -0.3097206), wk =   0.0185185

     Dense  grid:    56241 G-vectors     FFT dimensions: (  45,  45,  72)

     Smooth grid:    19777 G-vectors     FFT dimensions: (  36,  36,  50)

     Estimated max dynamical RAM per process >      30.73 MB

     Estimated total dynamical RAM >     245.81 MB

     Check: negative core charge=   -0.000002

     Initial potential from superposition of free atoms

     starting charge      35.9925, renormalised to      36.0000
     Starting wfcs are   26 randomized atomic wfcs

     total cpu time spent up to now is        1.9 secs

     Self-consistent Calculation

     iteration #  1     ecut=    50.00 Ry     beta= 0.30
     Davidson diagonalization with overlap
     ethr =  1.00E-02,  avg # of iterations =  1.2

     total cpu time spent up to now is        3.0 secs

     total energy              =    -361.38395372 Ry
     estimated scf accuracy    <       0.80707093 Ry

     iteration #  2     ecut=    50.00 Ry     beta= 0.30
     Davidson diagonalization with overlap
     ethr =  2.24E-03,  avg # of iterations =  2.2

     total cpu time spent up to now is        4.4 secs

     total energy              =    -361.49702935 Ry
     estimated scf accuracy    <       0.09826776 Ry

     iteration #  3     ecut=    50.00 Ry     beta= 0.30
     Davidson diagonalization with overlap
     ethr =  2.73E-04,  avg # of iterations =  5.8

     total cpu time spent up to now is        6.4 secs

     total energy              =    -361.49974244 Ry
     estimated scf accuracy    <       0.15826682 Ry

     iteration #  4     ecut=    50.00 Ry     beta= 0.30
     Davidson diagonalization with overlap
     ethr =  2.73E-04,  avg # of iterations =  9.0

     total cpu time spent up to now is        9.4 secs

     total energy              =    -361.64616944 Ry
     estimated scf accuracy    <       0.32881429 Ry

     iteration #  5     ecut=    50.00 Ry     beta= 0.30
     Davidson diagonalization with overlap
     ethr =  2.73E-04,  avg # of iterations =  1.0

     total cpu time spent up to now is       10.5 secs

     total energy              =    -361.52194474 Ry
     estimated scf accuracy    <       0.30224510 Ry

     iteration #  6     ecut=    50.00 Ry     beta= 0.30
     Davidson diagonalization with overlap
     ethr =  2.73E-04,  avg # of iterations =  5.4

     total cpu time spent up to now is       12.4 secs

     total energy              =    -361.57489575 Ry
     estimated scf accuracy    <       0.00074438 Ry

     iteration #  7     ecut=    50.00 Ry     beta= 0.30
     Davidson diagonalization with overlap
     ethr =  2.07E-06,  avg # of iterations =  9.7

     total cpu time spent up to now is       15.1 secs

     total energy              =    -361.57669963 Ry
     estimated scf accuracy    <       0.00131675 Ry

     iteration #  8     ecut=    50.00 Ry     beta= 0.30
     Davidson diagonalization with overlap
     ethr =  2.07E-06,  avg # of iterations =  5.7

     total cpu time spent up to now is       16.9 secs

     total energy              =    -361.57700882 Ry
     estimated scf accuracy    <       0.00014344 Ry

     iteration #  9     ecut=    50.00 Ry     beta= 0.30
     Davidson diagonalization with overlap
     ethr =  3.98E-07,  avg # of iterations =  5.2

     total cpu time spent up to now is       18.9 secs

     total energy              =    -361.57711236 Ry
     estimated scf accuracy    <       0.00018908 Ry

     iteration # 10     ecut=    50.00 Ry     beta= 0.30
     Davidson diagonalization with overlap
     ethr =  3.98E-07,  avg # of iterations =  1.0

     total cpu time spent up to now is       20.0 secs

     total energy              =    -361.57707079 Ry
     estimated scf accuracy    <       0.00017026 Ry

     iteration # 11     ecut=    50.00 Ry     beta= 0.30
     Davidson diagonalization with overlap
     ethr =  3.98E-07,  avg # of iterations =  1.0

     total cpu time spent up to now is       21.2 secs

     total energy              =    -361.57704818 Ry
     estimated scf accuracy    <       0.00009372 Ry

     iteration # 12     ecut=    50.00 Ry     beta= 0.30
     Davidson diagonalization with overlap
     ethr =  2.60E-07,  avg # of iterations =  2.3

     total cpu time spent up to now is       22.5 secs

     total energy              =    -361.57706878 Ry
     estimated scf accuracy    <       0.00000393 Ry

     iteration # 13     ecut=    50.00 Ry     beta= 0.30
     Davidson diagonalization with overlap
     ethr =  1.09E-08,  avg # of iterations =  5.6

     total cpu time spent up to now is       24.3 secs

     total energy              =    -361.57706988 Ry
     estimated scf accuracy    <       0.00000335 Ry

     iteration # 14     ecut=    50.00 Ry     beta= 0.30
     Davidson diagonalization with overlap
     ethr =  9.31E-09,  avg # of iterations =  4.2

     total cpu time spent up to now is       25.8 secs

     total energy              =    -361.57707019 Ry
     estimated scf accuracy    <       0.00000031 Ry

     iteration # 15     ecut=    50.00 Ry     beta= 0.30
     Davidson diagonalization with overlap
     ethr =  8.68E-10,  avg # of iterations =  8.4

     total cpu time spent up to now is       28.4 secs

     total energy              =    -361.57707096 Ry
     estimated scf accuracy    <       0.00000166 Ry

     iteration # 16     ecut=    50.00 Ry     beta= 0.30
     Davidson diagonalization with overlap
     ethr =  8.68E-10,  avg # of iterations =  1.0

     total cpu time spent up to now is       29.6 secs

     total energy              =    -361.57707076 Ry
     estimated scf accuracy    <       0.00000141 Ry

     iteration # 17     ecut=    50.00 Ry     beta= 0.30
     Davidson diagonalization with overlap
     ethr =  8.68E-10,  avg # of iterations =  1.9

     total cpu time spent up to now is       30.8 secs

     total energy              =    -361.57707074 Ry
     estimated scf accuracy    <       0.00000091 Ry

     iteration # 18     ecut=    50.00 Ry     beta= 0.30
     Davidson diagonalization with overlap
     ethr =  8.68E-10,  avg # of iterations =  1.1

     total cpu time spent up to now is       32.0 secs

     total energy              =    -361.57707053 Ry
     estimated scf accuracy    <       0.00000078 Ry

     iteration # 19     ecut=    50.00 Ry     beta= 0.30
     Davidson diagonalization with overlap
     ethr =  8.68E-10,  avg # of iterations =  5.4

     total cpu time spent up to now is       33.7 secs

     total energy              =    -361.57707068 Ry
     estimated scf accuracy    <       0.00000001 Ry

     iteration # 20     ecut=    50.00 Ry     beta= 0.30
     Davidson diagonalization with overlap
     ethr =  3.61E-11,  avg # of iterations =  8.8

     total cpu time spent up to now is       36.2 secs

     total energy              =    -361.57707071 Ry
     estimated scf accuracy    <       0.00000005 Ry

     iteration # 21     ecut=    50.00 Ry     beta= 0.30
     Davidson diagonalization with overlap
     ethr =  3.61E-11,  avg # of iterations =  2.5

     total cpu time spent up to now is       37.5 secs

     total energy              =    -361.57707069 Ry
     estimated scf accuracy    <       0.00000007 Ry

     iteration # 22     ecut=    50.00 Ry     beta= 0.30
     Davidson diagonalization with overlap
     ethr =  3.61E-11,  avg # of iterations =  2.5

     total cpu time spent up to now is       38.8 secs

     total energy              =    -361.57707068 Ry
     estimated scf accuracy    <       0.00000003 Ry

     iteration # 23     ecut=    50.00 Ry     beta= 0.30
     Davidson diagonalization with overlap
     ethr =  3.61E-11,  avg # of iterations =  5.7

     total cpu time spent up to now is       40.8 secs

     End of self-consistent calculation

          k = 0.0000 0.0000 0.0000 (  2503 PWs)   bands (ev):

   -12.4592 -12.0595  -0.9318  -0.9318  -0.9249  -0.8150  -0.8150  -0.3745
    -0.3745  -0.3216  -0.2607  -0.2607   0.2427   3.4109   3.4109   3.9190
     3.9473   3.9473

          k = 0.0000 0.0000 0.1032 (  2484 PWs)   bands (ev):

   -12.4332 -12.0870  -0.9363  -0.9273  -0.9273  -0.8264  -0.8264  -0.5471
    -0.3641  -0.3641  -0.2651  -0.2651   0.5970   3.3054   3.4477   3.4477
     3.9122   3.9122

          k = 0.0000 0.0000 0.2065 (  2472 PWs)   bands (ev):

   -12.3615 -12.1617  -0.9519  -0.9126  -0.9126  -0.8546  -0.8546  -0.7950
    -0.3378  -0.3378  -0.2803  -0.2803   1.2092   2.5815   3.5475   3.5475
     3.8158   3.8158

          k = 0.0000 0.0000-0.3097 (  2484 PWs)   bands (ev):

   -12.2624 -12.2624  -0.9223  -0.9223  -0.8869  -0.8869  -0.8869  -0.8869
    -0.3066  -0.3066  -0.3066  -0.3066   1.8831   1.8831   3.6825   3.6825
     3.6825   3.6825

          k = 0.0000 0.1925 0.0000 (  2493 PWs)   bands (ev):

   -12.3761 -12.0240  -0.9649  -0.8833  -0.8752  -0.7881  -0.7411  -0.4033
    -0.4009  -0.3737  -0.2548  -0.1454   0.4361   2.6070   2.8936   3.1728
     3.7893   3.8213

          k = 0.0000 0.1925 0.1032 (  2497 PWs)   bands (ev):

   -12.3529 -12.0480  -0.9736  -0.8782  -0.8768  -0.8022  -0.7540  -0.5382
    -0.3849  -0.3640  -0.2609  -0.2147   0.7398   2.5550   2.8527   3.2173
     3.7237   3.7787

          k = 0.0000 0.1925 0.2065 (  2495 PWs)   bands (ev):

   -12.2892 -12.1131  -0.9854  -0.8953  -0.8568  -0.8321  -0.7864  -0.7356
    -0.3470  -0.3389  -0.2794  -0.2603   1.2678   2.2450   2.9819   3.3379
     3.5244   3.6619

          k = 0.0000 0.1925-0.3097 (  2488 PWs)   bands (ev):

   -12.2015 -12.2015  -0.9602  -0.9602  -0.8246  -0.8246  -0.8165  -0.8165
    -0.3074  -0.3074  -0.3020  -0.3020   1.7910   1.7910   3.2441   3.2441
     3.5009   3.5009

          k = 0.0000 0.3849 0.0000 (  2479 PWs)   bands (ev):

   -12.1925 -11.9652  -0.9648  -0.8105  -0.8075  -0.6274  -0.5740  -0.4756
    -0.3720  -0.3300  -0.2441  -0.1086   0.8640   1.4213   2.0138   2.7031
     3.3992   3.5520

          k = 0.0000 0.3849 0.1032 (  2485 PWs)   bands (ev):

   -12.1769 -11.9799  -0.9760  -0.8317  -0.7970  -0.6375  -0.5923  -0.5211
    -0.3715  -0.3252  -0.2517  -0.1499   0.9145   1.4806   2.0872   2.7623
     3.4093   3.4965

          k = 0.0000 0.3849 0.2065 (  2488 PWs)   bands (ev):

   -12.1345 -12.0207  -0.9920  -0.8995  -0.7585  -0.6578  -0.6405  -0.6179
    -0.3297  -0.3115  -0.2698  -0.2120   1.0405   1.3975   2.4749   2.9216
     3.3102   3.3444

          k = 0.0000 0.3849-0.3097 (  2490 PWs)   bands (ev):

   -12.0771 -12.0771  -0.9710  -0.9710  -0.7021  -0.7021  -0.6602  -0.6602
    -0.2917  -0.2917  -0.2715  -0.2715   1.2136   1.2136   2.9705   2.9705
     3.1348   3.1348

          k = 0.0000-0.5774 0.0000 (  2474 PWs)   bands (ev):

   -12.0785 -11.9551  -0.9459  -0.7896  -0.6866  -0.5729  -0.4835  -0.4232
    -0.2796  -0.2786  -0.2358  -0.1917   0.6363   1.1705   1.8811   2.4621
     3.0472   3.4104

          k = 0.0000-0.5774 0.1032 (  2474 PWs)   bands (ev):

   -12.0694 -11.9625  -0.9595  -0.7718  -0.7541  -0.5701  -0.5060  -0.4284
    -0.2774  -0.2689  -0.2430  -0.1915   0.6078   1.0783   2.1006   2.5294
     3.1235   3.3489

          k = 0.0000-0.5774 0.2065 (  2462 PWs)   bands (ev):

   -12.0452 -11.9834  -0.9800  -0.8773  -0.7213  -0.5671  -0.5562  -0.4721
    -0.2735  -0.2560  -0.2355  -0.1944   0.6180   0.8907   2.5656   2.7092
     3.1804   3.1816

          k = 0.0000-0.5774-0.3097 (  2456 PWs)   bands (ev):

   -12.0135 -12.0135  -0.9621  -0.9621  -0.6472  -0.6472  -0.5231  -0.5231
    -0.2668  -0.2668  -0.2074  -0.2074   0.7201   0.7201   2.9475   2.9475
     2.9923   2.9923

          k = 0.1667 0.2887 0.0000 (  2477 PWs)   bands (ev):

   -12.2421 -11.9772  -0.9163  -0.8761  -0.8007  -0.7227  -0.6060  -0.4269
    -0.4151  -0.3554  -0.2475  -0.1083   0.7801   1.9068   2.0660   2.7257
     3.4956   3.5393

          k = 0.1667 0.2887 0.1032 (  2476 PWs)   bands (ev):

   -12.2241 -11.9947  -0.9306  -0.8733  -0.8036  -0.7331  -0.6221  -0.5185
    -0.4025  -0.3386  -0.2544  -0.1578   0.9384   1.8469   2.2054   2.7475
     3.4370   3.5315

          k = 0.1667 0.2887 0.2065 (  2491 PWs)   bands (ev):

   -12.1753 -12.0427  -0.9541  -0.8875  -0.7976  -0.7530  -0.6714  -0.6632
    -0.3470  -0.3192  -0.2715  -0.2199   1.2101   1.6809   2.5816   2.8573
     3.2800   3.4008

          k = 0.1667 0.2887-0.3097 (  2492 PWs)   bands (ev):

   -12.1088 -12.1088  -0.9395  -0.9395  -0.7740  -0.7740  -0.7042  -0.7042
    -0.3012  -0.3012  -0.2761  -0.2761   1.4594   1.4594   2.9905   2.9905
     3.1191   3.1191

          k = 0.1667 0.4811 0.0000 (  2472 PWs)   bands (ev):

   -12.0818 -11.9531  -0.9117  -0.7834  -0.6433  -0.5669  -0.4780  -0.4580
    -0.3611  -0.3248  -0.2218  -0.1033   0.8256   1.2351   1.8862   2.1620
     3.0562   3.1558

          k = 0.1667 0.4811 0.1032 (  2469 PWs)   bands (ev):

   -12.0724 -11.9609  -0.9090  -0.7915  -0.6883  -0.5751  -0.5047  -0.4855
    -0.3583  -0.3031  -0.2210  -0.1144   0.7979   1.1880   1.9975   2.3146
     3.0374   3.1725

          k = 0.1667 0.4811 0.2065 (  2473 PWs)   bands (ev):

   -12.0473 -11.9829  -0.9120  -0.8283  -0.7321  -0.5945  -0.5640  -0.5452
    -0.3218  -0.2900  -0.2100  -0.1442   0.8122   1.0517   2.2372   2.6881
     2.8524   3.2351

          k = 0.1667 0.4811-0.3097 (  2480 PWs)   bands (ev):

   -12.0143 -12.0143  -0.8951  -0.8951  -0.6728  -0.6728  -0.5724  -0.5724
    -0.2959  -0.2959  -0.1812  -0.1812   0.9075   0.9075   2.5315   2.5315
     3.0900   3.0900

          k = 0.3333 0.5774 0.0000 (  2454 PWs)   bands (ev):

   -11.9869 -11.9869  -0.9190  -0.6576  -0.6576  -0.4396  -0.4024  -0.4024
    -0.3500  -0.3349  -0.1602  -0.1602   1.0510   1.0510   1.2596   2.5834
     2.5834   2.7608

          k = 0.3333 0.5774 0.1032 (  2469 PWs)   bands (ev):

   -11.9860 -11.9860  -0.8965  -0.6926  -0.6926  -0.4780  -0.4183  -0.4183
    -0.3640  -0.3381  -0.1388  -0.1388   0.9886   0.9886   1.3725   2.6608
     2.7325   2.7325

          k = 0.3333 0.5774 0.2065 (  2469 PWs)   bands (ev):

   -11.9840 -11.9840  -0.8293  -0.7628  -0.7628  -0.5920  -0.4392  -0.4392
    -0.3667  -0.3467  -0.1053  -0.1053   0.8920   0.8920   1.6605   2.3923
     3.0066   3.0066

          k = 0.3333 0.5774-0.3097 (  2454 PWs)   bands (ev):

   -11.9830 -11.9830  -0.7973  -0.7973  -0.7226  -0.7226  -0.4467  -0.4467
    -0.3577  -0.3577  -0.0915  -0.0915   0.8533   0.8533   2.0300   2.0300
     3.1364   3.1364

     highest occupied level (ev):     3.9473

!    total energy              =    -361.57707069 Ry
     estimated scf accuracy    <          3.9E-09 Ry

     The total energy is the sum of the following terms:
     one-electron contribution =    -180.21602883 Ry
     hartree contribution      =     127.63525454 Ry
     xc contribution           =    -109.13096147 Ry
     ewald contribution        =    -199.86533492 Ry

     convergence has been achieved in  23 iterations

     Forces acting on atoms (cartesian axes, Ry/au):

     atom    1 type  1   force =     0.00000000    0.00000000    0.00056653
     atom    2 type  2   force =     0.00000000    0.00000000   -0.00056653
     atom    3 type  1   force =     0.00000000    0.00000000    0.00056653
     atom    4 type  2   force =     0.00000000    0.00000000   -0.00056653
     The non-local contrib.  to forces
     atom    1 type  1   force =     0.00000000    0.00000000    0.00976058
     atom    2 type  2   force =     0.00000000   -0.00000000   -0.00090385
     atom    3 type  1   force =     0.00000000   -0.00000000    0.00976058
     atom    4 type  2   force =     0.00000000    0.00000000   -0.00090385
     The ionic contribution  to forces
     atom    1 type  1   force =    -0.00000000    0.00000000   -0.01781321
     atom    2 type  2   force =     0.00000000   -0.00000000    0.01781321
     atom    3 type  1   force =     0.00000000   -0.00000000   -0.01781321
     atom    4 type  2   force =    -0.00000000    0.00000000    0.01781321
     The local contribution  to forces
     atom    1 type  1   force =     0.00000000   -0.00000000    0.00925290
     atom    2 type  2   force =     0.00000001   -0.00000001   -0.01749724
     atom    3 type  1   force =     0.00000005   -0.00000003    0.00925290
     atom    4 type  2   force =     0.00000000    0.00000000   -0.01749724
     The core correction contribution to forces
     atom    1 type  1   force =     0.00000000    0.00000000   -0.00063758
     atom    2 type  2   force =    -0.00000000    0.00000000    0.00002473
     atom    3 type  1   force =     0.00000001   -0.00000000   -0.00063758
     atom    4 type  2   force =     0.00000000   -0.00000000    0.00002473
     The Hubbard contrib.    to forces
     atom    1 type  1   force =     0.00000000    0.00000000    0.00000000
     atom    2 type  2   force =     0.00000000    0.00000000    0.00000000
     atom    3 type  1   force =     0.00000000    0.00000000    0.00000000
     atom    4 type  2   force =     0.00000000    0.00000000    0.00000000
     The SCF correction term to forces
     atom    1 type  1   force =    -0.00000000    0.00000000    0.00000720
     atom    2 type  2   force =     0.00000000   -0.00000000   -0.00000003
     atom    3 type  1   force =     0.00000000   -0.00000000    0.00000720
     atom    4 type  2   force =    -0.00000000    0.00000000   -0.00000003

     Total force =     0.001133     Total SCF correction =     0.000010

     Writing all to output data dir ./ZnO-3.53-1.61-111.in.save/

     init_run     :      2.42s CPU      1.54s WALL (       1 calls)
     electrons    :    106.73s CPU     38.96s WALL (       1 calls)
     forces       :      0.93s CPU      0.43s WALL (       1 calls)

     Called by init_run:
     wfcinit      :      1.45s CPU      0.56s WALL (       1 calls)
     potinit      :      0.32s CPU      0.33s WALL (       1 calls)
     hinit0       :      0.46s CPU      0.47s WALL (       1 calls)

     Called by electrons:
     c_bands      :     85.06s CPU     30.89s WALL (      23 calls)
     sum_band     :     16.31s CPU      6.02s WALL (      23 calls)
     v_of_rho     :      1.06s CPU      0.47s WALL (      24 calls)
     newd         :      4.11s CPU      1.53s WALL (      24 calls)
     mix_rho      :      0.15s CPU      0.08s WALL (      23 calls)

     Called by c_bands:
     init_us_2    :      1.35s CPU      0.45s WALL (    1344 calls)
     init_us_2:cp :      1.33s CPU      0.45s WALL (    1344 calls)
     cegterg      :     82.23s CPU     29.83s WALL (     644 calls)

     Called by *egterg:
     cdiaghg      :      9.54s CPU      3.21s WALL (    3347 calls)
     h_psi        :     57.08s CPU     23.40s WALL (    3375 calls)
     s_psi        :      1.20s CPU      0.31s WALL (    3375 calls)
     g_psi        :      0.36s CPU      0.09s WALL (    2703 calls)

     Called by h_psi:
     h_psi:calbec :      2.05s CPU      0.68s WALL (    3375 calls)
     vloc_psi     :     53.31s CPU     22.23s WALL (    3375 calls)
     add_vuspsi   :      1.27s CPU      0.37s WALL (    3375 calls)

     General routines
     calbec       :      2.75s CPU      0.88s WALL (    4131 calls)
     fft          :      0.80s CPU      0.44s WALL (     321 calls)
     ffts         :      0.19s CPU      0.16s WALL (      47 calls)
     fftw         :     54.88s CPU     22.97s WALL (   85286 calls)
     interpolate  :      0.22s CPU      0.18s WALL (      24 calls)

     Parallel routines

     PWSCF        :   1m50.49s CPU     41.42s WALL


   This run was terminated on:  13:31:58   8Jul2025            

=------------------------------------------------------------------------------=
   JOB DONE.
=------------------------------------------------------------------------------=
Note: The following floating-point exceptions are signalling: IEEE_INVALID_FLAG
