
     Program PWSCF v.7.0 starts on 31Aug2025 at 23:52: 9 

     This program is part of the open-source Quantum ESPRESSO suite
     for quantum simulation of materials; please cite
         "P. Giannozzi et al., J. Phys.:Condens. Matter 21 395502 (2009);
         "P. Giannozzi et al., J. Phys.:Condens. Matter 29 465901 (2017);
         "P. Giannozzi et al., J. Chem. Phys. 152 154105 (2020);
          URL http://www.quantum-espresso.org", 
     in publications or presentations arising from this work. More details at
     http://www.quantum-espresso.org/quote

     Parallel version (MPI & OpenMP), running on      32 processor cores
     Number of MPI processes:                32
     Threads/MPI process:                     1

     MPI processes distributed on     1 nodes
     K-points division:     npool     =       8
     R & G space division:  proc/nbgrp/npool/nimage =       4
     102583 MiB available memory on the printing compute node when the environment starts

     Reading input from /home/jvc/QEspresso7.2/ZnO_database/scripts/cell123.in/ZnO-3.47-1.55-123.in
Warning: card &CELL ignored
Warning: card / ignored
Warning: card &FCP ignored
Warning: card / ignored
Warning: card &RISM ignored
Warning: card / ignored

     Current dimensions of program PWSCF are:
     Max number of different atomic species (ntypx) = 10
     Max number of k-points (npk) =  40000
     Max angular momentum in pseudopotentials (lmaxx) =  4
     file Zn.upf: wavefunction(s)  3D renormalized
     Found identity + (  0.0000  0.0000  0.3333) symmetry
     This is a supercell, fractional translations are disabled
     Message from routine setup:
     using ibrav=0 with symmetry is DISCOURAGED, use correct ibrav instead

     Subspace diagonalization in iterative solution of the eigenvalue problem:
     one sub-group per band group will be used
     scalapack distributed-memory algorithm (size of sub-group:  2*  2 procs)


     Parallelization info
     --------------------
     sticks:   dense  smooth     PW     G-vecs:    dense   smooth      PW
     Min         591     294     91                76397    27014    4549
     Max         592     296     92                76400    27017    4556
     Sum        2365    1179    365               305593   108063   18203

     Using Slab Decomposition



     bravais-lattice index     =            0
     lattice parameter (alat)  =       6.5496  a.u.
     unit-cell volume          =    2262.5305 (a.u.)^3
     number of atoms/cell      =           24
     number of atomic types    =            2
     number of electrons       =       216.00
     number of Kohn-Sham states=          108
     kinetic-energy cutoff     =      50.0000  Ry
     charge density cutoff     =     400.0000  Ry
     scf convergence threshold =      1.0E-08
     mixing beta               =       0.3000
     number of iterations used =            8  plain     mixing
     Exchange-correlation= PBE
                           (   1   4   3   4   0   0   0)

     celldm(1)=   6.549585  celldm(2)=   0.000000  celldm(3)=   0.000000
     celldm(4)=   0.000000  celldm(5)=   0.000000  celldm(6)=   0.000000

     crystal axes: (cart. coord. in units of alat)
               a(1) = (   1.000000   0.000000   0.000000 )  
               a(2) = (  -1.000000   1.732051   0.000000 )  
               a(3) = (   0.000000   0.000000   4.649352 )  

     reciprocal axes: (cart. coord. in units 2 pi/alat)
               b(1) = (  1.000000  0.577350 -0.000000 )  
               b(2) = (  0.000000  0.577350  0.000000 )  
               b(3) = (  0.000000 -0.000000  0.215084 )  


     PseudoPot. # 1 for Zn read from file:
     /home/jvc/QEspresso7.2/ZnO_database/pseudos/Zn.upf
     MD5 check sum: 7f56cabf9682ed8c977c2f7d0c5985c5
     Pseudo is Ultrasoft + core correction, Zval = 12.0
     Generated using &quot;atomic&quot; code by A. Dal Corso  v.6.2.2
     Using radial grid of 1201 points,  6 beta functions with: 
                l(1) =   0
                l(2) =   0
                l(3) =   1
                l(4) =   1
                l(5) =   2
                l(6) =   2
     Q(r) pseudized with 0 coefficients 


     PseudoPot. # 2 for O  read from file:
     /home/jvc/QEspresso7.2/ZnO_database/pseudos/O.upf
     MD5 check sum: 91400c9766925bcf19f520983a725ff0
     Pseudo is Ultrasoft + core correction, Zval =  6.0
     Generated using &quot;atomic&quot; code by A. Dal Corso  v.6.3MaX
     Using radial grid of 1095 points,  4 beta functions with: 
                l(1) =   0
                l(2) =   0
                l(3) =   1
                l(4) =   1
     Q(r) pseudized with 0 coefficients 


     atomic species   valence    mass     pseudopotential
        Zn            12.00    65.38000     Zn( 1.00)
        O              6.00    15.99900     O ( 1.00)

      2 Sym. Ops. (no inversion) found


                                    s                        frac. trans.

      isym =  1     identity                                     

 cryst.   s( 1) = (     1          0          0      )
                  (     0          1          0      )
                  (     0          0          1      )

 cart.    s( 1) = (  1.0000000  0.0000000  0.0000000 )
                  (  0.0000000  1.0000000  0.0000000 )
                  (  0.0000000  0.0000000  1.0000000 )


      isym =  2     inv. 180 deg rotation - cart. axis [1,0,0]   

 cryst.   s( 2) = (    -1          0          0      )
                  (     2          1          0      )
                  (     0          0          1      )

 cart.    s( 2) = ( -1.0000000  0.0000000  0.0000000 )
                  (  0.0000000  1.0000000  0.0000000 )
                  (  0.0000000  0.0000000  1.0000000 )


   Cartesian axes

     site n.     atom                  positions (alat units)
         1           Zn  tau(   1) = (   0.5000000   0.2886751   0.7758739  )
         2           Zn  tau(   2) = (   0.0000000   0.5773503   0.0009819  )
         3           O   tau(   3) = (   0.5000000   0.2886751   1.3633085  )
         4           O   tau(   4) = (   0.0000000   0.5773503   0.5884164  )
         5           Zn  tau(   5) = (   0.5000000   0.2886751   2.3256580  )
         6           Zn  tau(   6) = (   0.0000000   0.5773503   1.5507659  )
         7           O   tau(   7) = (   0.5000000   0.2886751   2.9130925  )
         8           O   tau(   8) = (   0.0000000   0.5773503   2.1382005  )
         9           Zn  tau(   9) = (   0.5000000   0.2886751   3.8754420  )
        10           Zn  tau(  10) = (   0.0000000   0.5773503   3.1005500  )
        11           O   tau(  11) = (   0.5000000   0.2886751   4.4628765  )
        12           O   tau(  12) = (   0.0000000   0.5773503   3.6879845  )
        13           Zn  tau(  13) = (   0.0000000   1.1547005   0.7758739  )
        14           Zn  tau(  14) = (  -0.5000000   1.4433757   0.0009819  )
        15           O   tau(  15) = (   0.0000000   1.1547005   1.3633085  )
        16           O   tau(  16) = (  -0.5000000   1.4433757   0.5884164  )
        17           Zn  tau(  17) = (   0.0000000   1.1547005   2.3256580  )
        18           Zn  tau(  18) = (  -0.5000000   1.4433757   1.5507659  )
        19           O   tau(  19) = (   0.0000000   1.1547005   2.9130925  )
        20           O   tau(  20) = (  -0.5000000   1.4433757   2.1382005  )
        21           Zn  tau(  21) = (   0.0000000   1.1547005   3.8754420  )
        22           Zn  tau(  22) = (  -0.5000000   1.4433757   3.1005500  )
        23           O   tau(  23) = (   0.0000000   1.1547005   4.4628765  )
        24           O   tau(  24) = (  -0.5000000   1.4433757   3.6879845  )

   Crystallographic axes

     site n.     atom                  positions (cryst. coord.)
         1           Zn  tau(   1) = (  0.6666667  0.1666667  0.1668779  )
         2           Zn  tau(   2) = (  0.3333333  0.3333333  0.0002112  )
         3           O   tau(   3) = (  0.6666667  0.1666667  0.2932255  )
         4           O   tau(   4) = (  0.3333333  0.3333333  0.1265588  )
         5           Zn  tau(   5) = (  0.6666667  0.1666667  0.5002112  )
         6           Zn  tau(   6) = (  0.3333333  0.3333333  0.3335445  )
         7           O   tau(   7) = (  0.6666667  0.1666667  0.6265588  )
         8           O   tau(   8) = (  0.3333333  0.3333333  0.4598921  )
         9           Zn  tau(   9) = (  0.6666667  0.1666667  0.8335445  )
        10           Zn  tau(  10) = (  0.3333333  0.3333333  0.6668779  )
        11           O   tau(  11) = (  0.6666667  0.1666667  0.9598921  )
        12           O   tau(  12) = (  0.3333333  0.3333333  0.7932255  )
        13           Zn  tau(  13) = (  0.6666667  0.6666667  0.1668779  )
        14           Zn  tau(  14) = (  0.3333333  0.8333333  0.0002112  )
        15           O   tau(  15) = (  0.6666667  0.6666667  0.2932255  )
        16           O   tau(  16) = (  0.3333333  0.8333333  0.1265588  )
        17           Zn  tau(  17) = (  0.6666667  0.6666667  0.5002112  )
        18           Zn  tau(  18) = (  0.3333333  0.8333333  0.3335445  )
        19           O   tau(  19) = (  0.6666667  0.6666667  0.6265588  )
        20           O   tau(  20) = (  0.3333333  0.8333333  0.4598921  )
        21           Zn  tau(  21) = (  0.6666667  0.6666667  0.8335445  )
        22           Zn  tau(  22) = (  0.3333333  0.8333333  0.6668779  )
        23           O   tau(  23) = (  0.6666667  0.6666667  0.9598921  )
        24           O   tau(  24) = (  0.3333333  0.8333333  0.7932255  )

     number of k points=    80
                       cart. coord. in units 2pi/alat
        k(    1) = (   0.0000000   0.0000000   0.0000000), wk =   0.0092593
        k(    2) = (   0.0000000   0.0000000   0.0358473), wk =   0.0185185
        k(    3) = (   0.0000000   0.0000000   0.0716946), wk =   0.0185185
        k(    4) = (   0.0000000   0.0000000  -0.1075419), wk =   0.0092593
        k(    5) = (   0.0000000   0.0962250   0.0000000), wk =   0.0185185
        k(    6) = (   0.0000000   0.0962250   0.0358473), wk =   0.0185185
        k(    7) = (   0.0000000   0.0962250   0.0716946), wk =   0.0185185
        k(    8) = (   0.0000000   0.0962250  -0.1075419), wk =   0.0185185
        k(    9) = (   0.0000000   0.1924501   0.0000000), wk =   0.0185185
        k(   10) = (   0.0000000   0.1924501   0.0358473), wk =   0.0185185
        k(   11) = (   0.0000000   0.1924501   0.0716946), wk =   0.0185185
        k(   12) = (   0.0000000   0.1924501  -0.1075419), wk =   0.0185185
        k(   13) = (   0.0000000  -0.2886751   0.0000000), wk =   0.0092593
        k(   14) = (   0.0000000  -0.2886751   0.0358473), wk =   0.0185185
        k(   15) = (   0.0000000  -0.2886751   0.0716946), wk =   0.0185185
        k(   16) = (   0.0000000  -0.2886751  -0.1075419), wk =   0.0092593
        k(   17) = (   0.1666667   0.0962250   0.0000000), wk =   0.0370370
        k(   18) = (   0.1666667   0.0962250   0.0358473), wk =   0.0370370
        k(   19) = (   0.1666667   0.0962250   0.0716946), wk =   0.0370370
        k(   20) = (   0.1666667   0.0962250  -0.1075419), wk =   0.0370370
        k(   21) = (   0.1666667   0.1924501   0.0000000), wk =   0.0370370
        k(   22) = (   0.1666667   0.1924501   0.0358473), wk =   0.0370370
        k(   23) = (   0.1666667   0.1924501   0.0716946), wk =   0.0370370
        k(   24) = (   0.1666667   0.1924501  -0.1075419), wk =   0.0370370
        k(   25) = (   0.1666667   0.2886751   0.0000000), wk =   0.0185185
        k(   26) = (   0.1666667   0.2886751   0.0358473), wk =   0.0370370
        k(   27) = (   0.1666667   0.2886751   0.0716946), wk =   0.0370370
        k(   28) = (   0.1666667   0.2886751  -0.1075419), wk =   0.0185185
        k(   29) = (   0.1666667   0.0000000   0.0000000), wk =   0.0185185
        k(   30) = (   0.1666667   0.0000000   0.0358473), wk =   0.0370370
        k(   31) = (   0.1666667   0.0000000   0.0716946), wk =   0.0370370
        k(   32) = (   0.1666667   0.0000000  -0.1075419), wk =   0.0185185
        k(   33) = (   0.3333333   0.1924501   0.0000000), wk =   0.0370370
        k(   34) = (   0.3333333   0.1924501   0.0358473), wk =   0.0370370
        k(   35) = (   0.3333333   0.1924501   0.0716946), wk =   0.0370370
        k(   36) = (   0.3333333   0.1924501  -0.1075419), wk =   0.0370370
        k(   37) = (   0.3333333   0.2886751   0.0000000), wk =   0.0185185
        k(   38) = (   0.3333333   0.2886751   0.0358473), wk =   0.0370370
        k(   39) = (   0.3333333   0.2886751   0.0716946), wk =   0.0370370
        k(   40) = (   0.3333333   0.2886751  -0.1075419), wk =   0.0185185
        k(   41) = (   0.3333333  -0.0962250   0.0000000), wk =   0.0370370
        k(   42) = (   0.3333333  -0.0962250   0.0358473), wk =   0.0370370
        k(   43) = (   0.3333333  -0.0962250   0.0716946), wk =   0.0370370
        k(   44) = (   0.3333333  -0.0962250  -0.1075419), wk =   0.0370370
        k(   45) = (   0.3333333  -0.0000000   0.0000000), wk =   0.0185185
        k(   46) = (   0.3333333  -0.0000000   0.0358473), wk =   0.0370370
        k(   47) = (   0.3333333  -0.0000000   0.0716946), wk =   0.0370370
        k(   48) = (   0.3333333  -0.0000000  -0.1075419), wk =   0.0185185
        k(   49) = (  -0.5000000  -0.2886751   0.0000000), wk =   0.0092593
        k(   50) = (  -0.5000000  -0.2886751   0.0358473), wk =   0.0185185
        k(   51) = (  -0.5000000  -0.2886751   0.0716946), wk =   0.0185185
        k(   52) = (  -0.5000000  -0.2886751  -0.1075419), wk =   0.0092593
        k(   53) = (  -0.5000000  -0.1924501   0.0000000), wk =   0.0185185
        k(   54) = (  -0.5000000  -0.1924501   0.0358473), wk =   0.0185185
        k(   55) = (  -0.5000000  -0.1924501   0.0716946), wk =   0.0185185
        k(   56) = (  -0.5000000  -0.1924501  -0.1075419), wk =   0.0185185
        k(   57) = (  -0.5000000  -0.0962250   0.0000000), wk =   0.0185185
        k(   58) = (  -0.5000000  -0.0962250   0.0358473), wk =   0.0185185
        k(   59) = (  -0.5000000  -0.0962250   0.0716946), wk =   0.0185185
        k(   60) = (  -0.5000000  -0.0962250  -0.1075419), wk =   0.0185185
        k(   61) = (  -0.5000000  -0.5773503   0.0000000), wk =   0.0092593
        k(   62) = (  -0.5000000  -0.5773503   0.0358473), wk =   0.0185185
        k(   63) = (  -0.5000000  -0.5773503   0.0716946), wk =   0.0185185
        k(   64) = (  -0.5000000  -0.5773503  -0.1075419), wk =   0.0092593
        k(   65) = (   0.0000000   0.0962250  -0.0358473), wk =   0.0185185
        k(   66) = (   0.0000000   0.0962250  -0.0716946), wk =   0.0185185
        k(   67) = (   0.0000000   0.1924501  -0.0358473), wk =   0.0185185
        k(   68) = (   0.0000000   0.1924501  -0.0716946), wk =   0.0185185
        k(   69) = (  -0.1666667   0.0962250  -0.0358473), wk =   0.0370370
        k(   70) = (  -0.1666667   0.0962250  -0.0716946), wk =   0.0370370
        k(   71) = (  -0.1666667   0.1924501  -0.0358473), wk =   0.0370370
        k(   72) = (  -0.1666667   0.1924501  -0.0716946), wk =   0.0370370
        k(   73) = (  -0.3333333   0.1924501  -0.0358473), wk =   0.0370370
        k(   74) = (  -0.3333333   0.1924501  -0.0716946), wk =   0.0370370
        k(   75) = (  -0.3333333  -0.0962250  -0.0358473), wk =   0.0370370
        k(   76) = (  -0.3333333  -0.0962250  -0.0716946), wk =   0.0370370
        k(   77) = (   0.5000000  -0.1924501  -0.0358473), wk =   0.0185185
        k(   78) = (   0.5000000  -0.1924501  -0.0716946), wk =   0.0185185
        k(   79) = (   0.5000000  -0.0962250  -0.0358473), wk =   0.0185185
        k(   80) = (   0.5000000  -0.0962250  -0.0716946), wk =   0.0185185

                       cryst. coord.
        k(    1) = (   0.0000000   0.0000000   0.0000000), wk =   0.0092593
        k(    2) = (   0.0000000   0.0000000   0.1666667), wk =   0.0185185
        k(    3) = (   0.0000000   0.0000000   0.3333333), wk =   0.0185185
        k(    4) = (   0.0000000   0.0000000  -0.5000000), wk =   0.0092593
        k(    5) = (   0.0000000   0.1666667   0.0000000), wk =   0.0185185
        k(    6) = (   0.0000000   0.1666667   0.1666667), wk =   0.0185185
        k(    7) = (   0.0000000   0.1666667   0.3333333), wk =   0.0185185
        k(    8) = (   0.0000000   0.1666667  -0.5000000), wk =   0.0185185
        k(    9) = (   0.0000000   0.3333333   0.0000000), wk =   0.0185185
        k(   10) = (   0.0000000   0.3333333   0.1666667), wk =   0.0185185
        k(   11) = (   0.0000000   0.3333333   0.3333333), wk =   0.0185185
        k(   12) = (   0.0000000   0.3333333  -0.5000000), wk =   0.0185185
        k(   13) = (   0.0000000  -0.5000000   0.0000000), wk =   0.0092593
        k(   14) = (   0.0000000  -0.5000000   0.1666667), wk =   0.0185185
        k(   15) = (   0.0000000  -0.5000000   0.3333333), wk =   0.0185185
        k(   16) = (   0.0000000  -0.5000000  -0.5000000), wk =   0.0092593
        k(   17) = (   0.1666667   0.0000000   0.0000000), wk =   0.0370370
        k(   18) = (   0.1666667   0.0000000   0.1666667), wk =   0.0370370
        k(   19) = (   0.1666667   0.0000000   0.3333333), wk =   0.0370370
        k(   20) = (   0.1666667   0.0000000  -0.5000000), wk =   0.0370370
        k(   21) = (   0.1666667   0.1666667   0.0000000), wk =   0.0370370
        k(   22) = (   0.1666667   0.1666667   0.1666667), wk =   0.0370370
        k(   23) = (   0.1666667   0.1666667   0.3333333), wk =   0.0370370
        k(   24) = (   0.1666667   0.1666667  -0.5000000), wk =   0.0370370
        k(   25) = (   0.1666667   0.3333333   0.0000000), wk =   0.0185185
        k(   26) = (   0.1666667   0.3333333   0.1666667), wk =   0.0370370
        k(   27) = (   0.1666667   0.3333333   0.3333333), wk =   0.0370370
        k(   28) = (   0.1666667   0.3333333  -0.5000000), wk =   0.0185185
        k(   29) = (   0.1666667  -0.1666667   0.0000000), wk =   0.0185185
        k(   30) = (   0.1666667  -0.1666667   0.1666667), wk =   0.0370370
        k(   31) = (   0.1666667  -0.1666667   0.3333333), wk =   0.0370370
        k(   32) = (   0.1666667  -0.1666667  -0.5000000), wk =   0.0185185
        k(   33) = (   0.3333333   0.0000000   0.0000000), wk =   0.0370370
        k(   34) = (   0.3333333   0.0000000   0.1666667), wk =   0.0370370
        k(   35) = (   0.3333333   0.0000000   0.3333333), wk =   0.0370370
        k(   36) = (   0.3333333   0.0000000  -0.5000000), wk =   0.0370370
        k(   37) = (   0.3333333   0.1666667   0.0000000), wk =   0.0185185
        k(   38) = (   0.3333333   0.1666667   0.1666667), wk =   0.0370370
        k(   39) = (   0.3333333   0.1666667   0.3333333), wk =   0.0370370
        k(   40) = (   0.3333333   0.1666667  -0.5000000), wk =   0.0185185
        k(   41) = (   0.3333333  -0.5000000   0.0000000), wk =   0.0370370
        k(   42) = (   0.3333333  -0.5000000   0.1666667), wk =   0.0370370
        k(   43) = (   0.3333333  -0.5000000   0.3333333), wk =   0.0370370
        k(   44) = (   0.3333333  -0.5000000  -0.5000000), wk =   0.0370370
        k(   45) = (   0.3333333  -0.3333333   0.0000000), wk =   0.0185185
        k(   46) = (   0.3333333  -0.3333333   0.1666667), wk =   0.0370370
        k(   47) = (   0.3333333  -0.3333333   0.3333333), wk =   0.0370370
        k(   48) = (   0.3333333  -0.3333333  -0.5000000), wk =   0.0185185
        k(   49) = (  -0.5000000   0.0000000   0.0000000), wk =   0.0092593
        k(   50) = (  -0.5000000   0.0000000   0.1666667), wk =   0.0185185
        k(   51) = (  -0.5000000   0.0000000   0.3333333), wk =   0.0185185
        k(   52) = (  -0.5000000   0.0000000  -0.5000000), wk =   0.0092593
        k(   53) = (  -0.5000000   0.1666667   0.0000000), wk =   0.0185185
        k(   54) = (  -0.5000000   0.1666667   0.1666667), wk =   0.0185185
        k(   55) = (  -0.5000000   0.1666667   0.3333333), wk =   0.0185185
        k(   56) = (  -0.5000000   0.1666667  -0.5000000), wk =   0.0185185
        k(   57) = (  -0.5000000   0.3333333   0.0000000), wk =   0.0185185
        k(   58) = (  -0.5000000   0.3333333   0.1666667), wk =   0.0185185
        k(   59) = (  -0.5000000   0.3333333   0.3333333), wk =   0.0185185
        k(   60) = (  -0.5000000   0.3333333  -0.5000000), wk =   0.0185185
        k(   61) = (  -0.5000000  -0.5000000   0.0000000), wk =   0.0092593
        k(   62) = (  -0.5000000  -0.5000000   0.1666667), wk =   0.0185185
        k(   63) = (  -0.5000000  -0.5000000   0.3333333), wk =   0.0185185
        k(   64) = (  -0.5000000  -0.5000000  -0.5000000), wk =   0.0092593
        k(   65) = (   0.0000000   0.1666667  -0.1666667), wk =   0.0185185
        k(   66) = (   0.0000000   0.1666667  -0.3333333), wk =   0.0185185
        k(   67) = (   0.0000000   0.3333333  -0.1666667), wk =   0.0185185
        k(   68) = (   0.0000000   0.3333333  -0.3333333), wk =   0.0185185
        k(   69) = (  -0.1666667   0.3333333  -0.1666667), wk =   0.0370370
        k(   70) = (  -0.1666667   0.3333333  -0.3333333), wk =   0.0370370
        k(   71) = (  -0.1666667   0.5000000  -0.1666667), wk =   0.0370370
        k(   72) = (  -0.1666667   0.5000000  -0.3333333), wk =   0.0370370
        k(   73) = (  -0.3333333   0.6666667  -0.1666667), wk =   0.0370370
        k(   74) = (  -0.3333333   0.6666667  -0.3333333), wk =   0.0370370
        k(   75) = (  -0.3333333   0.1666667  -0.1666667), wk =   0.0370370
        k(   76) = (  -0.3333333   0.1666667  -0.3333333), wk =   0.0370370
        k(   77) = (   0.5000000  -0.8333333  -0.1666667), wk =   0.0185185
        k(   78) = (   0.5000000  -0.8333333  -0.3333333), wk =   0.0185185
        k(   79) = (   0.5000000  -0.6666667  -0.1666667), wk =   0.0185185
        k(   80) = (   0.5000000  -0.6666667  -0.3333333), wk =   0.0185185

     Dense  grid:   305593 G-vectors     FFT dimensions: (  45,  90, 200)

     Smooth grid:   108063 G-vectors     FFT dimensions: (  30,  60, 144)

     Dynamical RAM for                 wfc:       5.57 MB

     Dynamical RAM for     wfc (w. buffer):      61.22 MB

     Dynamical RAM for           str. fact:       2.33 MB

     Dynamical RAM for           local pot:       0.00 MB

     Dynamical RAM for          nlocal pot:      16.08 MB

     Dynamical RAM for                qrad:       3.21 MB

     Dynamical RAM for          rho,v,vnew:       8.13 MB

     Dynamical RAM for               rhoin:       2.71 MB

     Dynamical RAM for            rho*nmix:      18.65 MB

     Dynamical RAM for           G-vectors:       4.58 MB

     Dynamical RAM for          h,s,v(r/c):       0.53 MB

     Dynamical RAM for          <psi|beta>:       0.51 MB

     Dynamical RAM for                 psi:      11.13 MB

     Dynamical RAM for                hpsi:      11.13 MB

     Dynamical RAM for                spsi:      11.13 MB

     Dynamical RAM for      wfcinit/wfcrot:      16.64 MB

     Dynamical RAM for           addusdens:      29.87 MB

     Dynamical RAM for          addusforce:      32.69 MB

     Estimated static dynamical RAM per process >     109.48 MB

     Estimated max dynamical RAM per process >     162.57 MB

     Estimated total dynamical RAM >       4.57 GB

     Check: negative core charge=   -0.000002

     Initial potential from superposition of free atoms

     starting charge     215.9553, renormalised to     216.0000
     Starting wfcs are  156 randomized atomic wfcs

     total cpu time spent up to now is       26.7 secs

     per-process dynamical memory:   143.2 Mb

     Self-consistent Calculation

     iteration #  1     ecut=    50.00 Ry     beta= 0.30
     Davidson diagonalization with overlap

---- Real-time Memory Report at c_bands before calling an iterative solver
           170 MiB given to the printing process from OS
           139 MiB allocation reported by mallinfo(arena+hblkhd)
         98204 MiB available memory on the node where the printing process lives
------------------
     ethr =  1.00E-02,  avg # of iterations =  1.7

     total cpu time spent up to now is       65.2 secs

     total energy              =   -2168.62171099 Ry
     estimated scf accuracy    <       4.50675592 Ry

     iteration #  2     ecut=    50.00 Ry     beta= 0.30
     Davidson diagonalization with overlap

---- Real-time Memory Report at c_bands before calling an iterative solver
           197 MiB given to the printing process from OS
           166 MiB allocation reported by mallinfo(arena+hblkhd)
         97318 MiB available memory on the node where the printing process lives
------------------
     ethr =  2.09E-03,  avg # of iterations =  2.1

     total cpu time spent up to now is      114.0 secs

     total energy              =   -2169.34488205 Ry
     estimated scf accuracy    <       0.49189297 Ry

     iteration #  3     ecut=    50.00 Ry     beta= 0.30
     Davidson diagonalization with overlap

---- Real-time Memory Report at c_bands before calling an iterative solver
           200 MiB given to the printing process from OS
           169 MiB allocation reported by mallinfo(arena+hblkhd)
         97352 MiB available memory on the node where the printing process lives
------------------
     ethr =  2.28E-04,  avg # of iterations =  7.6

     total cpu time spent up to now is      199.1 secs

     total energy              =   -2169.44968984 Ry
     estimated scf accuracy    <       0.47921197 Ry

     iteration #  4     ecut=    50.00 Ry     beta= 0.30
     Davidson diagonalization with overlap

---- Real-time Memory Report at c_bands before calling an iterative solver
           201 MiB given to the printing process from OS
           170 MiB allocation reported by mallinfo(arena+hblkhd)
         97343 MiB available memory on the node where the printing process lives
------------------
     ethr =  2.22E-04,  avg # of iterations = 10.2

     total cpu time spent up to now is      317.9 secs

     total energy              =   -2169.82349119 Ry
     estimated scf accuracy    <       2.19291667 Ry

     iteration #  5     ecut=    50.00 Ry     beta= 0.30
     Davidson diagonalization with overlap

---- Real-time Memory Report at c_bands before calling an iterative solver
           202 MiB given to the printing process from OS
           171 MiB allocation reported by mallinfo(arena+hblkhd)
         97315 MiB available memory on the node where the printing process lives
------------------
     ethr =  2.22E-04,  avg # of iterations =  2.0

     total cpu time spent up to now is      360.0 secs

     total energy              =   -2169.57871371 Ry
     estimated scf accuracy    <       1.35384321 Ry

     iteration #  6     ecut=    50.00 Ry     beta= 0.30
     Davidson diagonalization with overlap

---- Real-time Memory Report at c_bands before calling an iterative solver
           203 MiB given to the printing process from OS
           172 MiB allocation reported by mallinfo(arena+hblkhd)
         97313 MiB available memory on the node where the printing process lives
------------------
     ethr =  2.22E-04,  avg # of iterations =  3.8

     total cpu time spent up to now is      415.3 secs

     total energy              =   -2169.44299415 Ry
     estimated scf accuracy    <       0.41458650 Ry

     iteration #  7     ecut=    50.00 Ry     beta= 0.30
     Davidson diagonalization with overlap

---- Real-time Memory Report at c_bands before calling an iterative solver
           204 MiB given to the printing process from OS
           173 MiB allocation reported by mallinfo(arena+hblkhd)
         97317 MiB available memory on the node where the printing process lives
------------------
     ethr =  1.92E-04,  avg # of iterations =  6.6

     total cpu time spent up to now is      490.1 secs

     total energy              =   -2169.74964515 Ry
     estimated scf accuracy    <       0.32947423 Ry

     iteration #  8     ecut=    50.00 Ry     beta= 0.30
     Davidson diagonalization with overlap

---- Real-time Memory Report at c_bands before calling an iterative solver
           205 MiB given to the printing process from OS
           174 MiB allocation reported by mallinfo(arena+hblkhd)
         97316 MiB available memory on the node where the printing process lives
------------------
     ethr =  1.53E-04,  avg # of iterations =  1.1

     total cpu time spent up to now is      529.3 secs

     total energy              =   -2169.72466200 Ry
     estimated scf accuracy    <       0.27748578 Ry

     iteration #  9     ecut=    50.00 Ry     beta= 0.30
     Davidson diagonalization with overlap

---- Real-time Memory Report at c_bands before calling an iterative solver
           206 MiB given to the printing process from OS
           175 MiB allocation reported by mallinfo(arena+hblkhd)
         97305 MiB available memory on the node where the printing process lives
------------------
     ethr =  1.28E-04,  avg # of iterations =  1.0

     total cpu time spent up to now is      567.7 secs

     total energy              =   -2169.71464197 Ry
     estimated scf accuracy    <       0.20069646 Ry

     iteration # 10     ecut=    50.00 Ry     beta= 0.30
     Davidson diagonalization with overlap

---- Real-time Memory Report at c_bands before calling an iterative solver
           207 MiB given to the printing process from OS
           176 MiB allocation reported by mallinfo(arena+hblkhd)
         97312 MiB available memory on the node where the printing process lives
------------------
     ethr =  9.29E-05,  avg # of iterations =  1.0

     total cpu time spent up to now is      605.6 secs

     total energy              =   -2169.65328306 Ry
     estimated scf accuracy    <       0.16543167 Ry

     iteration # 11     ecut=    50.00 Ry     beta= 0.30
     Davidson diagonalization with overlap

---- Real-time Memory Report at c_bands before calling an iterative solver
           207 MiB given to the printing process from OS
           176 MiB allocation reported by mallinfo(arena+hblkhd)
         97312 MiB available memory on the node where the printing process lives
------------------
     ethr =  7.66E-05,  avg # of iterations =  2.8

     total cpu time spent up to now is      652.5 secs

     total energy              =   -2169.66886267 Ry
     estimated scf accuracy    <       0.04448600 Ry

     iteration # 12     ecut=    50.00 Ry     beta= 0.30
     Davidson diagonalization with overlap

---- Real-time Memory Report at c_bands before calling an iterative solver
           207 MiB given to the printing process from OS
           176 MiB allocation reported by mallinfo(arena+hblkhd)
         97312 MiB available memory on the node where the printing process lives
------------------
     ethr =  2.06E-05,  avg # of iterations =  5.5

     total cpu time spent up to now is      718.6 secs

     total energy              =   -2169.68655703 Ry
     estimated scf accuracy    <       0.00278556 Ry

     iteration # 13     ecut=    50.00 Ry     beta= 0.30
     Davidson diagonalization with overlap

---- Real-time Memory Report at c_bands before calling an iterative solver
           207 MiB given to the printing process from OS
           182 MiB allocation reported by mallinfo(arena+hblkhd)
         97312 MiB available memory on the node where the printing process lives
------------------
     ethr =  1.29E-06,  avg # of iterations =  6.7

     total cpu time spent up to now is      800.0 secs

     total energy              =   -2169.68866702 Ry
     estimated scf accuracy    <       0.00011563 Ry

     iteration # 14     ecut=    50.00 Ry     beta= 0.30
     Davidson diagonalization with overlap

---- Real-time Memory Report at c_bands before calling an iterative solver
           208 MiB given to the printing process from OS
           182 MiB allocation reported by mallinfo(arena+hblkhd)
         97311 MiB available memory on the node where the printing process lives
------------------
     ethr =  5.35E-08,  avg # of iterations =  9.7

     total cpu time spent up to now is      907.9 secs

     total energy              =   -2169.68816119 Ry
     estimated scf accuracy    <       0.00113424 Ry

     iteration # 15     ecut=    50.00 Ry     beta= 0.30
     Davidson diagonalization with overlap

---- Real-time Memory Report at c_bands before calling an iterative solver
           208 MiB given to the printing process from OS
           182 MiB allocation reported by mallinfo(arena+hblkhd)
         97311 MiB available memory on the node where the printing process lives
------------------
     c_bands:  1 eigenvalues not converged
     c_bands:  2 eigenvalues not converged
     c_bands:  2 eigenvalues not converged
     c_bands:  1 eigenvalues not converged
     c_bands:  1 eigenvalues not converged
     c_bands:  1 eigenvalues not converged
     ethr =  5.35E-08,  avg # of iterations = 16.1

     total cpu time spent up to now is     1092.1 secs

     total energy              =   -2169.70194510 Ry
     estimated scf accuracy    <       0.01522980 Ry

     iteration # 16     ecut=    50.00 Ry     beta= 0.30
     Davidson diagonalization with overlap

---- Real-time Memory Report at c_bands before calling an iterative solver
           208 MiB given to the printing process from OS
           182 MiB allocation reported by mallinfo(arena+hblkhd)
         97311 MiB available memory on the node where the printing process lives
------------------
     c_bands:  1 eigenvalues not converged
     c_bands:  1 eigenvalues not converged
     c_bands:  1 eigenvalues not converged
     c_bands:  2 eigenvalues not converged
     c_bands:  1 eigenvalues not converged
     c_bands:  1 eigenvalues not converged
     c_bands:  2 eigenvalues not converged
     c_bands:  2 eigenvalues not converged
     ethr =  5.35E-08,  avg # of iterations = 16.9

     total cpu time spent up to now is     1277.5 secs

     total energy              =   -2169.70868334 Ry
     estimated scf accuracy    <       0.07129529 Ry

     iteration # 17     ecut=    50.00 Ry     beta= 0.30
     Davidson diagonalization with overlap

---- Real-time Memory Report at c_bands before calling an iterative solver
           208 MiB given to the printing process from OS
           182 MiB allocation reported by mallinfo(arena+hblkhd)
         97311 MiB available memory on the node where the printing process lives
------------------
     ethr =  5.35E-08,  avg # of iterations =  6.7

     total cpu time spent up to now is     1359.2 secs

     total energy              =   -2169.70049583 Ry
     estimated scf accuracy    <       0.08447002 Ry

     iteration # 18     ecut=    50.00 Ry     beta= 0.30
     Davidson diagonalization with overlap

---- Real-time Memory Report at c_bands before calling an iterative solver
           208 MiB given to the printing process from OS
           182 MiB allocation reported by mallinfo(arena+hblkhd)
         97311 MiB available memory on the node where the printing process lives
------------------
     c_bands:  1 eigenvalues not converged
     c_bands:  1 eigenvalues not converged
     c_bands:  1 eigenvalues not converged
     ethr =  5.35E-08,  avg # of iterations = 13.3

     total cpu time spent up to now is     1494.3 secs

     total energy              =   -2169.69189686 Ry
     estimated scf accuracy    <       0.05336239 Ry

     iteration # 19     ecut=    50.00 Ry     beta= 0.30
     Davidson diagonalization with overlap

---- Real-time Memory Report at c_bands before calling an iterative solver
           208 MiB given to the printing process from OS
           182 MiB allocation reported by mallinfo(arena+hblkhd)
         97306 MiB available memory on the node where the printing process lives
------------------
     c_bands:  1 eigenvalues not converged
     c_bands:  1 eigenvalues not converged
     c_bands:  1 eigenvalues not converged
     c_bands:  1 eigenvalues not converged
     c_bands:  1 eigenvalues not converged
     ethr =  5.35E-08,  avg # of iterations = 15.0

     total cpu time spent up to now is     1654.7 secs

     total energy              =   -2169.69430968 Ry
     estimated scf accuracy    <       0.01995290 Ry

     iteration # 20     ecut=    50.00 Ry     beta= 0.30
     Davidson diagonalization with overlap

---- Real-time Memory Report at c_bands before calling an iterative solver
           208 MiB given to the printing process from OS
           182 MiB allocation reported by mallinfo(arena+hblkhd)
         97298 MiB available memory on the node where the printing process lives
------------------
     ethr =  5.35E-08,  avg # of iterations =  4.8

     total cpu time spent up to now is     1708.0 secs

     total energy              =   -2169.68427954 Ry
     estimated scf accuracy    <       0.02252161 Ry

     iteration # 21     ecut=    50.00 Ry     beta= 0.30
     Davidson diagonalization with overlap

---- Real-time Memory Report at c_bands before calling an iterative solver
           208 MiB given to the printing process from OS
           182 MiB allocation reported by mallinfo(arena+hblkhd)
         97302 MiB available memory on the node where the printing process lives
------------------
     c_bands:  1 eigenvalues not converged
     c_bands:  1 eigenvalues not converged
     c_bands:  2 eigenvalues not converged
     c_bands:  1 eigenvalues not converged
     c_bands:  1 eigenvalues not converged
     c_bands:  1 eigenvalues not converged
     c_bands:  3 eigenvalues not converged
     ethr =  5.35E-08,  avg # of iterations = 16.3

     total cpu time spent up to now is     1899.2 secs

     total energy              =   -2169.68858966 Ry
     estimated scf accuracy    <       0.00014855 Ry

     iteration # 22     ecut=    50.00 Ry     beta= 0.30
     Davidson diagonalization with overlap

---- Real-time Memory Report at c_bands before calling an iterative solver
           208 MiB given to the printing process from OS
           182 MiB allocation reported by mallinfo(arena+hblkhd)
         97295 MiB available memory on the node where the printing process lives
------------------
     ethr =  5.35E-08,  avg # of iterations =  5.3

     total cpu time spent up to now is     1964.9 secs

     total energy              =   -2169.68863115 Ry
     estimated scf accuracy    <       0.00000446 Ry

     iteration # 23     ecut=    50.00 Ry     beta= 0.30
     Davidson diagonalization with overlap

---- Real-time Memory Report at c_bands before calling an iterative solver
           208 MiB given to the printing process from OS
           182 MiB allocation reported by mallinfo(arena+hblkhd)
         97278 MiB available memory on the node where the printing process lives
------------------
     ethr =  2.07E-09,  avg # of iterations =  7.9

     total cpu time spent up to now is     2066.2 secs

     total energy              =   -2169.68863691 Ry
     estimated scf accuracy    <       0.00000268 Ry

     iteration # 24     ecut=    50.00 Ry     beta= 0.30
     Davidson diagonalization with overlap

---- Real-time Memory Report at c_bands before calling an iterative solver
           208 MiB given to the printing process from OS
           182 MiB allocation reported by mallinfo(arena+hblkhd)
         97272 MiB available memory on the node where the printing process lives
------------------
     ethr =  1.24E-09,  avg # of iterations =  2.0

     total cpu time spent up to now is     2109.1 secs

     total energy              =   -2169.68863636 Ry
     estimated scf accuracy    <       0.00000163 Ry

     iteration # 25     ecut=    50.00 Ry     beta= 0.30
     Davidson diagonalization with overlap

---- Real-time Memory Report at c_bands before calling an iterative solver
           208 MiB given to the printing process from OS
           182 MiB allocation reported by mallinfo(arena+hblkhd)
         97269 MiB available memory on the node where the printing process lives
------------------
     ethr =  7.54E-10,  avg # of iterations =  6.0

     total cpu time spent up to now is     2171.1 secs

     total energy              =   -2169.68863680 Ry
     estimated scf accuracy    <       0.00000002 Ry

     iteration # 26     ecut=    50.00 Ry     beta= 0.30
     Davidson diagonalization with overlap

---- Real-time Memory Report at c_bands before calling an iterative solver
           208 MiB given to the printing process from OS
           182 MiB allocation reported by mallinfo(arena+hblkhd)
         97267 MiB available memory on the node where the printing process lives
------------------
     ethr =  1.14E-11,  avg # of iterations = 10.3

     total cpu time spent up to now is     2285.7 secs

     total energy              =   -2169.68863684 Ry
     estimated scf accuracy    <       0.00000008 Ry

     iteration # 27     ecut=    50.00 Ry     beta= 0.30
     Davidson diagonalization with overlap

---- Real-time Memory Report at c_bands before calling an iterative solver
           208 MiB given to the printing process from OS
           182 MiB allocation reported by mallinfo(arena+hblkhd)
         97267 MiB available memory on the node where the printing process lives
------------------
     c_bands:  1 eigenvalues not converged
     c_bands:  1 eigenvalues not converged
     c_bands:  1 eigenvalues not converged
     c_bands:  1 eigenvalues not converged
     ethr =  1.14E-11,  avg # of iterations = 13.0

     total cpu time spent up to now is     2433.3 secs

     total energy              =   -2169.68863681 Ry
     estimated scf accuracy    <       0.00000044 Ry

     iteration # 28     ecut=    50.00 Ry     beta= 0.30
     Davidson diagonalization with overlap

---- Real-time Memory Report at c_bands before calling an iterative solver
           208 MiB given to the printing process from OS
           182 MiB allocation reported by mallinfo(arena+hblkhd)
         97266 MiB available memory on the node where the printing process lives
------------------
     ethr =  1.14E-11,  avg # of iterations = 11.3

     total cpu time spent up to now is     2562.0 secs

     End of self-consistent calculation

          k = 0.0000 0.0000 0.0000 ( 13539 PWs)   bands (ev):

   -11.8791 -11.7445 -11.7445 -11.4685 -11.4685 -11.4124 -11.3644 -11.3644
   -11.3273 -11.2785 -11.2785 -11.2409  -0.1642  -0.1642  -0.0808  -0.0808
    -0.0783  -0.0530  -0.0530   0.0062   0.0064   0.0103   0.0203   0.0203
     0.0276   0.0276   0.0278   0.0278   0.1064   0.1064   0.1065   0.1065
     0.1665   0.1667   0.1701   0.2484   0.2575   0.2575   0.4210   0.4210
     0.4473   0.4599   0.4599   0.4676   0.4676   0.5397   0.5901   0.5934
     0.7380   0.7380   0.7938   0.7938   0.7938   0.7938   0.7963   0.8601
     0.8682   0.8682   0.8766   0.8766   0.8766   0.8766   0.8966   0.8966
     0.9016   0.9016   0.9127   0.9127   0.9326   0.9737   0.9737   0.9769
     1.1244   1.5675   1.5675   1.5941   1.8231   1.8232   2.0959   2.2708
     2.2709   2.7103   3.2092   3.5484   3.5485   3.5605   3.5605   3.7342
     3.7342   4.0487   4.1643   4.1643   4.2634   4.2634   4.3398   4.3402
     4.4570   4.5219   4.5219   4.5223   4.5223   4.8755   4.8755   4.8759
     4.8759   5.0466   5.0470   5.0655

     occupation numbers 
     1.0000   1.0000   1.0000   1.0000   1.0000   1.0000   1.0000   1.0000
     1.0000   1.0000   1.0000   1.0000   1.0000   1.0000   1.0000   1.0000
     1.0000   1.0000   1.0000   1.0000   1.0000   1.0000   1.0000   1.0000
     1.0000   1.0000   1.0000   1.0000   1.0000   1.0000   1.0000   1.0000
     1.0000   1.0000   1.0000   1.0000   1.0000   1.0000   1.0000   1.0000
     1.0000   1.0000   1.0000   1.0000   1.0000   1.0000   1.0000   1.0000
     1.0000   1.0000   1.0000   1.0000   1.0000   1.0000   1.0000   1.0000
     1.0000   1.0000   1.0000   1.0000   1.0000   1.0000   1.0000   1.0000
     1.0000   1.0000   1.0000   1.0000   1.0000   1.0000   1.0000   1.0000
     1.0000   1.0000   1.0000   1.0000   1.0000   1.0000   1.0000   1.0000
     1.0000   1.0000   1.0000   1.0000   1.0000   1.0000   1.0000   1.0000
     1.0000   1.0000   1.0000   1.0000   1.0000   1.0000   1.0000   1.0000
     1.0000   1.0000   1.0000   1.0000   1.0000   1.0000   1.0000   1.0000
     1.0000   1.0000   1.0000   1.0000

          k = 0.0000 0.0000 0.0358 ( 13549 PWs)   bands (ev):

   -11.8750 -11.7832 -11.7015 -11.5127 -11.4284 -11.4109 -11.3778 -11.3499
   -11.3316 -11.2911 -11.2674 -11.2420  -0.1749  -0.1473  -0.1036  -0.0945
    -0.0818  -0.0619  -0.0356   0.0065   0.0065   0.0067   0.0077   0.0202
     0.0204   0.0369   0.0371   0.0908   0.0910   0.0954   0.1219   0.1221
     0.1644   0.1645   0.1726   0.2315   0.2345   0.2874   0.4198   0.4246
     0.4310   0.4458   0.4460   0.4759   0.5019   0.5355   0.5381   0.5863
     0.7395   0.7396   0.7788   0.7788   0.8029   0.8096   0.8096   0.8604
     0.8657   0.8664   0.8664   0.8713   0.8850   0.8850   0.8899   0.8919
     0.9010   0.9010   0.9041   0.9304   0.9309   0.9698   0.9760   0.9770
     1.1963   1.5536   1.5876   1.5916   1.7657   1.8837   2.0285   2.0841
     2.5159   2.7455   3.2200   3.3631   3.4547   3.4918   3.6500   3.7497
     3.9777   4.0635   4.0703   4.2376   4.2485   4.2522   4.3454   4.3458
     4.4482   4.4702   4.4706   4.5787   4.5791   4.8206   4.8210   4.9247
     4.9252   4.9461   5.0414   5.0419

     occupation numbers 
     1.0000   1.0000   1.0000   1.0000   1.0000   1.0000   1.0000   1.0000
     1.0000   1.0000   1.0000   1.0000   1.0000   1.0000   1.0000   1.0000
     1.0000   1.0000   1.0000   1.0000   1.0000   1.0000   1.0000   1.0000
     1.0000   1.0000   1.0000   1.0000   1.0000   1.0000   1.0000   1.0000
     1.0000   1.0000   1.0000   1.0000   1.0000   1.0000   1.0000   1.0000
     1.0000   1.0000   1.0000   1.0000   1.0000   1.0000   1.0000   1.0000
     1.0000   1.0000   1.0000   1.0000   1.0000   1.0000   1.0000   1.0000
     1.0000   1.0000   1.0000   1.0000   1.0000   1.0000   1.0000   1.0000
     1.0000   1.0000   1.0000   1.0000   1.0000   1.0000   1.0000   1.0000
     1.0000   1.0000   1.0000   1.0000   1.0000   1.0000   1.0000   1.0000
     1.0000   1.0000   1.0000   1.0000   1.0000   1.0000   1.0000   1.0000
     1.0000   1.0000   1.0000   1.0000   1.0000   1.0000   1.0000   1.0000
     1.0000   1.0000   1.0000   1.0000   1.0000   1.0000   1.0000   1.0000
     1.0000   1.0000   1.0000   1.0000

          k = 0.0000 0.0000 0.0717 ( 13540 PWs)   bands (ev):

   -11.8630 -11.8164 -11.6554 -11.5596 -11.4065 -11.3937 -11.3896 -11.3445
   -11.3349 -11.3050 -11.2580 -11.2453  -0.1763  -0.1416  -0.1274  -0.0997
    -0.0922  -0.0727  -0.0408  -0.0040   0.0080   0.0082   0.0146   0.0148
     0.0482   0.0483   0.0739   0.0754   0.0756   0.1363   0.1365   0.1583
     0.1584   0.1800   0.1898   0.1957   0.2098   0.3203   0.3932   0.4215
     0.4235   0.4301   0.4347   0.4419   0.4931   0.5247   0.5320   0.5750
     0.7450   0.7451   0.7652   0.7652   0.8203   0.8254   0.8254   0.8543
     0.8543   0.8609   0.8637   0.8684   0.8748   0.8840   0.8915   0.8915
     0.8992   0.8993   0.9120   0.9264   0.9443   0.9638   0.9771   0.9772
     1.3617   1.5507   1.5728   1.6245   1.7127   1.7923   1.9448   2.0511
     2.7616   2.8443   3.1691   3.2495   3.2519   3.3719   3.7560   3.9204
     3.9691   4.1038   4.1706   4.2129   4.2235   4.3208   4.3619   4.3623
     4.4220   4.4254   4.4258   4.6389   4.6393   4.7185   4.7617   4.7621
     4.9670   4.9675   5.0262   5.0266

     occupation numbers 
     1.0000   1.0000   1.0000   1.0000   1.0000   1.0000   1.0000   1.0000
     1.0000   1.0000   1.0000   1.0000   1.0000   1.0000   1.0000   1.0000
     1.0000   1.0000   1.0000   1.0000   1.0000   1.0000   1.0000   1.0000
     1.0000   1.0000   1.0000   1.0000   1.0000   1.0000   1.0000   1.0000
     1.0000   1.0000   1.0000   1.0000   1.0000   1.0000   1.0000   1.0000
     1.0000   1.0000   1.0000   1.0000   1.0000   1.0000   1.0000   1.0000
     1.0000   1.0000   1.0000   1.0000   1.0000   1.0000   1.0000   1.0000
     1.0000   1.0000   1.0000   1.0000   1.0000   1.0000   1.0000   1.0000
     1.0000   1.0000   1.0000   1.0000   1.0000   1.0000   1.0000   1.0000
     1.0000   1.0000   1.0000   1.0000   1.0000   1.0000   1.0000   1.0000
     1.0000   1.0000   1.0000   1.0000   1.0000   1.0000   1.0000   1.0000
     1.0000   1.0000   1.0000   1.0000   1.0000   1.0000   1.0000   1.0000
     1.0000   1.0000   1.0000   1.0000   1.0000   1.0000   1.0000   1.0000
     1.0000   1.0000   1.0000   1.0000

          k = 0.0000 0.0000-0.1075 ( 13544 PWs)   bands (ev):

   -11.8433 -11.8433 -11.6076 -11.6076 -11.3993 -11.3993 -11.3654 -11.3654
   -11.3197 -11.3197 -11.2506 -11.2506  -0.1657  -0.1657  -0.1081  -0.1081
    -0.0934  -0.0934  -0.0207  -0.0207   0.0106   0.0106   0.0108   0.0108
     0.0612   0.0612   0.0613   0.0613   0.1393   0.1393   0.1487   0.1487
     0.1488   0.1488   0.1924   0.1924   0.3012   0.3012   0.3561   0.3561
     0.4265   0.4265   0.4362   0.4362   0.5098   0.5098   0.5567   0.5567
     0.7537   0.7537   0.7537   0.7537   0.8406   0.8406   0.8406   0.8406
     0.8436   0.8436   0.8620   0.8620   0.8791   0.8791   0.8961   0.8961
     0.8961   0.8962   0.9197   0.9197   0.9554   0.9554   0.9774   0.9774
     1.5582   1.5582   1.5671   1.5671   1.6653   1.6653   2.0025   2.0025
     2.9911   2.9911   3.0062   3.0062   3.3034   3.3034   3.8634   3.8634
     4.0632   4.0632   4.1584   4.1584   4.3791   4.3791   4.3889   4.3889
     4.3893   4.3893   4.4716   4.4716   4.7005   4.7006   4.7010   4.7010
     5.0011   5.0011   5.0016   5.0016

     occupation numbers 
     1.0000   1.0000   1.0000   1.0000   1.0000   1.0000   1.0000   1.0000
     1.0000   1.0000   1.0000   1.0000   1.0000   1.0000   1.0000   1.0000
     1.0000   1.0000   1.0000   1.0000   1.0000   1.0000   1.0000   1.0000
     1.0000   1.0000   1.0000   1.0000   1.0000   1.0000   1.0000   1.0000
     1.0000   1.0000   1.0000   1.0000   1.0000   1.0000   1.0000   1.0000
     1.0000   1.0000   1.0000   1.0000   1.0000   1.0000   1.0000   1.0000
     1.0000   1.0000   1.0000   1.0000   1.0000   1.0000   1.0000   1.0000
     1.0000   1.0000   1.0000   1.0000   1.0000   1.0000   1.0000   1.0000
     1.0000   1.0000   1.0000   1.0000   1.0000   1.0000   1.0000   1.0000
     1.0000   1.0000   1.0000   1.0000   1.0000   1.0000   1.0000   1.0000
     1.0000   1.0000   1.0000   1.0000   1.0000   1.0000   1.0000   1.0000
     1.0000   1.0000   1.0000   1.0000   1.0000   1.0000   1.0000   1.0000
     1.0000   1.0000   1.0000   1.0000   1.0000   1.0000   1.0000   1.0000
     1.0000   1.0000   1.0000   1.0000

          k = 0.0000 0.0962 0.0000 ( 13539 PWs)   bands (ev):

   -11.8529 -11.7219 -11.7219 -11.4557 -11.4542 -11.4541 -11.3963 -11.3962
   -11.3176 -11.2861 -11.2861 -11.2359  -0.1705  -0.1705  -0.0972  -0.0972
    -0.0887  -0.0556  -0.0556  -0.0222   0.0032   0.0032   0.0216   0.0363
     0.0452   0.0452   0.0464   0.0464   0.1280   0.1280   0.1305   0.1305
     0.1646   0.1683   0.1897   0.1940   0.2458   0.2458   0.3849   0.3849
     0.4097   0.4097   0.4411   0.4411   0.4540   0.5077   0.5561   0.5928
     0.7284   0.7366   0.7779   0.7907   0.7907   0.7924   0.7924   0.8389
     0.8532   0.8532   0.8624   0.8624   0.8771   0.8771   0.8829   0.8829
     0.8937   0.8937   0.9044   0.9307   0.9629   0.9809   0.9809   1.0583
     1.1264   1.6237   1.6859   1.6859   2.0144   2.0144   2.1440   2.2865
     2.2865   2.7409   3.2903   3.5109   3.5109   3.6166   3.6166   3.6386
     3.6386   4.1229   4.1754   4.2148   4.2148   4.2649   4.3142   4.3142
     4.3457   4.3458   4.4573   4.4574   4.5001   4.5471   4.7857   4.7857
     4.8308   4.8308   5.0116   5.0266

     occupation numbers 
     1.0000   1.0000   1.0000   1.0000   1.0000   1.0000   1.0000   1.0000
     1.0000   1.0000   1.0000   1.0000   1.0000   1.0000   1.0000   1.0000
     1.0000   1.0000   1.0000   1.0000   1.0000   1.0000   1.0000   1.0000
     1.0000   1.0000   1.0000   1.0000   1.0000   1.0000   1.0000   1.0000
     1.0000   1.0000   1.0000   1.0000   1.0000   1.0000   1.0000   1.0000
     1.0000   1.0000   1.0000   1.0000   1.0000   1.0000   1.0000   1.0000
     1.0000   1.0000   1.0000   1.0000   1.0000   1.0000   1.0000   1.0000
     1.0000   1.0000   1.0000   1.0000   1.0000   1.0000   1.0000   1.0000
     1.0000   1.0000   1.0000   1.0000   1.0000   1.0000   1.0000   1.0000
     1.0000   1.0000   1.0000   1.0000   1.0000   1.0000   1.0000   1.0000
     1.0000   1.0000   1.0000   1.0000   1.0000   1.0000   1.0000   1.0000
     1.0000   1.0000   1.0000   1.0000   1.0000   1.0000   1.0000   1.0000
     1.0000   1.0000   1.0000   1.0000   1.0000   1.0000   1.0000   1.0000
     1.0000   1.0000   1.0000   1.0000

          k = 0.0000 0.0962 0.0358 ( 13544 PWs)   bands (ev):

   -11.8490 -11.7595 -11.6801 -11.4969 -11.4539 -11.4153 -11.4130 -11.3780
   -11.3218 -11.3027 -11.2714 -11.2374  -0.1801  -0.1547  -0.1096  -0.1051
    -0.0922  -0.0799  -0.0478  -0.0243   0.0015   0.0222   0.0331   0.0353
     0.0373   0.0530   0.0551   0.0729   0.1096   0.1116   0.1441   0.1608
     0.1658   0.1669   0.1849   0.1878   0.2217   0.2734   0.3781   0.3968
     0.3968   0.4069   0.4245   0.4513   0.4730   0.5005   0.5444   0.5524
     0.7307   0.7386   0.7741   0.7774   0.7811   0.8080   0.8083   0.8393
     0.8418   0.8489   0.8583   0.8664   0.8709   0.8832   0.8854   0.8861
     0.8932   0.9022   0.9037   0.9292   0.9414   0.9622   0.9990   1.0551
     1.2122   1.6190   1.6500   1.7297   1.9536   2.0504   2.0722   2.1525
     2.5225   2.7613   3.3006   3.3082   3.4265   3.5261   3.7101   3.7148
     3.8434   4.1232   4.1287   4.1878   4.2671   4.2708   4.2860   4.2968
     4.3237   4.4028   4.4135   4.4915   4.5066   4.5174   4.7148   4.7728
     4.8504   4.8828   5.0062   5.0172

     occupation numbers 
     1.0000   1.0000   1.0000   1.0000   1.0000   1.0000   1.0000   1.0000
     1.0000   1.0000   1.0000   1.0000   1.0000   1.0000   1.0000   1.0000
     1.0000   1.0000   1.0000   1.0000   1.0000   1.0000   1.0000   1.0000
     1.0000   1.0000   1.0000   1.0000   1.0000   1.0000   1.0000   1.0000
     1.0000   1.0000   1.0000   1.0000   1.0000   1.0000   1.0000   1.0000
     1.0000   1.0000   1.0000   1.0000   1.0000   1.0000   1.0000   1.0000
     1.0000   1.0000   1.0000   1.0000   1.0000   1.0000   1.0000   1.0000
     1.0000   1.0000   1.0000   1.0000   1.0000   1.0000   1.0000   1.0000
     1.0000   1.0000   1.0000   1.0000   1.0000   1.0000   1.0000   1.0000
     1.0000   1.0000   1.0000   1.0000   1.0000   1.0000   1.0000   1.0000
     1.0000   1.0000   1.0000   1.0000   1.0000   1.0000   1.0000   1.0000
     1.0000   1.0000   1.0000   1.0000   1.0000   1.0000   1.0000   1.0000
     1.0000   1.0000   1.0000   1.0000   1.0000   1.0000   1.0000   1.0000
     1.0000   1.0000   1.0000   1.0000

          k = 0.0000 0.0962 0.0717 ( 13540 PWs)   bands (ev):

   -11.8372 -11.7919 -11.6353 -11.5423 -11.4484 -11.4275 -11.3817 -11.3590
   -11.3342 -11.3207 -11.2590 -11.2418  -0.1801  -0.1432  -0.1359  -0.1136
    -0.1022  -0.0846  -0.0611  -0.0315   0.0239   0.0312   0.0318   0.0330
     0.0608   0.0637   0.0670   0.0921   0.0956   0.1196   0.1580   0.1580
     0.1590   0.1739   0.1816   0.2014   0.2223   0.3042   0.3719   0.3765
     0.3866   0.4130   0.4378   0.4411   0.4434   0.4824   0.5012   0.5418
     0.7368   0.7439   0.7591   0.7639   0.7904   0.8222   0.8243   0.8252
     0.8405   0.8453   0.8539   0.8570   0.8639   0.8777   0.8931   0.9018
     0.9022   0.9036   0.9107   0.9220   0.9249   0.9432   1.0165   1.0461
     1.3865   1.6114   1.6246   1.7798   1.8179   1.8930   2.1217   2.1634
     2.7558   2.8291   3.1158   3.2085   3.3312   3.4464   3.8176   3.8942
     4.0247   4.0351   4.1448   4.1795   4.2210   4.2396   4.2883   4.3031
     4.3554   4.3673   4.3980   4.4659   4.4867   4.5809   4.6397   4.7106
     4.9072   4.9275   4.9901   4.9920

     occupation numbers 
     1.0000   1.0000   1.0000   1.0000   1.0000   1.0000   1.0000   1.0000
     1.0000   1.0000   1.0000   1.0000   1.0000   1.0000   1.0000   1.0000
     1.0000   1.0000   1.0000   1.0000   1.0000   1.0000   1.0000   1.0000
     1.0000   1.0000   1.0000   1.0000   1.0000   1.0000   1.0000   1.0000
     1.0000   1.0000   1.0000   1.0000   1.0000   1.0000   1.0000   1.0000
     1.0000   1.0000   1.0000   1.0000   1.0000   1.0000   1.0000   1.0000
     1.0000   1.0000   1.0000   1.0000   1.0000   1.0000   1.0000   1.0000
     1.0000   1.0000   1.0000   1.0000   1.0000   1.0000   1.0000   1.0000
     1.0000   1.0000   1.0000   1.0000   1.0000   1.0000   1.0000   1.0000
     1.0000   1.0000   1.0000   1.0000   1.0000   1.0000   1.0000   1.0000
     1.0000   1.0000   1.0000   1.0000   1.0000   1.0000   1.0000   1.0000
     1.0000   1.0000   1.0000   1.0000   1.0000   1.0000   1.0000   1.0000
     1.0000   1.0000   1.0000   1.0000   1.0000   1.0000   1.0000   1.0000
     1.0000   1.0000   1.0000   1.0000

          k = 0.0000 0.0962-0.1075 ( 13536 PWs)   bands (ev):

   -11.8180 -11.8180 -11.5889 -11.5889 -11.4395 -11.4395 -11.3544 -11.3544
   -11.3396 -11.3396 -11.2490 -11.2490  -0.1682  -0.1682  -0.1175  -0.1175
    -0.1061  -0.1061  -0.0440  -0.0440   0.0268   0.0268   0.0314   0.0314
     0.0768   0.0768   0.0806   0.0806   0.1152   0.1152   0.1441   0.1441
     0.1718   0.1718   0.1854   0.1854   0.3217   0.3218   0.3372   0.3372
     0.3796   0.3796   0.4300   0.4300   0.4606   0.4606   0.5245   0.5245
     0.7465   0.7465   0.7525   0.7525   0.8046   0.8046   0.8397   0.8397
     0.8418   0.8418   0.8425   0.8425   0.8705   0.8705   0.8982   0.8983
     0.9109   0.9109   0.9185   0.9185   0.9237   0.9237   1.0327   1.0327
     1.5940   1.5940   1.6117   1.6117   1.8347   1.8347   2.1546   2.1546
     2.9502   2.9503   2.9848   2.9848   3.3805   3.3805   3.9219   3.9219
     4.0534   4.0534   4.1556   4.1556   4.2605   4.2605   4.2641   4.2641
     4.3168   4.3169   4.4242   4.4242   4.5629   4.5629   4.6460   4.6460
     4.9547   4.9547   4.9636   4.9636

     occupation numbers 
     1.0000   1.0000   1.0000   1.0000   1.0000   1.0000   1.0000   1.0000
     1.0000   1.0000   1.0000   1.0000   1.0000   1.0000   1.0000   1.0000
     1.0000   1.0000   1.0000   1.0000   1.0000   1.0000   1.0000   1.0000
     1.0000   1.0000   1.0000   1.0000   1.0000   1.0000   1.0000   1.0000
     1.0000   1.0000   1.0000   1.0000   1.0000   1.0000   1.0000   1.0000
     1.0000   1.0000   1.0000   1.0000   1.0000   1.0000   1.0000   1.0000
     1.0000   1.0000   1.0000   1.0000   1.0000   1.0000   1.0000   1.0000
     1.0000   1.0000   1.0000   1.0000   1.0000   1.0000   1.0000   1.0000
     1.0000   1.0000   1.0000   1.0000   1.0000   1.0000   1.0000   1.0000
     1.0000   1.0000   1.0000   1.0000   1.0000   1.0000   1.0000   1.0000
     1.0000   1.0000   1.0000   1.0000   1.0000   1.0000   1.0000   1.0000
     1.0000   1.0000   1.0000   1.0000   1.0000   1.0000   1.0000   1.0000
     1.0000   1.0000   1.0000   1.0000   1.0000   1.0000   1.0000   1.0000
     1.0000   1.0000   1.0000   1.0000

          k = 0.0000 0.1925 0.0000 ( 13490 PWs)   bands (ev):

   -11.7794 -11.6589 -11.6589 -11.5554 -11.4737 -11.4736 -11.4152 -11.4152
   -11.3155 -11.3155 -11.2924 -11.2399  -0.1784  -0.1784  -0.1335  -0.1335
    -0.1066  -0.0644  -0.0566  -0.0566  -0.0257  -0.0257   0.0613   0.0742
     0.0926   0.0927   0.0969   0.0969   0.1351   0.1453   0.1816   0.1848
     0.1848   0.1885   0.1885   0.2102   0.2102   0.2561   0.2739   0.2739
     0.3318   0.3416   0.3416   0.3694   0.3694   0.4669   0.5815   0.6099
     0.7033   0.7390   0.7417   0.7847   0.7847   0.7922   0.7922   0.7945
     0.8072   0.8072   0.8235   0.8235   0.8786   0.8786   0.8869   0.8869
     0.9004   0.9004   0.9110   0.9255   0.9549   0.9549   1.0647   1.0807
     1.1940   1.6453   1.9998   1.9998   2.3102   2.3102   2.3300   2.4127
     2.4127   3.0042   3.3375   3.3375   3.4596   3.4596   3.5043   3.5521
     3.7988   3.7989   3.9515   3.9515   3.9678   4.0616   4.2813   4.2813
     4.3502   4.3502   4.4151   4.4151   4.4410   4.6152   4.6337   4.6337
     4.7055   4.7055   4.9052   4.9112

     occupation numbers 
     1.0000   1.0000   1.0000   1.0000   1.0000   1.0000   1.0000   1.0000
     1.0000   1.0000   1.0000   1.0000   1.0000   1.0000   1.0000   1.0000
     1.0000   1.0000   1.0000   1.0000   1.0000   1.0000   1.0000   1.0000
     1.0000   1.0000   1.0000   1.0000   1.0000   1.0000   1.0000   1.0000
     1.0000   1.0000   1.0000   1.0000   1.0000   1.0000   1.0000   1.0000
     1.0000   1.0000   1.0000   1.0000   1.0000   1.0000   1.0000   1.0000
     1.0000   1.0000   1.0000   1.0000   1.0000   1.0000   1.0000   1.0000
     1.0000   1.0000   1.0000   1.0000   1.0000   1.0000   1.0000   1.0000
     1.0000   1.0000   1.0000   1.0000   1.0000   1.0000   1.0000   1.0000
     1.0000   1.0000   1.0000   1.0000   1.0000   1.0000   1.0000   1.0000
     1.0000   1.0000   1.0000   1.0000   1.0000   1.0000   1.0000   1.0000
     1.0000   1.0000   1.0000   1.0000   1.0000   1.0000   1.0000   1.0000
     1.0000   1.0000   1.0000   1.0000   1.0000   1.0000   1.0000   1.0000
     1.0000   1.0000   1.0000   1.0000

          k = 0.0000 0.1925 0.0358 ( 13513 PWs)   bands (ev):

   -11.7757 -11.6934 -11.6206 -11.5529 -11.4968 -11.4539 -11.4481 -11.3802
   -11.3399 -11.2961 -11.2937 -11.2421  -0.1855  -0.1649  -0.1432  -0.1188
    -0.1096  -0.1046  -0.0733  -0.0670  -0.0045   0.0213   0.0622   0.0726
     0.0826   0.0996   0.1041   0.1048   0.1296   0.1471   0.1578   0.1702
     0.1784   0.1907   0.2062   0.2240   0.2325   0.2538   0.2708   0.2824
     0.3153   0.3289   0.3412   0.3767   0.3959   0.4637   0.5696   0.5714
     0.7072   0.7390   0.7408   0.7643   0.7776   0.7830   0.7953   0.8057
     0.8077   0.8151   0.8326   0.8330   0.8669   0.8761   0.8841   0.8886
     0.8971   0.9102   0.9154   0.9242   0.9321   0.9772   1.0157   1.0705
     1.2947   1.6682   1.9311   2.0691   2.1006   2.3495   2.3502   2.4608
     2.5113   3.0018   3.1977   3.2715   3.4589   3.5135   3.5575   3.6615
     3.7165   3.8738   3.8887   3.9503   4.0513   4.0684   4.2191   4.2653
     4.3262   4.3496   4.4264   4.4479   4.4672   4.5263   4.6073   4.6397
     4.7259   4.7646   4.9005   4.9050

     occupation numbers 
     1.0000   1.0000   1.0000   1.0000   1.0000   1.0000   1.0000   1.0000
     1.0000   1.0000   1.0000   1.0000   1.0000   1.0000   1.0000   1.0000
     1.0000   1.0000   1.0000   1.0000   1.0000   1.0000   1.0000   1.0000
     1.0000   1.0000   1.0000   1.0000   1.0000   1.0000   1.0000   1.0000
     1.0000   1.0000   1.0000   1.0000   1.0000   1.0000   1.0000   1.0000
     1.0000   1.0000   1.0000   1.0000   1.0000   1.0000   1.0000   1.0000
     1.0000   1.0000   1.0000   1.0000   1.0000   1.0000   1.0000   1.0000
     1.0000   1.0000   1.0000   1.0000   1.0000   1.0000   1.0000   1.0000
     1.0000   1.0000   1.0000   1.0000   1.0000   1.0000   1.0000   1.0000
     1.0000   1.0000   1.0000   1.0000   1.0000   1.0000   1.0000   1.0000
     1.0000   1.0000   1.0000   1.0000   1.0000   1.0000   1.0000   1.0000
     1.0000   1.0000   1.0000   1.0000   1.0000   1.0000   1.0000   1.0000
     1.0000   1.0000   1.0000   1.0000   1.0000   1.0000   1.0000   1.0000
     1.0000   1.0000   1.0000   1.0000

          k = 0.0000 0.1925 0.0717 ( 13542 PWs)   bands (ev):

   -11.7649 -11.7231 -11.5797 -11.5455 -11.5170 -11.4951 -11.4212 -11.3662
   -11.3499 -11.3072 -11.2750 -11.2489  -0.1833  -0.1484  -0.1442  -0.1431
    -0.1184  -0.1104  -0.1021  -0.0745   0.0446   0.0497   0.0645   0.0684
     0.0747   0.1080   0.1128   0.1188   0.1262   0.1371   0.1519   0.1525
     0.1684   0.1746   0.2225   0.2470   0.2574   0.2736   0.2864   0.2950
     0.2959   0.3126   0.3207   0.4196   0.4232   0.4544   0.4803   0.5328
     0.7162   0.7376   0.7454   0.7458   0.7615   0.7647   0.7978   0.8079
     0.8233   0.8267   0.8431   0.8534   0.8583   0.8650   0.8663   0.8969
     0.9063   0.9075   0.9083   0.9202   0.9301   0.9716   0.9995   1.0477
     1.4727   1.7242   1.8622   1.8869   2.1394   2.2814   2.4002   2.4798
     2.7014   3.0029   3.0445   3.1212   3.5408   3.5464   3.5709   3.6443
     3.8341   3.8602   3.9044   3.9831   4.0884   4.1649   4.1651   4.1741
     4.2008   4.4084   4.4218   4.4649   4.4867   4.4918   4.5691   4.5835
     4.7992   4.8154   4.8843   4.8866

     occupation numbers 
     1.0000   1.0000   1.0000   1.0000   1.0000   1.0000   1.0000   1.0000
     1.0000   1.0000   1.0000   1.0000   1.0000   1.0000   1.0000   1.0000
     1.0000   1.0000   1.0000   1.0000   1.0000   1.0000   1.0000   1.0000
     1.0000   1.0000   1.0000   1.0000   1.0000   1.0000   1.0000   1.0000
     1.0000   1.0000   1.0000   1.0000   1.0000   1.0000   1.0000   1.0000
     1.0000   1.0000   1.0000   1.0000   1.0000   1.0000   1.0000   1.0000
     1.0000   1.0000   1.0000   1.0000   1.0000   1.0000   1.0000   1.0000
     1.0000   1.0000   1.0000   1.0000   1.0000   1.0000   1.0000   1.0000
     1.0000   1.0000   1.0000   1.0000   1.0000   1.0000   1.0000   1.0000
     1.0000   1.0000   1.0000   1.0000   1.0000   1.0000   1.0000   1.0000
     1.0000   1.0000   1.0000   1.0000   1.0000   1.0000   1.0000   1.0000
     1.0000   1.0000   1.0000   1.0000   1.0000   1.0000   1.0000   1.0000
     1.0000   1.0000   1.0000   1.0000   1.0000   1.0000   1.0000   1.0000
     1.0000   1.0000   1.0000   1.0000

          k = 0.0000 0.1925-0.1075 ( 13536 PWs)   bands (ev):

   -11.7472 -11.7472 -11.5375 -11.5375 -11.5334 -11.5334 -11.3936 -11.3936
   -11.3253 -11.3253 -11.2599 -11.2599  -0.1696  -0.1696  -0.1339  -0.1339
    -0.1320  -0.1320  -0.0866  -0.0866   0.0618   0.0618   0.0686   0.0686
     0.0846   0.0846   0.1207   0.1207   0.1347   0.1347   0.1509   0.1509
     0.1618   0.1618   0.2364   0.2364   0.2820   0.2820   0.2842   0.2842
     0.3087   0.3087   0.3762   0.3762   0.4394   0.4394   0.4788   0.4788
     0.7291   0.7291   0.7455   0.7455   0.7539   0.7539   0.8021   0.8021
     0.8389   0.8389   0.8472   0.8472   0.8538   0.8538   0.8836   0.8836
     0.9031   0.9031   0.9141   0.9141   0.9470   0.9470   1.0230   1.0230
     1.6748   1.6748   1.7925   1.7925   2.2104   2.2104   2.4557   2.4557
     2.8792   2.8792   3.0326   3.0326   3.5783   3.5783   3.5850   3.5850
     3.8518   3.8518   4.0431   4.0431   4.0791   4.0791   4.1210   4.1210
     4.2860   4.2860   4.4820   4.4820   4.4957   4.4957   4.5447   4.5447
     4.8517   4.8517   4.8564   4.8564

     occupation numbers 
     1.0000   1.0000   1.0000   1.0000   1.0000   1.0000   1.0000   1.0000
     1.0000   1.0000   1.0000   1.0000   1.0000   1.0000   1.0000   1.0000
     1.0000   1.0000   1.0000   1.0000   1.0000   1.0000   1.0000   1.0000
     1.0000   1.0000   1.0000   1.0000   1.0000   1.0000   1.0000   1.0000
     1.0000   1.0000   1.0000   1.0000   1.0000   1.0000   1.0000   1.0000
     1.0000   1.0000   1.0000   1.0000   1.0000   1.0000   1.0000   1.0000
     1.0000   1.0000   1.0000   1.0000   1.0000   1.0000   1.0000   1.0000
     1.0000   1.0000   1.0000   1.0000   1.0000   1.0000   1.0000   1.0000
     1.0000   1.0000   1.0000   1.0000   1.0000   1.0000   1.0000   1.0000
     1.0000   1.0000   1.0000   1.0000   1.0000   1.0000   1.0000   1.0000
     1.0000   1.0000   1.0000   1.0000   1.0000   1.0000   1.0000   1.0000
     1.0000   1.0000   1.0000   1.0000   1.0000   1.0000   1.0000   1.0000
     1.0000   1.0000   1.0000   1.0000   1.0000   1.0000   1.0000   1.0000
     1.0000   1.0000   1.0000   1.0000

          k = 0.0000-0.2887 0.0000 ( 13510 PWs)   bands (ev):

   -11.6728 -11.6728 -11.5693 -11.5693 -11.5693 -11.5693 -11.3636 -11.3636
   -11.3635 -11.3635 -11.2619 -11.2619  -0.1669  -0.1669  -0.1669  -0.1669
    -0.1005  -0.1005  -0.0473  -0.0473  -0.0473  -0.0473   0.1057   0.1057
     0.1086   0.1086   0.1544   0.1544   0.1544   0.1544   0.1727   0.1727
     0.1727   0.1727   0.2329   0.2329   0.2588   0.2588   0.2588   0.2588
     0.2758   0.2758   0.2758   0.2759   0.3554   0.3554   0.6311   0.6312
     0.6909   0.6909   0.7567   0.7567   0.7848   0.7848   0.7848   0.7848
     0.8008   0.8008   0.8008   0.8008   0.8815   0.8815   0.8815   0.8815
     0.9185   0.9185   0.9257   0.9257   0.9257   0.9257   1.0745   1.0745
     1.4249   1.4249   2.2521   2.2521   2.2521   2.2521   2.8792   2.8792
     2.8842   2.8842   2.8842   2.8842   3.4500   3.4500   3.5909   3.5909
     3.5909   3.5909   3.7854   3.7854   4.0416   4.0416   4.0416   4.0416
     4.5174   4.5174   4.5174   4.5174   4.5303   4.5303   4.5303   4.5303
     4.7044   4.7044   4.7667   4.7667

     occupation numbers 
     1.0000   1.0000   1.0000   1.0000   1.0000   1.0000   1.0000   1.0000
     1.0000   1.0000   1.0000   1.0000   1.0000   1.0000   1.0000   1.0000
     1.0000   1.0000   1.0000   1.0000   1.0000   1.0000   1.0000   1.0000
     1.0000   1.0000   1.0000   1.0000   1.0000   1.0000   1.0000   1.0000
     1.0000   1.0000   1.0000   1.0000   1.0000   1.0000   1.0000   1.0000
     1.0000   1.0000   1.0000   1.0000   1.0000   1.0000   1.0000   1.0000
     1.0000   1.0000   1.0000   1.0000   1.0000   1.0000   1.0000   1.0000
     1.0000   1.0000   1.0000   1.0000   1.0000   1.0000   1.0000   1.0000
     1.0000   1.0000   1.0000   1.0000   1.0000   1.0000   1.0000   1.0000
     1.0000   1.0000   1.0000   1.0000   1.0000   1.0000   1.0000   1.0000
     1.0000   1.0000   1.0000   1.0000   1.0000   1.0000   1.0000   1.0000
     1.0000   1.0000   1.0000   1.0000   1.0000   1.0000   1.0000   1.0000
     1.0000   1.0000   1.0000   1.0000   1.0000   1.0000   1.0000   1.0000
     1.0000   1.0000   1.0000   1.0000

          k = 0.0000-0.2887 0.0358 ( 13528 PWs)   bands (ev):

   -11.6697 -11.6697 -11.5989 -11.5989 -11.5367 -11.5367 -11.3959 -11.3959
   -11.3344 -11.3344 -11.2650 -11.2650  -0.1740  -0.1740  -0.1539  -0.1539
    -0.1031  -0.1031  -0.0947  -0.0947   0.0021   0.0021   0.1023   0.1023
     0.1098   0.1098   0.1403   0.1403   0.1707   0.1707   0.1724   0.1724
     0.1797   0.1797   0.2285   0.2285   0.2299   0.2299   0.2536   0.2536
     0.2971   0.2971   0.3017   0.3017   0.3528   0.3528   0.6039   0.6039
     0.6933   0.6933   0.7580   0.7580   0.7603   0.7603   0.7884   0.7884
     0.8101   0.8101   0.8141   0.8141   0.8693   0.8693   0.8923   0.8923
     0.9050   0.9051   0.9175   0.9175   0.9452   0.9452   1.0514   1.0514
     1.4855   1.4855   2.1084   2.1084   2.3820   2.3820   2.8030   2.8030
     2.8890   2.8890   2.9441   2.9441   3.4398   3.4398   3.4671   3.4671
     3.7485   3.7485   3.7934   3.7934   3.9694   3.9694   4.1206   4.1206
     4.4001   4.4001   4.4547   4.4547   4.5982   4.5982   4.6050   4.6050
     4.7052   4.7052   4.7596   4.7596

     occupation numbers 
     1.0000   1.0000   1.0000   1.0000   1.0000   1.0000   1.0000   1.0000
     1.0000   1.0000   1.0000   1.0000   1.0000   1.0000   1.0000   1.0000
     1.0000   1.0000   1.0000   1.0000   1.0000   1.0000   1.0000   1.0000
     1.0000   1.0000   1.0000   1.0000   1.0000   1.0000   1.0000   1.0000
     1.0000   1.0000   1.0000   1.0000   1.0000   1.0000   1.0000   1.0000
     1.0000   1.0000   1.0000   1.0000   1.0000   1.0000   1.0000   1.0000
     1.0000   1.0000   1.0000   1.0000   1.0000   1.0000   1.0000   1.0000
     1.0000   1.0000   1.0000   1.0000   1.0000   1.0000   1.0000   1.0000
     1.0000   1.0000   1.0000   1.0000   1.0000   1.0000   1.0000   1.0000
     1.0000   1.0000   1.0000   1.0000   1.0000   1.0000   1.0000   1.0000
     1.0000   1.0000   1.0000   1.0000   1.0000   1.0000   1.0000   1.0000
     1.0000   1.0000   1.0000   1.0000   1.0000   1.0000   1.0000   1.0000
     1.0000   1.0000   1.0000   1.0000   1.0000   1.0000   1.0000   1.0000
     1.0000   1.0000   1.0000   1.0000

          k = 0.0000-0.2887 0.0717 ( 13532 PWs)   bands (ev):

   -11.6603 -11.6603 -11.6244 -11.6244 -11.5019 -11.5019 -11.4304 -11.4304
   -11.3093 -11.3093 -11.2741 -11.2741  -0.1722  -0.1722  -0.1383  -0.1383
    -0.1330  -0.1330  -0.1110  -0.1110   0.0441   0.0441   0.0920   0.0920
     0.1137   0.1137   0.1288   0.1288   0.1783   0.1783   0.1892   0.1892
     0.1927   0.1927   0.2061   0.2061   0.2213   0.2213   0.2313   0.2313
     0.3163   0.3163   0.3451   0.3451   0.3633   0.3634   0.5327   0.5327
     0.7024   0.7024   0.7374   0.7374   0.7622   0.7622   0.7776   0.7776
     0.8280   0.8280   0.8353   0.8353   0.8562   0.8562   0.8831   0.8831
     0.9013   0.9013   0.9142   0.9142   0.9648   0.9648   1.0150   1.0150
     1.6224   1.6224   1.9512   1.9512   2.5002   2.5002   2.7101   2.7101
     2.9157   2.9157   2.9669   2.9669   3.3990   3.3990   3.4145   3.4145
     3.8169   3.8169   3.9065   3.9065   3.9211   3.9211   4.2039   4.2040
     4.2569   4.2569   4.3735   4.3735   4.6566   4.6566   4.6624   4.6624
     4.7041   4.7042   4.7384   4.7384

     occupation numbers 
     1.0000   1.0000   1.0000   1.0000   1.0000   1.0000   1.0000   1.0000
     1.0000   1.0000   1.0000   1.0000   1.0000   1.0000   1.0000   1.0000
     1.0000   1.0000   1.0000   1.0000   1.0000   1.0000   1.0000   1.0000
     1.0000   1.0000   1.0000   1.0000   1.0000   1.0000   1.0000   1.0000
     1.0000   1.0000   1.0000   1.0000   1.0000   1.0000   1.0000   1.0000
     1.0000   1.0000   1.0000   1.0000   1.0000   1.0000   1.0000   1.0000
     1.0000   1.0000   1.0000   1.0000   1.0000   1.0000   1.0000   1.0000
     1.0000   1.0000   1.0000   1.0000   1.0000   1.0000   1.0000   1.0000
     1.0000   1.0000   1.0000   1.0000   1.0000   1.0000   1.0000   1.0000
     1.0000   1.0000   1.0000   1.0000   1.0000   1.0000   1.0000   1.0000
     1.0000   1.0000   1.0000   1.0000   1.0000   1.0000   1.0000   1.0000
     1.0000   1.0000   1.0000   1.0000   1.0000   1.0000   1.0000   1.0000
     1.0000   1.0000   1.0000   1.0000   1.0000   1.0000   1.0000   1.0000
     1.0000   1.0000   1.0000   1.0000

          k = 0.0000-0.2887-0.1075 ( 13548 PWs)   bands (ev):

   -11.6451 -11.6451 -11.6451 -11.6451 -11.4661 -11.4661 -11.4661 -11.4661
   -11.2890 -11.2890 -11.2890 -11.2890  -0.1590  -0.1590  -0.1590  -0.1590
    -0.1232  -0.1232  -0.1232  -0.1232   0.0735   0.0735   0.0735   0.0735
     0.1199   0.1199   0.1199   0.1200   0.1895   0.1895   0.1895   0.1895
     0.2080   0.2080   0.2080   0.2080   0.2096   0.2096   0.2096   0.2096
     0.3326   0.3326   0.3326   0.3326   0.4443   0.4443   0.4443   0.4443
     0.7177   0.7177   0.7177   0.7177   0.7687   0.7688   0.7688   0.7688
     0.8422   0.8422   0.8422   0.8422   0.8598   0.8598   0.8598   0.8598
     0.9086   0.9087   0.9087   0.9087   0.9867   0.9867   0.9867   0.9867
     1.7854   1.7854   1.7854   1.7854   2.6090   2.6090   2.6090   2.6090
     2.9494   2.9494   2.9494   2.9494   3.3908   3.3908   3.3908   3.3908
     3.8551   3.8551   3.8551   3.8551   4.0943   4.0943   4.0943   4.0943
     4.2891   4.2891   4.2891   4.2891   4.6930   4.6930   4.6931   4.6931
     4.7037   4.7038   4.7038   4.7038

     occupation numbers 
     1.0000   1.0000   1.0000   1.0000   1.0000   1.0000   1.0000   1.0000
     1.0000   1.0000   1.0000   1.0000   1.0000   1.0000   1.0000   1.0000
     1.0000   1.0000   1.0000   1.0000   1.0000   1.0000   1.0000   1.0000
     1.0000   1.0000   1.0000   1.0000   1.0000   1.0000   1.0000   1.0000
     1.0000   1.0000   1.0000   1.0000   1.0000   1.0000   1.0000   1.0000
     1.0000   1.0000   1.0000   1.0000   1.0000   1.0000   1.0000   1.0000
     1.0000   1.0000   1.0000   1.0000   1.0000   1.0000   1.0000   1.0000
     1.0000   1.0000   1.0000   1.0000   1.0000   1.0000   1.0000   1.0000
     1.0000   1.0000   1.0000   1.0000   1.0000   1.0000   1.0000   1.0000
     1.0000   1.0000   1.0000   1.0000   1.0000   1.0000   1.0000   1.0000
     1.0000   1.0000   1.0000   1.0000   1.0000   1.0000   1.0000   1.0000
     1.0000   1.0000   1.0000   1.0000   1.0000   1.0000   1.0000   1.0000
     1.0000   1.0000   1.0000   1.0000   1.0000   1.0000   1.0000   1.0000
     1.0000   1.0000   1.0000   1.0000

          k = 0.1667 0.0962 0.0000 ( 13501 PWs)   bands (ev):

   -11.7794 -11.6589 -11.6589 -11.4170 -11.4152 -11.4152 -11.3672 -11.3672
   -11.2924 -11.2776 -11.2775 -11.2381  -0.1335  -0.1334  -0.0787  -0.0787
    -0.0643  -0.0256  -0.0256  -0.0153   0.0195   0.0195   0.0612   0.0742
     0.0925   0.0925   0.0969   0.0969   0.1453   0.1817   0.1849   0.1849
     0.1884   0.1884   0.2173   0.2173   0.2560   0.3227   0.3567   0.3567
     0.3853   0.4389   0.4389   0.4600   0.4600   0.5797   0.6099   0.6203
     0.7033   0.7391   0.7568   0.7847   0.7847   0.7922   0.7922   0.7942
     0.8091   0.8091   0.8494   0.8494   0.8786   0.8786   0.9005   0.9005
     0.9110   0.9413   0.9514   0.9514   1.0352   1.0352   1.0647   1.0802
     1.1940   1.6587   1.7250   1.7250   2.0154   2.0154   2.1653   2.3102
     2.3103   2.6884   2.9725   3.0659   3.0659   3.3376   3.3376   3.5523
     3.6698   3.6698   3.8340   3.8340   3.9517   3.9517   3.9680   4.0490
     4.0613   4.1946   4.2810   4.2810   4.3091   4.3091   4.6339   4.6339
     4.7052   4.7052   4.9052   4.9108

     occupation numbers 
     1.0000   1.0000   1.0000   1.0000   1.0000   1.0000   1.0000   1.0000
     1.0000   1.0000   1.0000   1.0000   1.0000   1.0000   1.0000   1.0000
     1.0000   1.0000   1.0000   1.0000   1.0000   1.0000   1.0000   1.0000
     1.0000   1.0000   1.0000   1.0000   1.0000   1.0000   1.0000   1.0000
     1.0000   1.0000   1.0000   1.0000   1.0000   1.0000   1.0000   1.0000
     1.0000   1.0000   1.0000   1.0000   1.0000   1.0000   1.0000   1.0000
     1.0000   1.0000   1.0000   1.0000   1.0000   1.0000   1.0000   1.0000
     1.0000   1.0000   1.0000   1.0000   1.0000   1.0000   1.0000   1.0000
     1.0000   1.0000   1.0000   1.0000   1.0000   1.0000   1.0000   1.0000
     1.0000   1.0000   1.0000   1.0000   1.0000   1.0000   1.0000   1.0000
     1.0000   1.0000   1.0000   1.0000   1.0000   1.0000   1.0000   1.0000
     1.0000   1.0000   1.0000   1.0000   1.0000   1.0000   1.0000   1.0000
     1.0000   1.0000   1.0000   1.0000   1.0000   1.0000   1.0000   1.0000
     1.0000   1.0000   1.0000   1.0000

          k = 0.1667 0.0962 0.0358 ( 13510 PWs)   bands (ev):

   -11.7757 -11.6934 -11.6206 -11.4539 -11.4154 -11.3811 -11.3802 -11.3522
   -11.2961 -11.2908 -11.2659 -11.2392  -0.1431  -0.1187  -0.0902  -0.0733
    -0.0669  -0.0620  -0.0258  -0.0167   0.0213   0.0620   0.0682   0.0726
     0.0824   0.0997   0.1042   0.1046   0.1435   0.1579   0.1701   0.1785
     0.2061   0.2076   0.2241   0.2383   0.2537   0.3121   0.3459   0.3642
     0.3850   0.4216   0.4277   0.4609   0.4984   0.5714   0.5718   0.6151
     0.7071   0.7408   0.7513   0.7643   0.7776   0.7927   0.8041   0.8057
     0.8077   0.8228   0.8471   0.8491   0.8669   0.8842   0.8886   0.9101
     0.9154   0.9407   0.9442   0.9617   1.0157   1.0202   1.0490   1.0792
     1.2947   1.6564   1.6927   1.7641   1.9618   2.0670   2.1007   2.1664
     2.5114   2.6982   2.9569   2.9978   3.1844   3.1977   3.4590   3.5124
     3.5578   3.6672   3.8740   3.8944   3.9143   3.9505   4.0516   4.0597
     4.0681   4.1877   4.2188   4.2900   4.2959   4.3493   4.5265   4.6394
     4.7261   4.7643   4.9005   4.9046

     occupation numbers 
     1.0000   1.0000   1.0000   1.0000   1.0000   1.0000   1.0000   1.0000
     1.0000   1.0000   1.0000   1.0000   1.0000   1.0000   1.0000   1.0000
     1.0000   1.0000   1.0000   1.0000   1.0000   1.0000   1.0000   1.0000
     1.0000   1.0000   1.0000   1.0000   1.0000   1.0000   1.0000   1.0000
     1.0000   1.0000   1.0000   1.0000   1.0000   1.0000   1.0000   1.0000
     1.0000   1.0000   1.0000   1.0000   1.0000   1.0000   1.0000   1.0000
     1.0000   1.0000   1.0000   1.0000   1.0000   1.0000   1.0000   1.0000
     1.0000   1.0000   1.0000   1.0000   1.0000   1.0000   1.0000   1.0000
     1.0000   1.0000   1.0000   1.0000   1.0000   1.0000   1.0000   1.0000
     1.0000   1.0000   1.0000   1.0000   1.0000   1.0000   1.0000   1.0000
[...]
     xc contribution           =    -655.76533396 Ry
     ewald contribution        =   -1237.66292000 Ry

     convergence has been achieved in  28 iterations

     Forces acting on atoms (cartesian axes, Ry/au):

     atom    1 type  1   force =     0.00000000   -0.00001066   -0.00502846
     atom    2 type  1   force =     0.00000000   -0.00000116   -0.00503707
     atom    3 type  2   force =     0.00000000    0.00000271    0.00502665
     atom    4 type  2   force =     0.00000000   -0.00000292    0.00503105
     atom    5 type  1   force =     0.00000000   -0.00000300   -0.00503412
     atom    6 type  1   force =     0.00000000   -0.00000502   -0.00501828
     atom    7 type  2   force =     0.00000000    0.00000234    0.00503086
     atom    8 type  2   force =     0.00000000   -0.00000263    0.00502989
     atom    9 type  1   force =     0.00000000   -0.00000539   -0.00502352
     atom   10 type  1   force =     0.00000000    0.00000167   -0.00503147
     atom   11 type  2   force =     0.00000000    0.00000233    0.00503043
     atom   12 type  2   force =     0.00000000   -0.00000265    0.00502739
     atom   13 type  1   force =     0.00000000    0.00000401   -0.00503768
     atom   14 type  1   force =     0.00000000    0.00000800   -0.00503122
     atom   15 type  2   force =     0.00000000    0.00000247    0.00502757
     atom   16 type  2   force =     0.00000000   -0.00000243    0.00503069
     atom   17 type  1   force =     0.00000000   -0.00000262   -0.00503168
     atom   18 type  1   force =     0.00000000    0.00001242   -0.00502148
     atom   19 type  2   force =     0.00000000    0.00000253    0.00503106
     atom   20 type  2   force =     0.00000000   -0.00000268    0.00502991
     atom   21 type  1   force =     0.00000000   -0.00000286   -0.00502600
     atom   22 type  1   force =     0.00000000    0.00000589   -0.00503196
     atom   23 type  2   force =     0.00000000    0.00000252    0.00503021
     atom   24 type  2   force =     0.00000000   -0.00000289    0.00502727
     The non-local contrib.  to forces
     atom    1 type  1   force =     0.00000000   -0.00000252   -0.11426365
     atom    2 type  1   force =     0.00000000   -0.00000340   -0.11426301
     atom    3 type  2   force =     0.00000000    0.00020860   -0.09506538
     atom    4 type  2   force =     0.00000000   -0.00020678   -0.09505469
     atom    5 type  1   force =     0.00000000    0.00000066   -0.11426183
     atom    6 type  1   force =     0.00000000   -0.00000506   -0.11425921
     atom    7 type  2   force =     0.00000000    0.00020798   -0.09505495
     atom    8 type  2   force =     0.00000000   -0.00020631   -0.09505678
     atom    9 type  1   force =     0.00000000    0.00000023   -0.11426209
     atom   10 type  1   force =     0.00000000   -0.00000229   -0.11426447
     atom   11 type  2   force =     0.00000000    0.00020929   -0.09505442
     atom   12 type  2   force =     0.00000000   -0.00020758   -0.09506394
     atom   13 type  1   force =     0.00000000    0.00000473   -0.11426589
     atom   14 type  1   force =     0.00000000    0.00000109   -0.11426069
     atom   15 type  2   force =     0.00000000    0.00020796   -0.09506324
     atom   16 type  2   force =     0.00000000   -0.00020926   -0.09505406
     atom   17 type  1   force =     0.00000000    0.00000175   -0.11425962
     atom   18 type  1   force =     0.00000000    0.00000299   -0.11426132
     atom   19 type  2   force =     0.00000000    0.00020758   -0.09505501
     atom   20 type  2   force =     0.00000000   -0.00020979   -0.09505871
     atom   21 type  1   force =     0.00000000    0.00000192   -0.11426294
     atom   22 type  1   force =     0.00000000   -0.00000008   -0.11426487
     atom   23 type  2   force =     0.00000000    0.00020646   -0.09505612
     atom   24 type  2   force =     0.00000000   -0.00020929   -0.09506372
     The ionic contribution  to forces
     atom    1 type  1   force =    -0.00000000    0.00000000   -0.71135626
     atom    2 type  1   force =     0.00000000   -0.00000000   -0.71135623
     atom    3 type  2   force =    -0.00000000    0.00000000    0.71135625
     atom    4 type  2   force =     0.00000000   -0.00000000    0.71135624
     atom    5 type  1   force =    -0.00000000    0.00000000   -0.71135623
     atom    6 type  1   force =     0.00000000   -0.00000000   -0.71135626
     atom    7 type  2   force =    -0.00000000    0.00000000    0.71135624
     atom    8 type  2   force =     0.00000000   -0.00000000    0.71135626
     atom    9 type  1   force =    -0.00000000    0.00000000   -0.71135626
     atom   10 type  1   force =     0.00000000   -0.00000000   -0.71135626
     atom   11 type  2   force =    -0.00000000    0.00000000    0.71135626
     atom   12 type  2   force =     0.00000000   -0.00000000    0.71135625
     atom   13 type  1   force =    -0.00000000    0.00000000   -0.71135626
     atom   14 type  1   force =     0.00000000   -0.00000000   -0.71135623
     atom   15 type  2   force =    -0.00000000    0.00000000    0.71135625
     atom   16 type  2   force =     0.00000000   -0.00000000    0.71135624
     atom   17 type  1   force =    -0.00000000    0.00000000   -0.71135623
     atom   18 type  1   force =     0.00000000   -0.00000000   -0.71135626
     atom   19 type  2   force =    -0.00000000    0.00000000    0.71135624
     atom   20 type  2   force =     0.00000000   -0.00000000    0.71135626
     atom   21 type  1   force =    -0.00000000    0.00000000   -0.71135626
     atom   22 type  1   force =     0.00000000   -0.00000000   -0.71135626
     atom   23 type  2   force =    -0.00000000    0.00000000    0.71135626
     atom   24 type  2   force =     0.00000000   -0.00000000    0.71135625
     The local contribution  to forces
     atom    1 type  1   force =    -0.00000009    0.00000235    0.81304092
     atom    2 type  1   force =    -0.00000000    0.00001541    0.81306050
     atom    3 type  2   force =    -0.00000002   -0.00020202   -0.61204991
     atom    4 type  2   force =     0.00000000    0.00020421   -0.61204893
     atom    5 type  1   force =    -0.00000009   -0.00000939    0.81305621
     atom    6 type  1   force =     0.00000000    0.00002211    0.81302876
     atom    7 type  2   force =    -0.00000002   -0.00020060   -0.61204455
     atom    8 type  2   force =     0.00000000    0.00020301   -0.61204111
     atom    9 type  1   force =    -0.00000009   -0.00000688    0.81303637
     atom   10 type  1   force =    -0.00000000    0.00001177    0.81304418
     atom   11 type  2   force =    -0.00000002   -0.00020178   -0.61204399
     atom   12 type  2   force =    -0.00000000    0.00020296   -0.61204654
     atom   13 type  1   force =    -0.00000009   -0.00002017    0.81305311
     atom   14 type  1   force =     0.00000000    0.00000277    0.81305108
     atom   15 type  2   force =    -0.00000002   -0.00020396   -0.61204935
     atom   16 type  2   force =     0.00000000    0.00019991   -0.61204959
     atom   17 type  1   force =    -0.00000009   -0.00000908    0.81305143
     atom   18 type  1   force =    -0.00000000   -0.00000424    0.81303345
     atom   19 type  2   force =    -0.00000002   -0.00020396   -0.61204452
     atom   20 type  2   force =    -0.00000000    0.00020125   -0.61204132
     atom   21 type  1   force =    -0.00000009   -0.00001065    0.81303968
     atom   22 type  1   force =     0.00000000    0.00000627    0.81304474
     atom   23 type  2   force =    -0.00000002   -0.00020312   -0.61204116
     atom   24 type  2   force =     0.00000000    0.00020344   -0.61204612
     The core correction contribution to forces
     atom    1 type  1   force =    -0.00000001    0.00000497    0.00753973
     atom    2 type  1   force =    -0.00000000   -0.00000520    0.00753916
     atom    3 type  2   force =     0.00000000   -0.00000237    0.00078162
     atom    4 type  2   force =    -0.00000000    0.00000234    0.00078197
     atom    5 type  1   force =    -0.00000001    0.00000523    0.00753924
     atom    6 type  1   force =    -0.00000000   -0.00000538    0.00754183
     atom    7 type  2   force =     0.00000000   -0.00000235    0.00078198
     atom    8 type  2   force =    -0.00000000    0.00000233    0.00077994
     atom    9 type  1   force =    -0.00000001    0.00000517    0.00754176
     atom   10 type  1   force =    -0.00000000   -0.00000516    0.00753966
     atom   11 type  2   force =     0.00000000   -0.00000237    0.00077990
     atom   12 type  2   force =    -0.00000000    0.00000235    0.00078161
     atom   13 type  1   force =    -0.00000001    0.00000531    0.00753940
     atom   14 type  1   force =    -0.00000000   -0.00000509    0.00753939
     atom   15 type  2   force =     0.00000000   -0.00000235    0.00078160
     atom   16 type  2   force =    -0.00000000    0.00000236    0.00078196
     atom   17 type  1   force =    -0.00000001    0.00000504    0.00753923
     atom   18 type  1   force =    -0.00000000   -0.00000493    0.00754185
     atom   19 type  2   force =     0.00000000   -0.00000235    0.00078198
     atom   20 type  2   force =    -0.00000000    0.00000237    0.00077996
     atom   21 type  1   force =    -0.00000001    0.00000515    0.00754172
     atom   22 type  1   force =    -0.00000000   -0.00000514    0.00753967
     atom   23 type  2   force =     0.00000000   -0.00000234    0.00077993
     atom   24 type  2   force =    -0.00000000    0.00000238    0.00078161
     The Hubbard contrib.    to forces
     atom    1 type  1   force =     0.00000000    0.00000000    0.00000000
     atom    2 type  1   force =     0.00000000    0.00000000    0.00000000
     atom    3 type  2   force =     0.00000000    0.00000000    0.00000000
     atom    4 type  2   force =     0.00000000    0.00000000    0.00000000
     atom    5 type  1   force =     0.00000000    0.00000000    0.00000000
     atom    6 type  1   force =     0.00000000    0.00000000    0.00000000
     atom    7 type  2   force =     0.00000000    0.00000000    0.00000000
     atom    8 type  2   force =     0.00000000    0.00000000    0.00000000
     atom    9 type  1   force =     0.00000000    0.00000000    0.00000000
     atom   10 type  1   force =     0.00000000    0.00000000    0.00000000
     atom   11 type  2   force =     0.00000000    0.00000000    0.00000000
     atom   12 type  2   force =     0.00000000    0.00000000    0.00000000
     atom   13 type  1   force =     0.00000000    0.00000000    0.00000000
     atom   14 type  1   force =     0.00000000    0.00000000    0.00000000
     atom   15 type  2   force =     0.00000000    0.00000000    0.00000000
     atom   16 type  2   force =     0.00000000    0.00000000    0.00000000
     atom   17 type  1   force =     0.00000000    0.00000000    0.00000000
     atom   18 type  1   force =     0.00000000    0.00000000    0.00000000
     atom   19 type  2   force =     0.00000000    0.00000000    0.00000000
     atom   20 type  2   force =     0.00000000    0.00000000    0.00000000
     atom   21 type  1   force =     0.00000000    0.00000000    0.00000000
     atom   22 type  1   force =     0.00000000    0.00000000    0.00000000
     atom   23 type  2   force =     0.00000000    0.00000000    0.00000000
     atom   24 type  2   force =     0.00000000    0.00000000    0.00000000
     The SCF correction term to forces
     atom    1 type  1   force =     0.00000000   -0.00001540    0.00001317
     atom    2 type  1   force =    -0.00000000   -0.00000792   -0.00001512
     atom    3 type  2   force =     0.00000000   -0.00000146    0.00000644
     atom    4 type  2   force =    -0.00000000   -0.00000264   -0.00000116
     atom    5 type  1   force =     0.00000000    0.00000055   -0.00000914
     atom    6 type  1   force =    -0.00000000   -0.00001664    0.00002897
     atom    7 type  2   force =     0.00000000   -0.00000264   -0.00000550
     atom    8 type  2   force =    -0.00000000   -0.00000161   -0.00000605
     atom    9 type  1   force =     0.00000000   -0.00000386    0.00001906
     atom   10 type  1   force =    -0.00000000   -0.00000259    0.00000779
     atom   11 type  2   force =     0.00000000   -0.00000277   -0.00000496
     atom   12 type  2   force =    -0.00000000   -0.00000034    0.00000238
     atom   13 type  1   force =     0.00000000    0.00001418   -0.00000567
     atom   14 type  1   force =    -0.00000000    0.00000929   -0.00000241
     atom   15 type  2   force =     0.00000000    0.00000088    0.00000468
     atom   16 type  2   force =    -0.00000000    0.00000460   -0.00000149
     atom   17 type  1   force =     0.00000000   -0.00000027   -0.00000412
     atom   18 type  1   force =    -0.00000000    0.00001866    0.00002318
     atom   19 type  2   force =     0.00000000    0.00000131   -0.00000527
     atom   20 type  2   force =    -0.00000000    0.00000354   -0.00000392
     atom   21 type  1   force =     0.00000000    0.00000077    0.00001417
     atom   22 type  1   force =    -0.00000000    0.00000489    0.00000712
     atom   23 type  2   force =     0.00000000    0.00000157   -0.00000633
     atom   24 type  2   force =    -0.00000000    0.00000064    0.00000163

     Total force =     0.024639     Total SCF correction =     0.000065

     init_run     :     25.29s CPU     26.05s WALL (       1 calls)
     electrons    :   2485.90s CPU   2535.41s WALL (       1 calls)
     forces       :     12.61s CPU     12.67s WALL (       1 calls)

     Called by init_run:
     wfcinit      :     18.33s CPU     18.90s WALL (       1 calls)
     wfcinit:atom :      0.10s CPU      0.10s WALL (      10 calls)
     wfcinit:wfcr :     17.45s CPU     18.01s WALL (      10 calls)
     potinit      :      2.57s CPU      2.65s WALL (       1 calls)
     hinit0       :      4.04s CPU      4.07s WALL (       1 calls)

     Called by electrons:
     c_bands      :   2314.61s CPU   2358.09s WALL (      28 calls)
     sum_band     :    150.11s CPU    155.51s WALL (      28 calls)
     v_of_rho     :     12.61s CPU     13.01s WALL (      29 calls)
     v_h          :      0.65s CPU      0.69s WALL (      29 calls)
     v_xc         :     12.37s CPU     12.74s WALL (      30 calls)
     newd         :      6.07s CPU      6.16s WALL (      29 calls)
     mix_rho      :      1.36s CPU      1.43s WALL (      28 calls)

     Called by c_bands:
     init_us_2    :      8.41s CPU      8.45s WALL (     580 calls)
     init_us_2:cp :      8.40s CPU      8.44s WALL (     580 calls)
     cegterg      :   2109.70s CPU   2152.95s WALL (     280 calls)

     Called by sum_band:
     sum_band:wei :      0.04s CPU      0.05s WALL (      28 calls)
     sum_band:loo :    135.94s CPU    140.90s WALL (      28 calls)
     sum_band:buf :      0.96s CPU      1.04s WALL (     280 calls)
     sum_band:ini :      3.15s CPU      3.16s WALL (     280 calls)
     sum_band:cal :     40.29s CPU     40.47s WALL (     280 calls)
     sum_band:bec :      0.23s CPU      0.23s WALL (     280 calls)
     addusdens    :      5.44s CPU      5.55s WALL (      28 calls)
     addusd:skk   :      0.11s CPU      0.11s WALL (      56 calls)
     addusd:dgemm :      1.21s CPU      1.21s WALL (      56 calls)
     addusd:qvan2 :      3.47s CPU      3.48s WALL (      56 calls)

     Called by *egterg:
     cdiaghg      :    152.44s CPU    155.70s WALL (    3045 calls)
     cegterg:over :    227.63s CPU    228.04s WALL (    2765 calls)
     cegterg:upda :    134.90s CPU    135.23s WALL (    2765 calls)
     cegterg:last :    271.55s CPU    272.32s WALL (    1173 calls)
     cdiaghg:chol :      9.30s CPU      9.32s WALL (    3045 calls)
     cdiaghg:inve :      2.32s CPU      2.33s WALL (    3045 calls)
     cdiaghg:para :     28.64s CPU     31.33s WALL (    6090 calls)
     h_psi        :   1125.46s CPU   1164.22s WALL (    3055 calls)
     s_psi        :    164.44s CPU    164.50s WALL (    3055 calls)
     g_psi        :      4.67s CPU      4.68s WALL (    2765 calls)

     Called by h_psi:
     h_psi:calbec :    196.66s CPU    197.64s WALL (    3055 calls)
     vloc_psi     :    757.31s CPU    794.97s WALL (    3055 calls)
     add_vuspsi   :    167.44s CPU    167.52s WALL (    3055 calls)

     General routines
     calbec       :    242.70s CPU    243.91s WALL (    3375 calls)
     fft          :      8.84s CPU      9.36s WALL (     386 calls)
     ffts         :      0.72s CPU      0.75s WALL (      57 calls)
     fftw         :    754.83s CPU    794.33s WALL (  296594 calls)
     interpolate  :      1.19s CPU      1.24s WALL (      29 calls)

     Parallel routines

     PWSCF        :  42m 4.46s CPU  42m54.81s WALL


   This run was terminated on:   0:35: 4   1Sep2025            

=------------------------------------------------------------------------------=
   JOB DONE.
=------------------------------------------------------------------------------=
Note: The following floating-point exceptions are signalling: IEEE_UNDERFLOW_FLAG IEEE_DENORMAL
Note: The following floating-point exceptions are signalling: IEEE_UNDERFLOW_FLAG IEEE_DENORMAL
Note: The following floating-point exceptions are signalling: IEEE_UNDERFLOW_FLAG IEEE_DENORMAL
Note: The following floating-point exceptions are signalling: IEEE_UNDERFLOW_FLAG IEEE_DENORMAL
Note: The following floating-point exceptions are signalling: IEEE_UNDERFLOW_FLAG IEEE_DENORMAL
Note: The following floating-point exceptions are signalling: IEEE_UNDERFLOW_FLAG IEEE_DENORMAL
Note: The following floating-point exceptions are signalling: IEEE_UNDERFLOW_FLAG IEEE_DENORMAL
Note: The following floating-point exceptions are signalling: IEEE_UNDERFLOW_FLAG IEEE_DENORMAL
Note: The following floating-point exceptions are signalling: IEEE_UNDERFLOW_FLAG IEEE_DENORMAL
Note: The following floating-point exceptions are signalling: IEEE_UNDERFLOW_FLAG IEEE_DENORMAL
Note: The following floating-point exceptions are signalling: IEEE_UNDERFLOW_FLAG IEEE_DENORMAL
Note: The following floating-point exceptions are signalling: IEEE_UNDERFLOW_FLAG IEEE_DENORMAL
Note: The following floating-point exceptions are signalling: IEEE_UNDERFLOW_FLAG IEEE_DENORMAL
Note: The following floating-point exceptions are signalling: IEEE_UNDERFLOW_FLAG IEEE_DENORMAL
Note: The following floating-point exceptions are signalling: IEEE_UNDERFLOW_FLAG IEEE_DENORMAL
Note: The following floating-point exceptions are signalling: IEEE_UNDERFLOW_FLAG IEEE_DENORMAL
Note: The following floating-point exceptions are signalling: IEEE_UNDERFLOW_FLAG IEEE_DENORMAL
Note: The following floating-point exceptions are signalling: IEEE_UNDERFLOW_FLAG IEEE_DENORMAL
Note: The following floating-point exceptions are signalling: IEEE_UNDERFLOW_FLAG IEEE_DENORMAL
Note: The following floating-point exceptions are signalling: IEEE_UNDERFLOW_FLAG IEEE_DENORMAL
Note: The following floating-point exceptions are signalling: IEEE_UNDERFLOW_FLAG IEEE_DENORMAL
Note: The following floating-point exceptions are signalling: IEEE_UNDERFLOW_FLAG IEEE_DENORMAL
Note: The following floating-point exceptions are signalling: IEEE_UNDERFLOW_FLAG IEEE_DENORMAL
Note: The following floating-point exceptions are signalling: IEEE_UNDERFLOW_FLAG IEEE_DENORMAL
Note: The following floating-point exceptions are signalling: IEEE_UNDERFLOW_FLAG IEEE_DENORMAL
Note: The following floating-point exceptions are signalling: IEEE_UNDERFLOW_FLAG IEEE_DENORMAL
Note: The following floating-point exceptions are signalling: IEEE_UNDERFLOW_FLAG IEEE_DENORMAL
Note: The following floating-point exceptions are signalling: IEEE_UNDERFLOW_FLAG IEEE_DENORMAL
Note: The following floating-point exceptions are signalling: IEEE_UNDERFLOW_FLAG IEEE_DENORMAL
Note: The following floating-point exceptions are signalling: IEEE_UNDERFLOW_FLAG IEEE_DENORMAL
Note: The following floating-point exceptions are signalling: IEEE_UNDERFLOW_FLAG IEEE_DENORMAL
Note: The following floating-point exceptions are signalling: IEEE_UNDERFLOW_FLAG IEEE_DENORMAL
