
     Program PWSCF v.7.0 starts on  1Sep2025 at 11: 8:11 

     This program is part of the open-source Quantum ESPRESSO suite
     for quantum simulation of materials; please cite
         "P. Giannozzi et al., J. Phys.:Condens. Matter 21 395502 (2009);
         "P. Giannozzi et al., J. Phys.:Condens. Matter 29 465901 (2017);
         "P. Giannozzi et al., J. Chem. Phys. 152 154105 (2020);
          URL http://www.quantum-espresso.org", 
     in publications or presentations arising from this work. More details at
     http://www.quantum-espresso.org/quote

     Parallel version (MPI & OpenMP), running on      32 processor cores
     Number of MPI processes:                32
     Threads/MPI process:                     1

     MPI processes distributed on     1 nodes
     K-points division:     npool     =       8
     R & G space division:  proc/nbgrp/npool/nimage =       4
     101850 MiB available memory on the printing compute node when the environment starts

     Reading input from /home/jvc/QEspresso7.2/ZnO_database/scripts/cell123.in/ZnO-3.53-1.65-123.in
Warning: card &CELL ignored
Warning: card / ignored
Warning: card &FCP ignored
Warning: card / ignored
Warning: card &RISM ignored
Warning: card / ignored

     Current dimensions of program PWSCF are:
     Max number of different atomic species (ntypx) = 10
     Max number of k-points (npk) =  40000
     Max angular momentum in pseudopotentials (lmaxx) =  4
     file Zn.upf: wavefunction(s)  3D renormalized
     Found identity + (  0.0000  0.0000  0.3333) symmetry
     This is a supercell, fractional translations are disabled
     Message from routine setup:
     using ibrav=0 with symmetry is DISCOURAGED, use correct ibrav instead

     Subspace diagonalization in iterative solution of the eigenvalue problem:
     one sub-group per band group will be used
     scalapack distributed-memory algorithm (size of sub-group:  2*  2 procs)


     Parallelization info
     --------------------
     sticks:   dense  smooth     PW     G-vecs:    dense   smooth      PW
     Min         616     306     93                85864    30324    5087
     Max         617     307     94                85873    30325    5100
     Sum        2467    1227    373               343483   121299   20361

     Using Slab Decomposition



     bravais-lattice index     =            0
     lattice parameter (alat)  =       6.6732  a.u.
     unit-cell volume          =    2542.5943 (a.u.)^3
     number of atoms/cell      =           24
     number of atomic types    =            2
     number of electrons       =       216.00
     number of Kohn-Sham states=          108
     kinetic-energy cutoff     =      50.0000  Ry
     charge density cutoff     =     400.0000  Ry
     scf convergence threshold =      1.0E-08
     mixing beta               =       0.3000
     number of iterations used =            8  plain     mixing
     Exchange-correlation= PBE
                           (   1   4   3   4   0   0   0)

     celldm(1)=   6.673162  celldm(2)=   0.000000  celldm(3)=   0.000000
     celldm(4)=   0.000000  celldm(5)=   0.000000  celldm(6)=   0.000000

     crystal axes: (cart. coord. in units of alat)
               a(1) = (   1.000000   0.000000   0.000000 )  
               a(2) = (  -1.000000   1.732051   0.000000 )  
               a(3) = (   0.000000   0.000000   4.939937 )  

     reciprocal axes: (cart. coord. in units 2 pi/alat)
               b(1) = (  1.000000  0.577350 -0.000000 )  
               b(2) = (  0.000000  0.577350  0.000000 )  
               b(3) = (  0.000000 -0.000000  0.202432 )  


     PseudoPot. # 1 for Zn read from file:
     /home/jvc/QEspresso7.2/ZnO_database/pseudos/Zn.upf
     MD5 check sum: 7f56cabf9682ed8c977c2f7d0c5985c5
     Pseudo is Ultrasoft + core correction, Zval = 12.0
     Generated using &quot;atomic&quot; code by A. Dal Corso  v.6.2.2
     Using radial grid of 1201 points,  6 beta functions with: 
                l(1) =   0
                l(2) =   0
                l(3) =   1
                l(4) =   1
                l(5) =   2
                l(6) =   2
     Q(r) pseudized with 0 coefficients 


     PseudoPot. # 2 for O  read from file:
     /home/jvc/QEspresso7.2/ZnO_database/pseudos/O.upf
     MD5 check sum: 91400c9766925bcf19f520983a725ff0
     Pseudo is Ultrasoft + core correction, Zval =  6.0
     Generated using &quot;atomic&quot; code by A. Dal Corso  v.6.3MaX
     Using radial grid of 1095 points,  4 beta functions with: 
                l(1) =   0
                l(2) =   0
                l(3) =   1
                l(4) =   1
     Q(r) pseudized with 0 coefficients 


     atomic species   valence    mass     pseudopotential
        Zn            12.00    65.38000     Zn( 1.00)
        O              6.00    15.99900     O ( 1.00)

      2 Sym. Ops. (no inversion) found


                                    s                        frac. trans.

      isym =  1     identity                                     

 cryst.   s( 1) = (     1          0          0      )
                  (     0          1          0      )
                  (     0          0          1      )

 cart.    s( 1) = (  1.0000000  0.0000000  0.0000000 )
                  (  0.0000000  1.0000000  0.0000000 )
                  (  0.0000000  0.0000000  1.0000000 )


      isym =  2     inv. 180 deg rotation - cart. axis [1,0,0]   

 cryst.   s( 2) = (    -1          0          0      )
                  (     2          1          0      )
                  (     0          0          1      )

 cart.    s( 2) = ( -1.0000000  0.0000000  0.0000000 )
                  (  0.0000000  1.0000000  0.0000000 )
                  (  0.0000000  0.0000000  1.0000000 )


   Cartesian axes

     site n.     atom                  positions (alat units)
         1           Zn  tau(   1) = (   0.5000000   0.2886751   0.8243661  )
         2           Zn  tau(   2) = (   0.0000000   0.5773503   0.0010433  )
         3           O   tau(   3) = (   0.5000000   0.2886751   1.4485152  )
         4           O   tau(   4) = (   0.0000000   0.5773503   0.6251925  )
         5           Zn  tau(   5) = (   0.5000000   0.2886751   2.4710116  )
         6           Zn  tau(   6) = (   0.0000000   0.5773503   1.6476888  )
         7           O   tau(   7) = (   0.5000000   0.2886751   3.0951608  )
         8           O   tau(   8) = (   0.0000000   0.5773503   2.2718380  )
         9           Zn  tau(   9) = (   0.5000000   0.2886751   4.1176571  )
        10           Zn  tau(  10) = (   0.0000000   0.5773503   3.2943343  )
        11           O   tau(  11) = (   0.5000000   0.2886751   4.7418063  )
        12           O   tau(  12) = (   0.0000000   0.5773503   3.9184835  )
        13           Zn  tau(  13) = (   0.0000000   1.1547005   0.8243661  )
        14           Zn  tau(  14) = (  -0.5000000   1.4433757   0.0010433  )
        15           O   tau(  15) = (   0.0000000   1.1547005   1.4485152  )
        16           O   tau(  16) = (  -0.5000000   1.4433757   0.6251925  )
        17           Zn  tau(  17) = (   0.0000000   1.1547005   2.4710116  )
        18           Zn  tau(  18) = (  -0.5000000   1.4433757   1.6476888  )
        19           O   tau(  19) = (   0.0000000   1.1547005   3.0951608  )
        20           O   tau(  20) = (  -0.5000000   1.4433757   2.2718380  )
        21           Zn  tau(  21) = (   0.0000000   1.1547005   4.1176571  )
        22           Zn  tau(  22) = (  -0.5000000   1.4433757   3.2943343  )
        23           O   tau(  23) = (   0.0000000   1.1547005   4.7418063  )
        24           O   tau(  24) = (  -0.5000000   1.4433757   3.9184835  )

   Crystallographic axes

     site n.     atom                  positions (cryst. coord.)
         1           Zn  tau(   1) = (  0.6666667  0.1666667  0.1668779  )
         2           Zn  tau(   2) = (  0.3333333  0.3333333  0.0002112  )
         3           O   tau(   3) = (  0.6666667  0.1666667  0.2932255  )
         4           O   tau(   4) = (  0.3333333  0.3333333  0.1265588  )
         5           Zn  tau(   5) = (  0.6666667  0.1666667  0.5002112  )
         6           Zn  tau(   6) = (  0.3333333  0.3333333  0.3335445  )
         7           O   tau(   7) = (  0.6666667  0.1666667  0.6265588  )
         8           O   tau(   8) = (  0.3333333  0.3333333  0.4598921  )
         9           Zn  tau(   9) = (  0.6666667  0.1666667  0.8335445  )
        10           Zn  tau(  10) = (  0.3333333  0.3333333  0.6668779  )
        11           O   tau(  11) = (  0.6666667  0.1666667  0.9598921  )
        12           O   tau(  12) = (  0.3333333  0.3333333  0.7932255  )
        13           Zn  tau(  13) = (  0.6666667  0.6666667  0.1668779  )
        14           Zn  tau(  14) = (  0.3333333  0.8333333  0.0002112  )
        15           O   tau(  15) = (  0.6666667  0.6666667  0.2932255  )
        16           O   tau(  16) = (  0.3333333  0.8333333  0.1265588  )
        17           Zn  tau(  17) = (  0.6666667  0.6666667  0.5002112  )
        18           Zn  tau(  18) = (  0.3333333  0.8333333  0.3335445  )
        19           O   tau(  19) = (  0.6666667  0.6666667  0.6265588  )
        20           O   tau(  20) = (  0.3333333  0.8333333  0.4598921  )
        21           Zn  tau(  21) = (  0.6666667  0.6666667  0.8335445  )
        22           Zn  tau(  22) = (  0.3333333  0.8333333  0.6668779  )
        23           O   tau(  23) = (  0.6666667  0.6666667  0.9598921  )
        24           O   tau(  24) = (  0.3333333  0.8333333  0.7932255  )

     number of k points=    80
                       cart. coord. in units 2pi/alat
        k(    1) = (   0.0000000   0.0000000   0.0000000), wk =   0.0092593
        k(    2) = (   0.0000000   0.0000000   0.0337386), wk =   0.0185185
        k(    3) = (   0.0000000   0.0000000   0.0674772), wk =   0.0185185
        k(    4) = (   0.0000000   0.0000000  -0.1012159), wk =   0.0092593
        k(    5) = (   0.0000000   0.0962250   0.0000000), wk =   0.0185185
        k(    6) = (   0.0000000   0.0962250   0.0337386), wk =   0.0185185
        k(    7) = (   0.0000000   0.0962250   0.0674772), wk =   0.0185185
        k(    8) = (   0.0000000   0.0962250  -0.1012159), wk =   0.0185185
        k(    9) = (   0.0000000   0.1924501   0.0000000), wk =   0.0185185
        k(   10) = (   0.0000000   0.1924501   0.0337386), wk =   0.0185185
        k(   11) = (   0.0000000   0.1924501   0.0674772), wk =   0.0185185
        k(   12) = (   0.0000000   0.1924501  -0.1012159), wk =   0.0185185
        k(   13) = (   0.0000000  -0.2886751   0.0000000), wk =   0.0092593
        k(   14) = (   0.0000000  -0.2886751   0.0337386), wk =   0.0185185
        k(   15) = (   0.0000000  -0.2886751   0.0674772), wk =   0.0185185
        k(   16) = (   0.0000000  -0.2886751  -0.1012159), wk =   0.0092593
        k(   17) = (   0.1666667   0.0962250   0.0000000), wk =   0.0370370
        k(   18) = (   0.1666667   0.0962250   0.0337386), wk =   0.0370370
        k(   19) = (   0.1666667   0.0962250   0.0674772), wk =   0.0370370
        k(   20) = (   0.1666667   0.0962250  -0.1012159), wk =   0.0370370
        k(   21) = (   0.1666667   0.1924501   0.0000000), wk =   0.0370370
        k(   22) = (   0.1666667   0.1924501   0.0337386), wk =   0.0370370
        k(   23) = (   0.1666667   0.1924501   0.0674772), wk =   0.0370370
        k(   24) = (   0.1666667   0.1924501  -0.1012159), wk =   0.0370370
        k(   25) = (   0.1666667   0.2886751   0.0000000), wk =   0.0185185
        k(   26) = (   0.1666667   0.2886751   0.0337386), wk =   0.0370370
        k(   27) = (   0.1666667   0.2886751   0.0674772), wk =   0.0370370
        k(   28) = (   0.1666667   0.2886751  -0.1012159), wk =   0.0185185
        k(   29) = (   0.1666667   0.0000000   0.0000000), wk =   0.0185185
        k(   30) = (   0.1666667   0.0000000   0.0337386), wk =   0.0370370
        k(   31) = (   0.1666667   0.0000000   0.0674772), wk =   0.0370370
        k(   32) = (   0.1666667   0.0000000  -0.1012159), wk =   0.0185185
        k(   33) = (   0.3333333   0.1924501   0.0000000), wk =   0.0370370
        k(   34) = (   0.3333333   0.1924501   0.0337386), wk =   0.0370370
        k(   35) = (   0.3333333   0.1924501   0.0674772), wk =   0.0370370
        k(   36) = (   0.3333333   0.1924501  -0.1012159), wk =   0.0370370
        k(   37) = (   0.3333333   0.2886751   0.0000000), wk =   0.0185185
        k(   38) = (   0.3333333   0.2886751   0.0337386), wk =   0.0370370
        k(   39) = (   0.3333333   0.2886751   0.0674772), wk =   0.0370370
        k(   40) = (   0.3333333   0.2886751  -0.1012159), wk =   0.0185185
        k(   41) = (   0.3333333  -0.0962250   0.0000000), wk =   0.0370370
        k(   42) = (   0.3333333  -0.0962250   0.0337386), wk =   0.0370370
        k(   43) = (   0.3333333  -0.0962250   0.0674772), wk =   0.0370370
        k(   44) = (   0.3333333  -0.0962250  -0.1012159), wk =   0.0370370
        k(   45) = (   0.3333333  -0.0000000   0.0000000), wk =   0.0185185
        k(   46) = (   0.3333333  -0.0000000   0.0337386), wk =   0.0370370
        k(   47) = (   0.3333333  -0.0000000   0.0674772), wk =   0.0370370
        k(   48) = (   0.3333333  -0.0000000  -0.1012159), wk =   0.0185185
        k(   49) = (  -0.5000000  -0.2886751   0.0000000), wk =   0.0092593
        k(   50) = (  -0.5000000  -0.2886751   0.0337386), wk =   0.0185185
        k(   51) = (  -0.5000000  -0.2886751   0.0674772), wk =   0.0185185
        k(   52) = (  -0.5000000  -0.2886751  -0.1012159), wk =   0.0092593
        k(   53) = (  -0.5000000  -0.1924501   0.0000000), wk =   0.0185185
        k(   54) = (  -0.5000000  -0.1924501   0.0337386), wk =   0.0185185
        k(   55) = (  -0.5000000  -0.1924501   0.0674772), wk =   0.0185185
        k(   56) = (  -0.5000000  -0.1924501  -0.1012159), wk =   0.0185185
        k(   57) = (  -0.5000000  -0.0962250   0.0000000), wk =   0.0185185
        k(   58) = (  -0.5000000  -0.0962250   0.0337386), wk =   0.0185185
        k(   59) = (  -0.5000000  -0.0962250   0.0674772), wk =   0.0185185
        k(   60) = (  -0.5000000  -0.0962250  -0.1012159), wk =   0.0185185
        k(   61) = (  -0.5000000  -0.5773503   0.0000000), wk =   0.0092593
        k(   62) = (  -0.5000000  -0.5773503   0.0337386), wk =   0.0185185
        k(   63) = (  -0.5000000  -0.5773503   0.0674772), wk =   0.0185185
        k(   64) = (  -0.5000000  -0.5773503  -0.1012159), wk =   0.0092593
        k(   65) = (   0.0000000   0.0962250  -0.0337386), wk =   0.0185185
        k(   66) = (   0.0000000   0.0962250  -0.0674772), wk =   0.0185185
        k(   67) = (   0.0000000   0.1924501  -0.0337386), wk =   0.0185185
        k(   68) = (   0.0000000   0.1924501  -0.0674772), wk =   0.0185185
        k(   69) = (  -0.1666667   0.0962250  -0.0337386), wk =   0.0370370
        k(   70) = (  -0.1666667   0.0962250  -0.0674772), wk =   0.0370370
        k(   71) = (  -0.1666667   0.1924501  -0.0337386), wk =   0.0370370
        k(   72) = (  -0.1666667   0.1924501  -0.0674772), wk =   0.0370370
        k(   73) = (  -0.3333333   0.1924501  -0.0337386), wk =   0.0370370
        k(   74) = (  -0.3333333   0.1924501  -0.0674772), wk =   0.0370370
        k(   75) = (  -0.3333333  -0.0962250  -0.0337386), wk =   0.0370370
        k(   76) = (  -0.3333333  -0.0962250  -0.0674772), wk =   0.0370370
        k(   77) = (   0.5000000  -0.1924501  -0.0337386), wk =   0.0185185
        k(   78) = (   0.5000000  -0.1924501  -0.0674772), wk =   0.0185185
        k(   79) = (   0.5000000  -0.0962250  -0.0337386), wk =   0.0185185
        k(   80) = (   0.5000000  -0.0962250  -0.0674772), wk =   0.0185185

                       cryst. coord.
        k(    1) = (   0.0000000   0.0000000   0.0000000), wk =   0.0092593
        k(    2) = (   0.0000000   0.0000000   0.1666667), wk =   0.0185185
        k(    3) = (   0.0000000   0.0000000   0.3333333), wk =   0.0185185
        k(    4) = (   0.0000000   0.0000000  -0.5000000), wk =   0.0092593
        k(    5) = (   0.0000000   0.1666667   0.0000000), wk =   0.0185185
        k(    6) = (   0.0000000   0.1666667   0.1666667), wk =   0.0185185
        k(    7) = (   0.0000000   0.1666667   0.3333333), wk =   0.0185185
        k(    8) = (   0.0000000   0.1666667  -0.5000000), wk =   0.0185185
        k(    9) = (   0.0000000   0.3333333   0.0000000), wk =   0.0185185
        k(   10) = (   0.0000000   0.3333333   0.1666667), wk =   0.0185185
        k(   11) = (   0.0000000   0.3333333   0.3333333), wk =   0.0185185
        k(   12) = (   0.0000000   0.3333333  -0.5000000), wk =   0.0185185
        k(   13) = (   0.0000000  -0.5000000   0.0000000), wk =   0.0092593
        k(   14) = (   0.0000000  -0.5000000   0.1666667), wk =   0.0185185
        k(   15) = (   0.0000000  -0.5000000   0.3333333), wk =   0.0185185
        k(   16) = (   0.0000000  -0.5000000  -0.5000000), wk =   0.0092593
        k(   17) = (   0.1666667   0.0000000   0.0000000), wk =   0.0370370
        k(   18) = (   0.1666667   0.0000000   0.1666667), wk =   0.0370370
        k(   19) = (   0.1666667   0.0000000   0.3333333), wk =   0.0370370
        k(   20) = (   0.1666667   0.0000000  -0.5000000), wk =   0.0370370
        k(   21) = (   0.1666667   0.1666667   0.0000000), wk =   0.0370370
        k(   22) = (   0.1666667   0.1666667   0.1666667), wk =   0.0370370
        k(   23) = (   0.1666667   0.1666667   0.3333333), wk =   0.0370370
        k(   24) = (   0.1666667   0.1666667  -0.5000000), wk =   0.0370370
        k(   25) = (   0.1666667   0.3333333   0.0000000), wk =   0.0185185
        k(   26) = (   0.1666667   0.3333333   0.1666667), wk =   0.0370370
        k(   27) = (   0.1666667   0.3333333   0.3333333), wk =   0.0370370
        k(   28) = (   0.1666667   0.3333333  -0.5000000), wk =   0.0185185
        k(   29) = (   0.1666667  -0.1666667   0.0000000), wk =   0.0185185
        k(   30) = (   0.1666667  -0.1666667   0.1666667), wk =   0.0370370
        k(   31) = (   0.1666667  -0.1666667   0.3333333), wk =   0.0370370
        k(   32) = (   0.1666667  -0.1666667  -0.5000000), wk =   0.0185185
        k(   33) = (   0.3333333   0.0000000   0.0000000), wk =   0.0370370
        k(   34) = (   0.3333333   0.0000000   0.1666667), wk =   0.0370370
        k(   35) = (   0.3333333   0.0000000   0.3333333), wk =   0.0370370
        k(   36) = (   0.3333333   0.0000000  -0.5000000), wk =   0.0370370
        k(   37) = (   0.3333333   0.1666667   0.0000000), wk =   0.0185185
        k(   38) = (   0.3333333   0.1666667   0.1666667), wk =   0.0370370
        k(   39) = (   0.3333333   0.1666667   0.3333333), wk =   0.0370370
        k(   40) = (   0.3333333   0.1666667  -0.5000000), wk =   0.0185185
        k(   41) = (   0.3333333  -0.5000000   0.0000000), wk =   0.0370370
        k(   42) = (   0.3333333  -0.5000000   0.1666667), wk =   0.0370370
        k(   43) = (   0.3333333  -0.5000000   0.3333333), wk =   0.0370370
        k(   44) = (   0.3333333  -0.5000000  -0.5000000), wk =   0.0370370
        k(   45) = (   0.3333333  -0.3333333   0.0000000), wk =   0.0185185
        k(   46) = (   0.3333333  -0.3333333   0.1666667), wk =   0.0370370
        k(   47) = (   0.3333333  -0.3333333   0.3333333), wk =   0.0370370
        k(   48) = (   0.3333333  -0.3333333  -0.5000000), wk =   0.0185185
        k(   49) = (  -0.5000000   0.0000000   0.0000000), wk =   0.0092593
        k(   50) = (  -0.5000000   0.0000000   0.1666667), wk =   0.0185185
        k(   51) = (  -0.5000000   0.0000000   0.3333333), wk =   0.0185185
        k(   52) = (  -0.5000000   0.0000000  -0.5000000), wk =   0.0092593
        k(   53) = (  -0.5000000   0.1666667   0.0000000), wk =   0.0185185
        k(   54) = (  -0.5000000   0.1666667   0.1666667), wk =   0.0185185
        k(   55) = (  -0.5000000   0.1666667   0.3333333), wk =   0.0185185
        k(   56) = (  -0.5000000   0.1666667  -0.5000000), wk =   0.0185185
        k(   57) = (  -0.5000000   0.3333333   0.0000000), wk =   0.0185185
        k(   58) = (  -0.5000000   0.3333333   0.1666667), wk =   0.0185185
        k(   59) = (  -0.5000000   0.3333333   0.3333333), wk =   0.0185185
        k(   60) = (  -0.5000000   0.3333333  -0.5000000), wk =   0.0185185
        k(   61) = (  -0.5000000  -0.5000000   0.0000000), wk =   0.0092593
        k(   62) = (  -0.5000000  -0.5000000   0.1666667), wk =   0.0185185
        k(   63) = (  -0.5000000  -0.5000000   0.3333333), wk =   0.0185185
        k(   64) = (  -0.5000000  -0.5000000  -0.5000000), wk =   0.0092593
        k(   65) = (   0.0000000   0.1666667  -0.1666667), wk =   0.0185185
        k(   66) = (   0.0000000   0.1666667  -0.3333333), wk =   0.0185185
        k(   67) = (   0.0000000   0.3333333  -0.1666667), wk =   0.0185185
        k(   68) = (   0.0000000   0.3333333  -0.3333333), wk =   0.0185185
        k(   69) = (  -0.1666667   0.3333333  -0.1666667), wk =   0.0370370
        k(   70) = (  -0.1666667   0.3333333  -0.3333333), wk =   0.0370370
        k(   71) = (  -0.1666667   0.5000000  -0.1666667), wk =   0.0370370
        k(   72) = (  -0.1666667   0.5000000  -0.3333333), wk =   0.0370370
        k(   73) = (  -0.3333333   0.6666667  -0.1666667), wk =   0.0370370
        k(   74) = (  -0.3333333   0.6666667  -0.3333333), wk =   0.0370370
        k(   75) = (  -0.3333333   0.1666667  -0.1666667), wk =   0.0370370
        k(   76) = (  -0.3333333   0.1666667  -0.3333333), wk =   0.0370370
        k(   77) = (   0.5000000  -0.8333333  -0.1666667), wk =   0.0185185
        k(   78) = (   0.5000000  -0.8333333  -0.3333333), wk =   0.0185185
        k(   79) = (   0.5000000  -0.6666667  -0.1666667), wk =   0.0185185
        k(   80) = (   0.5000000  -0.6666667  -0.3333333), wk =   0.0185185

     Dense  grid:   343483 G-vectors     FFT dimensions: (  45,  90, 216)

     Smooth grid:   121299 G-vectors     FFT dimensions: (  32,  64, 150)

     Dynamical RAM for                 wfc:       6.25 MB

     Dynamical RAM for     wfc (w. buffer):      68.79 MB

     Dynamical RAM for           str. fact:       2.62 MB

     Dynamical RAM for           local pot:       0.00 MB

     Dynamical RAM for          nlocal pot:      18.07 MB

     Dynamical RAM for                qrad:       3.21 MB

     Dynamical RAM for          rho,v,vnew:       8.94 MB

     Dynamical RAM for               rhoin:       2.98 MB

     Dynamical RAM for            rho*nmix:      20.97 MB

     Dynamical RAM for           G-vectors:       5.15 MB

     Dynamical RAM for          h,s,v(r/c):       0.53 MB

     Dynamical RAM for          <psi|beta>:       0.51 MB

     Dynamical RAM for                 psi:      12.51 MB

     Dynamical RAM for                hpsi:      12.51 MB

     Dynamical RAM for                spsi:      12.51 MB

     Dynamical RAM for      wfcinit/wfcrot:      18.63 MB

     Dynamical RAM for           addusdens:      33.58 MB

     Dynamical RAM for          addusforce:      36.74 MB

     Estimated static dynamical RAM per process >     122.03 MB

     Estimated max dynamical RAM per process >     181.56 MB

     Estimated total dynamical RAM >       5.10 GB

     Check: negative core charge=   -0.000003

     Initial potential from superposition of free atoms

     starting charge     215.9553, renormalised to     216.0000
     Starting wfcs are  156 randomized atomic wfcs

     total cpu time spent up to now is       32.4 secs

     per-process dynamical memory:   157.1 Mb

     Self-consistent Calculation

     iteration #  1     ecut=    50.00 Ry     beta= 0.30
     Davidson diagonalization with overlap

---- Real-time Memory Report at c_bands before calling an iterative solver
           180 MiB given to the printing process from OS
           153 MiB allocation reported by mallinfo(arena+hblkhd)
         96872 MiB available memory on the node where the printing process lives
------------------
     ethr =  1.00E-02,  avg # of iterations =  1.4

     total cpu time spent up to now is       81.3 secs

     total energy              =   -2168.21397544 Ry
     estimated scf accuracy    <       4.93405149 Ry

     iteration #  2     ecut=    50.00 Ry     beta= 0.30
     Davidson diagonalization with overlap

---- Real-time Memory Report at c_bands before calling an iterative solver
           210 MiB given to the printing process from OS
           182 MiB allocation reported by mallinfo(arena+hblkhd)
         96045 MiB available memory on the node where the printing process lives
------------------
     ethr =  2.28E-03,  avg # of iterations =  2.5

     total cpu time spent up to now is      137.9 secs

     total energy              =   -2168.92188286 Ry
     estimated scf accuracy    <       0.58395031 Ry

     iteration #  3     ecut=    50.00 Ry     beta= 0.30
     Davidson diagonalization with overlap

---- Real-time Memory Report at c_bands before calling an iterative solver
           214 MiB given to the printing process from OS
           185 MiB allocation reported by mallinfo(arena+hblkhd)
         96031 MiB available memory on the node where the printing process lives
------------------
     ethr =  2.70E-04,  avg # of iterations =  7.2

     total cpu time spent up to now is      228.4 secs

     total energy              =   -2168.91073781 Ry
     estimated scf accuracy    <       0.98805170 Ry

     iteration #  4     ecut=    50.00 Ry     beta= 0.30
     Davidson diagonalization with overlap

---- Real-time Memory Report at c_bands before calling an iterative solver
           215 MiB given to the printing process from OS
           192 MiB allocation reported by mallinfo(arena+hblkhd)
         96044 MiB available memory on the node where the printing process lives
------------------
     ethr =  2.70E-04,  avg # of iterations = 11.2

     total cpu time spent up to now is      370.8 secs

     total energy              =   -2169.80259154 Ry
     estimated scf accuracy    <       2.21779298 Ry

     iteration #  5     ecut=    50.00 Ry     beta= 0.30
     Davidson diagonalization with overlap

---- Real-time Memory Report at c_bands before calling an iterative solver
           216 MiB given to the printing process from OS
           193 MiB allocation reported by mallinfo(arena+hblkhd)
         96044 MiB available memory on the node where the printing process lives
------------------
     ethr =  2.70E-04,  avg # of iterations =  1.0

     total cpu time spent up to now is      414.8 secs

     total energy              =   -2168.88762499 Ry
     estimated scf accuracy    <       1.87639190 Ry

     iteration #  6     ecut=    50.00 Ry     beta= 0.30
     Davidson diagonalization with overlap

---- Real-time Memory Report at c_bands before calling an iterative solver
           216 MiB given to the printing process from OS
           193 MiB allocation reported by mallinfo(arena+hblkhd)
         96041 MiB available memory on the node where the printing process lives
------------------
     ethr =  2.70E-04,  avg # of iterations =  7.5

     total cpu time spent up to now is      501.8 secs

     total energy              =   -2169.39099175 Ry
     estimated scf accuracy    <       0.11687220 Ry

     iteration #  7     ecut=    50.00 Ry     beta= 0.30
     Davidson diagonalization with overlap

---- Real-time Memory Report at c_bands before calling an iterative solver
           218 MiB given to the printing process from OS
           195 MiB allocation reported by mallinfo(arena+hblkhd)
         96039 MiB available memory on the node where the printing process lives
------------------
     ethr =  5.41E-05,  avg # of iterations =  2.2

     total cpu time spent up to now is      553.4 secs

     total energy              =   -2169.39362309 Ry
     estimated scf accuracy    <       0.03974706 Ry

     iteration #  8     ecut=    50.00 Ry     beta= 0.30
     Davidson diagonalization with overlap

---- Real-time Memory Report at c_bands before calling an iterative solver
           218 MiB given to the printing process from OS
           195 MiB allocation reported by mallinfo(arena+hblkhd)
         98487 MiB available memory on the node where the printing process lives
------------------
     ethr =  1.84E-05,  avg # of iterations =  4.8

     total cpu time spent up to now is      614.4 secs

     total energy              =   -2169.40150747 Ry
     estimated scf accuracy    <       0.01458033 Ry

     iteration #  9     ecut=    50.00 Ry     beta= 0.30
     Davidson diagonalization with overlap

---- Real-time Memory Report at c_bands before calling an iterative solver
           219 MiB given to the printing process from OS
           195 MiB allocation reported by mallinfo(arena+hblkhd)
         96041 MiB available memory on the node where the printing process lives
------------------
     ethr =  6.75E-06,  avg # of iterations =  3.0

     total cpu time spent up to now is      667.9 secs

     total energy              =   -2169.42583487 Ry
     estimated scf accuracy    <       0.01519199 Ry

     iteration # 10     ecut=    50.00 Ry     beta= 0.30
     Davidson diagonalization with overlap

---- Real-time Memory Report at c_bands before calling an iterative solver
           220 MiB given to the printing process from OS
           195 MiB allocation reported by mallinfo(arena+hblkhd)
         96016 MiB available memory on the node where the printing process lives
------------------
     ethr =  6.75E-06,  avg # of iterations =  8.8

     total cpu time spent up to now is      758.6 secs

     total energy              =   -2169.41640952 Ry
     estimated scf accuracy    <       0.15587652 Ry

     iteration # 11     ecut=    50.00 Ry     beta= 0.30
     Davidson diagonalization with overlap

---- Real-time Memory Report at c_bands before calling an iterative solver
           222 MiB given to the printing process from OS
           199 MiB allocation reported by mallinfo(arena+hblkhd)
         96001 MiB available memory on the node where the printing process lives
------------------
     ethr =  6.75E-06,  avg # of iterations =  2.0

     total cpu time spent up to now is      808.4 secs

     total energy              =   -2169.36590342 Ry
     estimated scf accuracy    <       0.11453262 Ry

     iteration # 12     ecut=    50.00 Ry     beta= 0.30
     Davidson diagonalization with overlap

---- Real-time Memory Report at c_bands before calling an iterative solver
           222 MiB given to the printing process from OS
           199 MiB allocation reported by mallinfo(arena+hblkhd)
         95999 MiB available memory on the node where the printing process lives
------------------
     c_bands:  1 eigenvalues not converged
     c_bands:  1 eigenvalues not converged
     ethr =  6.75E-06,  avg # of iterations = 11.1

     total cpu time spent up to now is      938.6 secs

     total energy              =   -2169.41025504 Ry
     estimated scf accuracy    <       0.01335616 Ry

     iteration # 13     ecut=    50.00 Ry     beta= 0.30
     Davidson diagonalization with overlap

---- Real-time Memory Report at c_bands before calling an iterative solver
           222 MiB given to the printing process from OS
           199 MiB allocation reported by mallinfo(arena+hblkhd)
         95981 MiB available memory on the node where the printing process lives
------------------
     ethr =  6.18E-06,  avg # of iterations =  4.4

     total cpu time spent up to now is      993.9 secs

     total energy              =   -2169.41209384 Ry
     estimated scf accuracy    <       0.02745241 Ry

     iteration # 14     ecut=    50.00 Ry     beta= 0.30
     Davidson diagonalization with overlap

---- Real-time Memory Report at c_bands before calling an iterative solver
           222 MiB given to the printing process from OS
           199 MiB allocation reported by mallinfo(arena+hblkhd)
         95979 MiB available memory on the node where the printing process lives
------------------
     ethr =  6.18E-06,  avg # of iterations =  1.9

     total cpu time spent up to now is     1041.2 secs

     total energy              =   -2169.40003286 Ry
     estimated scf accuracy    <       0.03279729 Ry

     iteration # 15     ecut=    50.00 Ry     beta= 0.30
     Davidson diagonalization with overlap

---- Real-time Memory Report at c_bands before calling an iterative solver
           222 MiB given to the printing process from OS
           199 MiB allocation reported by mallinfo(arena+hblkhd)
         95978 MiB available memory on the node where the printing process lives
------------------
     ethr =  6.18E-06,  avg # of iterations =  2.7

     total cpu time spent up to now is     1095.5 secs

     total energy              =   -2169.39415695 Ry
     estimated scf accuracy    <       0.01150564 Ry

     iteration # 16     ecut=    50.00 Ry     beta= 0.30
     Davidson diagonalization with overlap

---- Real-time Memory Report at c_bands before calling an iterative solver
           222 MiB given to the printing process from OS
           199 MiB allocation reported by mallinfo(arena+hblkhd)
         95976 MiB available memory on the node where the printing process lives
------------------
     ethr =  5.33E-06,  avg # of iterations =  7.2

     total cpu time spent up to now is     1185.6 secs

     total energy              =   -2169.39666769 Ry
     estimated scf accuracy    <       0.01728283 Ry

     iteration # 17     ecut=    50.00 Ry     beta= 0.30
     Davidson diagonalization with overlap

---- Real-time Memory Report at c_bands before calling an iterative solver
           222 MiB given to the printing process from OS
           199 MiB allocation reported by mallinfo(arena+hblkhd)
         95971 MiB available memory on the node where the printing process lives
------------------
     ethr =  5.33E-06,  avg # of iterations =  6.1

     total cpu time spent up to now is     1264.9 secs

     total energy              =   -2169.40277684 Ry
     estimated scf accuracy    <       0.00208050 Ry

     iteration # 18     ecut=    50.00 Ry     beta= 0.30
     Davidson diagonalization with overlap

---- Real-time Memory Report at c_bands before calling an iterative solver
           222 MiB given to the printing process from OS
           199 MiB allocation reported by mallinfo(arena+hblkhd)
         95970 MiB available memory on the node where the printing process lives
------------------
     ethr =  9.63E-07,  avg # of iterations =  6.7

     total cpu time spent up to now is     1326.2 secs

     total energy              =   -2169.40248825 Ry
     estimated scf accuracy    <       0.00427220 Ry

     iteration # 19     ecut=    50.00 Ry     beta= 0.30
     Davidson diagonalization with overlap

---- Real-time Memory Report at c_bands before calling an iterative solver
           222 MiB given to the printing process from OS
           199 MiB allocation reported by mallinfo(arena+hblkhd)
         95971 MiB available memory on the node where the printing process lives
------------------
     ethr =  9.63E-07,  avg # of iterations =  1.0

     total cpu time spent up to now is     1370.1 secs

     total energy              =   -2169.40146034 Ry
     estimated scf accuracy    <       0.00342921 Ry

     iteration # 20     ecut=    50.00 Ry     beta= 0.30
     Davidson diagonalization with overlap

---- Real-time Memory Report at c_bands before calling an iterative solver
           222 MiB given to the printing process from OS
           199 MiB allocation reported by mallinfo(arena+hblkhd)
         95971 MiB available memory on the node where the printing process lives
------------------
     ethr =  9.63E-07,  avg # of iterations =  4.4

     total cpu time spent up to now is     1426.7 secs

     total energy              =   -2169.40177510 Ry
     estimated scf accuracy    <       0.00114645 Ry

     iteration # 21     ecut=    50.00 Ry     beta= 0.30
     Davidson diagonalization with overlap

---- Real-time Memory Report at c_bands before calling an iterative solver
           222 MiB given to the printing process from OS
           199 MiB allocation reported by mallinfo(arena+hblkhd)
         95971 MiB available memory on the node where the printing process lives
------------------
     ethr =  5.31E-07,  avg # of iterations =  2.0

     total cpu time spent up to now is     1476.2 secs

     total energy              =   -2169.40137299 Ry
     estimated scf accuracy    <       0.00108724 Ry

     iteration # 22     ecut=    50.00 Ry     beta= 0.30
     Davidson diagonalization with overlap

---- Real-time Memory Report at c_bands before calling an iterative solver
           222 MiB given to the printing process from OS
           199 MiB allocation reported by mallinfo(arena+hblkhd)
         95971 MiB available memory on the node where the printing process lives
------------------
     ethr =  5.03E-07,  avg # of iterations =  5.9

     total cpu time spent up to now is     1547.7 secs

     total energy              =   -2169.40171972 Ry
     estimated scf accuracy    <       0.00005505 Ry

     iteration # 23     ecut=    50.00 Ry     beta= 0.30
     Davidson diagonalization with overlap

---- Real-time Memory Report at c_bands before calling an iterative solver
           222 MiB given to the printing process from OS
           199 MiB allocation reported by mallinfo(arena+hblkhd)
         95970 MiB available memory on the node where the printing process lives
------------------
     ethr =  2.55E-08,  avg # of iterations =  6.4

     total cpu time spent up to now is     1630.4 secs

     total energy              =   -2169.40176095 Ry
     estimated scf accuracy    <       0.00000201 Ry

     iteration # 24     ecut=    50.00 Ry     beta= 0.30
     Davidson diagonalization with overlap

---- Real-time Memory Report at c_bands before calling an iterative solver
           222 MiB given to the printing process from OS
           199 MiB allocation reported by mallinfo(arena+hblkhd)
         95970 MiB available memory on the node where the printing process lives
------------------
     c_bands:  1 eigenvalues not converged
     c_bands:  1 eigenvalues not converged
     c_bands:  1 eigenvalues not converged
     c_bands:  1 eigenvalues not converged
     c_bands:  1 eigenvalues not converged
     c_bands:  2 eigenvalues not converged
     ethr =  9.29E-10,  avg # of iterations = 14.8

     total cpu time spent up to now is     1804.7 secs

     total energy              =   -2169.40177598 Ry
     estimated scf accuracy    <       0.00011568 Ry

     iteration # 25     ecut=    50.00 Ry     beta= 0.30
     Davidson diagonalization with overlap

---- Real-time Memory Report at c_bands before calling an iterative solver
           222 MiB given to the printing process from OS
           199 MiB allocation reported by mallinfo(arena+hblkhd)
         95967 MiB available memory on the node where the printing process lives
------------------
     ethr =  9.29E-10,  avg # of iterations =  1.3

     total cpu time spent up to now is     1850.5 secs

     total energy              =   -2169.40175068 Ry
     estimated scf accuracy    <       0.00010660 Ry

     iteration # 26     ecut=    50.00 Ry     beta= 0.30
     Davidson diagonalization with overlap

---- Real-time Memory Report at c_bands before calling an iterative solver
           222 MiB given to the printing process from OS
           199 MiB allocation reported by mallinfo(arena+hblkhd)
         95967 MiB available memory on the node where the printing process lives
------------------
     c_bands:  1 eigenvalues not converged
     ethr =  9.29E-10,  avg # of iterations = 11.9

     total cpu time spent up to now is     1988.6 secs

     total energy              =   -2169.40175899 Ry
     estimated scf accuracy    <       0.00001701 Ry

     iteration # 27     ecut=    50.00 Ry     beta= 0.30
     Davidson diagonalization with overlap

---- Real-time Memory Report at c_bands before calling an iterative solver
           222 MiB given to the printing process from OS
           199 MiB allocation reported by mallinfo(arena+hblkhd)
         95967 MiB available memory on the node where the printing process lives
------------------
     ethr =  9.29E-10,  avg # of iterations =  1.0

     total cpu time spent up to now is     2033.5 secs

     total energy              =   -2169.40175445 Ry
     estimated scf accuracy    <       0.00001916 Ry

     iteration # 28     ecut=    50.00 Ry     beta= 0.30
     Davidson diagonalization with overlap

---- Real-time Memory Report at c_bands before calling an iterative solver
           222 MiB given to the printing process from OS
           199 MiB allocation reported by mallinfo(arena+hblkhd)
         95967 MiB available memory on the node where the printing process lives
------------------
     ethr =  9.29E-10,  avg # of iterations =  6.7

     total cpu time spent up to now is     2109.6 secs

     total energy              =   -2169.40175383 Ry
     estimated scf accuracy    <       0.00000555 Ry

     iteration # 29     ecut=    50.00 Ry     beta= 0.30
     Davidson diagonalization with overlap

---- Real-time Memory Report at c_bands before calling an iterative solver
           222 MiB given to the printing process from OS
           199 MiB allocation reported by mallinfo(arena+hblkhd)
         95966 MiB available memory on the node where the printing process lives
------------------
     ethr =  9.29E-10,  avg # of iterations =  6.3

     total cpu time spent up to now is     2178.9 secs

     total energy              =   -2169.40175419 Ry
     estimated scf accuracy    <       0.00000101 Ry

     iteration # 30     ecut=    50.00 Ry     beta= 0.30
     Davidson diagonalization with overlap

---- Real-time Memory Report at c_bands before calling an iterative solver
           222 MiB given to the printing process from OS
           199 MiB allocation reported by mallinfo(arena+hblkhd)
         95966 MiB available memory on the node where the printing process lives
------------------
     ethr =  4.68E-10,  avg # of iterations =  6.0

     total cpu time spent up to now is     2244.1 secs

     total energy              =   -2169.40175437 Ry
     estimated scf accuracy    <       0.00000023 Ry

     iteration # 31     ecut=    50.00 Ry     beta= 0.30
     Davidson diagonalization with overlap

---- Real-time Memory Report at c_bands before calling an iterative solver
           222 MiB given to the printing process from OS
           199 MiB allocation reported by mallinfo(arena+hblkhd)
         95967 MiB available memory on the node where the printing process lives
------------------
     ethr =  1.09E-10,  avg # of iterations =  5.1

     total cpu time spent up to now is     2299.9 secs

     total energy              =   -2169.40175442 Ry
     estimated scf accuracy    <       0.00000015 Ry

     iteration # 32     ecut=    50.00 Ry     beta= 0.30
     Davidson diagonalization with overlap

---- Real-time Memory Report at c_bands before calling an iterative solver
           222 MiB given to the printing process from OS
           199 MiB allocation reported by mallinfo(arena+hblkhd)
         95966 MiB available memory on the node where the printing process lives
------------------
     ethr =  6.82E-11,  avg # of iterations =  1.9

     total cpu time spent up to now is     2348.1 secs

     total energy              =   -2169.40175438 Ry
     estimated scf accuracy    <       0.00000019 Ry

     iteration # 33     ecut=    50.00 Ry     beta= 0.30
     Davidson diagonalization with overlap

---- Real-time Memory Report at c_bands before calling an iterative solver
           222 MiB given to the printing process from OS
           199 MiB allocation reported by mallinfo(arena+hblkhd)
         95967 MiB available memory on the node where the printing process lives
------------------
     ethr =  6.82E-11,  avg # of iterations =  3.2

     total cpu time spent up to now is     2403.9 secs

     total energy              =   -2169.40175435 Ry
     estimated scf accuracy    <       0.00000009 Ry

     iteration # 34     ecut=    50.00 Ry     beta= 0.30
     Davidson diagonalization with overlap

---- Real-time Memory Report at c_bands before calling an iterative solver
           222 MiB given to the printing process from OS
           199 MiB allocation reported by mallinfo(arena+hblkhd)
         95967 MiB available memory on the node where the printing process lives
------------------
     ethr =  4.13E-11,  avg # of iterations =  7.2

     total cpu time spent up to now is     2487.2 secs

     total energy              =   -2169.40175440 Ry
     estimated scf accuracy    <       0.00000004 Ry

     iteration # 35     ecut=    50.00 Ry     beta= 0.30
     Davidson diagonalization with overlap

---- Real-time Memory Report at c_bands before calling an iterative solver
           222 MiB given to the printing process from OS
           199 MiB allocation reported by mallinfo(arena+hblkhd)
         95967 MiB available memory on the node where the printing process lives
------------------
     ethr =  1.77E-11,  avg # of iterations =  1.8

     total cpu time spent up to now is     2536.1 secs

     total energy              =   -2169.40175438 Ry
     estimated scf accuracy    <       0.00000004 Ry

     iteration # 36     ecut=    50.00 Ry     beta= 0.30
     Davidson diagonalization with overlap

---- Real-time Memory Report at c_bands before calling an iterative solver
           222 MiB given to the printing process from OS
           199 MiB allocation reported by mallinfo(arena+hblkhd)
         95966 MiB available memory on the node where the printing process lives
------------------
     ethr =  1.62E-11,  avg # of iterations =  3.3

     total cpu time spent up to now is     2596.0 secs

     End of self-consistent calculation

          k = 0.0000 0.0000 0.0000 ( 15171 PWs)   bands (ev):

   -12.5784 -12.4902 -12.4902 -12.3096 -12.3096 -12.2172 -12.2100 -12.1805
   -12.1804 -12.1248 -12.1248 -12.0989  -1.1503  -1.1503  -1.1295  -1.1293
    -1.1273  -1.1205  -1.1205  -1.1118  -1.1118  -1.1116  -1.1116  -1.1067
    -1.0605  -1.0605  -1.0603  -1.0603  -1.0542  -1.0542  -1.0268  -1.0266
    -0.9824  -0.9609  -0.9609  -0.9205  -0.9205  -0.8924  -0.7828  -0.7828
    -0.7677  -0.7461  -0.7461  -0.7090  -0.6622  -0.6621  -0.6293  -0.5929
    -0.5928  -0.5613  -0.5613  -0.5612  -0.5612  -0.5578  -0.5113  -0.5113
    -0.5113  -0.5113  -0.5019  -0.4973  -0.4973  -0.4925  -0.4925  -0.4878
    -0.4827  -0.4827  -0.4673  -0.4622  -0.4622  -0.4250  -0.4250  -0.4214
     0.1349   0.4438   0.4438   0.4595   0.7016   0.7016   0.9626   1.0135
     1.0135   1.7489   2.3405   2.3558   2.3558   2.3784   2.3784   2.5606
     2.5606   2.8681   2.9692   2.9692   2.9851   2.9852   3.1937   3.2624
     3.2631   3.3841   3.3842   3.3848   3.3848   3.6240   3.6241   3.6247
     3.6247   3.6827   3.7422   3.7429

     occupation numbers 
     1.0000   1.0000   1.0000   1.0000   1.0000   1.0000   1.0000   1.0000
     1.0000   1.0000   1.0000   1.0000   1.0000   1.0000   1.0000   1.0000
     1.0000   1.0000   1.0000   1.0000   1.0000   1.0000   1.0000   1.0000
     1.0000   1.0000   1.0000   1.0000   1.0000   1.0000   1.0000   1.0000
     1.0000   1.0000   1.0000   1.0000   1.0000   1.0000   1.0000   1.0000
     1.0000   1.0000   1.0000   1.0000   1.0000   1.0000   1.0000   1.0000
     1.0000   1.0000   1.0000   1.0000   1.0000   1.0000   1.0000   1.0000
     1.0000   1.0000   1.0000   1.0000   1.0000   1.0000   1.0000   1.0000
     1.0000   1.0000   1.0000   1.0000   1.0000   1.0000   1.0000   1.0000
     1.0000   1.0000   1.0000   1.0000   1.0000   1.0000   1.0000   1.0000
     1.0000   1.0000   1.0000   1.0000   1.0000   1.0000   1.0000   1.0000
     1.0000   1.0000   1.0000   1.0000   1.0000   1.0000   1.0000   1.0000
     1.0000   1.0000   1.0000   1.0000   1.0000   1.0000   1.0000   1.0000
     1.0000   1.0000   1.0000   1.0000

          k = 0.0000 0.0000 0.0337 ( 15170 PWs)   bands (ev):

   -12.5758 -12.5155 -12.4620 -12.3385 -12.2833 -12.2200 -12.2091 -12.1888
   -12.1713 -12.1333 -12.1173 -12.0997  -1.1490  -1.1479  -1.1291  -1.1289
    -1.1284  -1.1212  -1.1175  -1.1172  -1.1153  -1.1077  -1.1050  -1.1048
    -1.0851  -1.0699  -1.0697  -1.0515  -1.0513  -1.0279  -1.0277  -1.0195
    -1.0135  -0.9805  -0.9385  -0.8999  -0.8996  -0.8967  -0.8056  -0.7672
    -0.7618  -0.7538  -0.7366  -0.7112  -0.6790  -0.6467  -0.6280  -0.5919
    -0.5918  -0.5863  -0.5700  -0.5699  -0.5522  -0.5521  -0.5180  -0.5180
    -0.5058  -0.5058  -0.5016  -0.4987  -0.4956  -0.4931  -0.4931  -0.4879
    -0.4859  -0.4791  -0.4715  -0.4677  -0.4529  -0.4279  -0.4231  -0.4213
     0.1771   0.4315   0.4555   0.4663   0.6425   0.7628   0.8090   0.9523
     1.2259   1.7731   2.1229   2.2263   2.3473   2.4985   2.5270   2.5919
     2.6288   2.8768   2.9190   2.9362   2.9748   3.0448   3.1874   3.2662
     3.2668   3.3495   3.3501   3.4224   3.4230   3.5486   3.5865   3.5871
     3.6579   3.6586   3.7387   3.7393

     occupation numbers 
     1.0000   1.0000   1.0000   1.0000   1.0000   1.0000   1.0000   1.0000
     1.0000   1.0000   1.0000   1.0000   1.0000   1.0000   1.0000   1.0000
     1.0000   1.0000   1.0000   1.0000   1.0000   1.0000   1.0000   1.0000
     1.0000   1.0000   1.0000   1.0000   1.0000   1.0000   1.0000   1.0000
     1.0000   1.0000   1.0000   1.0000   1.0000   1.0000   1.0000   1.0000
     1.0000   1.0000   1.0000   1.0000   1.0000   1.0000   1.0000   1.0000
     1.0000   1.0000   1.0000   1.0000   1.0000   1.0000   1.0000   1.0000
     1.0000   1.0000   1.0000   1.0000   1.0000   1.0000   1.0000   1.0000
     1.0000   1.0000   1.0000   1.0000   1.0000   1.0000   1.0000   1.0000
     1.0000   1.0000   1.0000   1.0000   1.0000   1.0000   1.0000   1.0000
     1.0000   1.0000   1.0000   1.0000   1.0000   1.0000   1.0000   1.0000
     1.0000   1.0000   1.0000   1.0000   1.0000   1.0000   1.0000   1.0000
     1.0000   1.0000   1.0000   1.0000   1.0000   1.0000   1.0000   1.0000
     1.0000   1.0000   1.0000   1.0000

          k = 0.0000 0.0000 0.0675 ( 15128 PWs)   bands (ev):

   -12.5679 -12.5373 -12.4318 -12.3691 -12.2605 -12.2284 -12.2064 -12.1961
   -12.1617 -12.1424 -12.1109 -12.1020  -1.1430  -1.1424  -1.1320  -1.1277
    -1.1275  -1.1218  -1.1216  -1.1185  -1.1108  -1.1106  -1.1037  -1.0971
    -1.0970  -1.0793  -1.0791  -1.0542  -1.0432  -1.0431  -1.0312  -1.0310
    -0.9834  -0.9750  -0.9541  -0.9197  -0.8773  -0.8295  -0.8212  -0.7657
    -0.7594  -0.7436  -0.7248  -0.7178  -0.6956  -0.6549  -0.6347  -0.6264
    -0.5890  -0.5889  -0.5775  -0.5774  -0.5429  -0.5429  -0.5254  -0.5254
    -0.5012  -0.5006  -0.5006  -0.4999  -0.4947  -0.4947  -0.4935  -0.4887
    -0.4877  -0.4797  -0.4756  -0.4695  -0.4446  -0.4318  -0.4220  -0.4213
     0.2872   0.4291   0.4455   0.4985   0.5879   0.6160   0.8229   0.9227
     1.4441   1.8423   1.8933   2.0795   2.3675   2.4444   2.6637   2.7009
     2.8316   2.8481   2.8733   2.9000   2.9589   3.0962   3.1686   3.2772
     3.2778   3.3173   3.3195   3.3202   3.4630   3.4636   3.5463   3.5469
     3.6871   3.6877   3.7280   3.7287

     occupation numbers 
     1.0000   1.0000   1.0000   1.0000   1.0000   1.0000   1.0000   1.0000
     1.0000   1.0000   1.0000   1.0000   1.0000   1.0000   1.0000   1.0000
     1.0000   1.0000   1.0000   1.0000   1.0000   1.0000   1.0000   1.0000
     1.0000   1.0000   1.0000   1.0000   1.0000   1.0000   1.0000   1.0000
     1.0000   1.0000   1.0000   1.0000   1.0000   1.0000   1.0000   1.0000
     1.0000   1.0000   1.0000   1.0000   1.0000   1.0000   1.0000   1.0000
     1.0000   1.0000   1.0000   1.0000   1.0000   1.0000   1.0000   1.0000
     1.0000   1.0000   1.0000   1.0000   1.0000   1.0000   1.0000   1.0000
     1.0000   1.0000   1.0000   1.0000   1.0000   1.0000   1.0000   1.0000
     1.0000   1.0000   1.0000   1.0000   1.0000   1.0000   1.0000   1.0000
     1.0000   1.0000   1.0000   1.0000   1.0000   1.0000   1.0000   1.0000
     1.0000   1.0000   1.0000   1.0000   1.0000   1.0000   1.0000   1.0000
     1.0000   1.0000   1.0000   1.0000   1.0000   1.0000   1.0000   1.0000
     1.0000   1.0000   1.0000   1.0000

          k = 0.0000 0.0000-0.1012 ( 15150 PWs)   bands (ev):

   -12.5550 -12.5549 -12.4006 -12.4005 -12.2421 -12.2420 -12.2020 -12.2020
   -12.1520 -12.1520 -12.1058 -12.1057  -1.1373  -1.1372  -1.1298  -1.1298
    -1.1254  -1.1253  -1.1252  -1.1251  -1.1147  -1.1147  -1.0884  -1.0884
    -1.0882  -1.0882  -1.0837  -1.0837  -1.0365  -1.0364  -1.0363  -1.0363
    -0.9664  -0.9663  -0.9490  -0.9490  -0.8537  -0.8537  -0.7634  -0.7633
    -0.7385  -0.7384  -0.7288  -0.7287  -0.7111  -0.7111  -0.6279  -0.6279
    -0.5842  -0.5842  -0.5842  -0.5841  -0.5338  -0.5338  -0.5338  -0.5338
    -0.5007  -0.5007  -0.4972  -0.4972  -0.4972  -0.4972  -0.4913  -0.4913
    -0.4854  -0.4853  -0.4723  -0.4723  -0.4374  -0.4374  -0.4216  -0.4215
     0.4349   0.4350   0.4390   0.4391   0.5394   0.5394   0.8778   0.8779
     1.6669   1.6669   1.9480   1.9480   2.4002   2.4003   2.7747   2.7748
     2.7811   2.7811   2.9306   2.9306   3.0742   3.0742   3.1379   3.1380
     3.2951   3.2952   3.2957   3.2958   3.5047   3.5047   3.5054   3.5054
     3.7106   3.7107   3.7113   3.7114

     occupation numbers 
     1.0000   1.0000   1.0000   1.0000   1.0000   1.0000   1.0000   1.0000
     1.0000   1.0000   1.0000   1.0000   1.0000   1.0000   1.0000   1.0000
     1.0000   1.0000   1.0000   1.0000   1.0000   1.0000   1.0000   1.0000
     1.0000   1.0000   1.0000   1.0000   1.0000   1.0000   1.0000   1.0000
     1.0000   1.0000   1.0000   1.0000   1.0000   1.0000   1.0000   1.0000
     1.0000   1.0000   1.0000   1.0000   1.0000   1.0000   1.0000   1.0000
     1.0000   1.0000   1.0000   1.0000   1.0000   1.0000   1.0000   1.0000
     1.0000   1.0000   1.0000   1.0000   1.0000   1.0000   1.0000   1.0000
     1.0000   1.0000   1.0000   1.0000   1.0000   1.0000   1.0000   1.0000
     1.0000   1.0000   1.0000   1.0000   1.0000   1.0000   1.0000   1.0000
     1.0000   1.0000   1.0000   1.0000   1.0000   1.0000   1.0000   1.0000
     1.0000   1.0000   1.0000   1.0000   1.0000   1.0000   1.0000   1.0000
     1.0000   1.0000   1.0000   1.0000   1.0000   1.0000   1.0000   1.0000
     1.0000   1.0000   1.0000   1.0000

          k = 0.0000 0.0962 0.0000 ( 15200 PWs)   bands (ev):

   -12.5571 -12.4713 -12.4713 -12.2962 -12.2962 -12.2425 -12.2068 -12.2053
   -12.2053 -12.1340 -12.1340 -12.1000  -1.1538  -1.1538  -1.1436  -1.1436
    -1.1400  -1.1320  -1.1156  -1.0962  -1.0961  -1.0912  -1.0856  -1.0856
    -1.0633  -1.0633  -1.0622  -1.0622  -1.0428  -1.0427  -1.0217  -1.0077
    -0.9870  -0.9475  -0.9475  -0.9388  -0.9293  -0.9293  -0.8008  -0.8008
    -0.7620  -0.7619  -0.7461  -0.7314  -0.7266  -0.7266  -0.6844  -0.6012
    -0.5939  -0.5938  -0.5646  -0.5646  -0.5623  -0.5622  -0.5564  -0.5172
    -0.5110  -0.5110  -0.5102  -0.5102  -0.5098  -0.5098  -0.5061  -0.5061
    -0.4913  -0.4881  -0.4881  -0.4704  -0.4459  -0.4207  -0.4207  -0.3598
     0.1831   0.5807   0.5807   0.5902   0.8521   0.8521   1.0304   1.0359
     1.0359   1.7062   2.2848   2.2848   2.3286   2.3286   2.4039   2.6170
     2.6171   2.9816   3.0108   3.0108   3.0297   3.0297   3.0400   3.2004
     3.2049   3.2049   3.2056   3.2328   3.3292   3.3292   3.5028   3.5028
     3.5834   3.5834   3.6622   3.7088

     occupation numbers 
     1.0000   1.0000   1.0000   1.0000   1.0000   1.0000   1.0000   1.0000
     1.0000   1.0000   1.0000   1.0000   1.0000   1.0000   1.0000   1.0000
     1.0000   1.0000   1.0000   1.0000   1.0000   1.0000   1.0000   1.0000
     1.0000   1.0000   1.0000   1.0000   1.0000   1.0000   1.0000   1.0000
     1.0000   1.0000   1.0000   1.0000   1.0000   1.0000   1.0000   1.0000
     1.0000   1.0000   1.0000   1.0000   1.0000   1.0000   1.0000   1.0000
     1.0000   1.0000   1.0000   1.0000   1.0000   1.0000   1.0000   1.0000
     1.0000   1.0000   1.0000   1.0000   1.0000   1.0000   1.0000   1.0000
     1.0000   1.0000   1.0000   1.0000   1.0000   1.0000   1.0000   1.0000
     1.0000   1.0000   1.0000   1.0000   1.0000   1.0000   1.0000   1.0000
     1.0000   1.0000   1.0000   1.0000   1.0000   1.0000   1.0000   1.0000
     1.0000   1.0000   1.0000   1.0000   1.0000   1.0000   1.0000   1.0000
     1.0000   1.0000   1.0000   1.0000   1.0000   1.0000   1.0000   1.0000
     1.0000   1.0000   1.0000   1.0000

          k = 0.0000 0.0962 0.0337 ( 15193 PWs)   bands (ev):

   -12.5545 -12.4959 -12.4440 -12.3242 -12.2708 -12.2414 -12.2159 -12.2096
   -12.1938 -12.1450 -12.1242 -12.1010  -1.1523  -1.1515  -1.1448  -1.1403
    -1.1389  -1.1333  -1.1150  -1.1022  -1.0917  -1.0912  -1.0895  -1.0890
    -1.0855  -1.0699  -1.0526  -1.0507  -1.0333  -1.0333  -1.0230  -1.0088
    -0.9943  -0.9855  -0.9463  -0.9434  -0.9100  -0.8873  -0.8222  -0.7811
    -0.7614  -0.7603  -0.7471  -0.7369  -0.7336  -0.7157  -0.6856  -0.6138
    -0.5985  -0.5928  -0.5743  -0.5709  -0.5552  -0.5544  -0.5531  -0.5236
    -0.5180  -0.5172  -0.5147  -0.5121  -0.5070  -0.5049  -0.4981  -0.4959
    -0.4924  -0.4917  -0.4838  -0.4711  -0.4549  -0.4357  -0.4059  -0.3622
     0.2237   0.5627   0.5846   0.6090   0.7961   0.8383   0.9066   1.0283
     1.2399   1.7269   2.0772   2.1696   2.4104   2.4869   2.4884   2.5568
     2.6832   2.9586   2.9653   2.9878   3.0352   3.0385   3.0878   3.1639
     3.1692   3.2043   3.2266   3.2510   3.2925   3.3697   3.4549   3.5436
     3.5464   3.6194   3.6564   3.7050

     occupation numbers 
     1.0000   1.0000   1.0000   1.0000   1.0000   1.0000   1.0000   1.0000
     1.0000   1.0000   1.0000   1.0000   1.0000   1.0000   1.0000   1.0000
     1.0000   1.0000   1.0000   1.0000   1.0000   1.0000   1.0000   1.0000
     1.0000   1.0000   1.0000   1.0000   1.0000   1.0000   1.0000   1.0000
     1.0000   1.0000   1.0000   1.0000   1.0000   1.0000   1.0000   1.0000
     1.0000   1.0000   1.0000   1.0000   1.0000   1.0000   1.0000   1.0000
     1.0000   1.0000   1.0000   1.0000   1.0000   1.0000   1.0000   1.0000
     1.0000   1.0000   1.0000   1.0000   1.0000   1.0000   1.0000   1.0000
     1.0000   1.0000   1.0000   1.0000   1.0000   1.0000   1.0000   1.0000
     1.0000   1.0000   1.0000   1.0000   1.0000   1.0000   1.0000   1.0000
     1.0000   1.0000   1.0000   1.0000   1.0000   1.0000   1.0000   1.0000
     1.0000   1.0000   1.0000   1.0000   1.0000   1.0000   1.0000   1.0000
     1.0000   1.0000   1.0000   1.0000   1.0000   1.0000   1.0000   1.0000
     1.0000   1.0000   1.0000   1.0000

          k = 0.0000 0.0962 0.0675 ( 15202 PWs)   bands (ev):

   -12.5468 -12.5171 -12.4147 -12.3539 -12.2488 -12.2380 -12.2250 -12.2177
   -12.1816 -12.1568 -12.1158 -12.1040  -1.1470  -1.1457  -1.1439  -1.1411
    -1.1367  -1.1298  -1.1150  -1.1134  -1.1071  -1.0992  -1.0924  -1.0920
    -1.0810  -1.0632  -1.0624  -1.0407  -1.0274  -1.0267  -1.0249  -1.0122
    -1.0038  -0.9805  -0.9607  -0.9567  -0.8891  -0.8444  -0.8164  -0.7641
    -0.7586  -0.7571  -0.7496  -0.7460  -0.7399  -0.7053  -0.6895  -0.6664
    -0.5955  -0.5898  -0.5829  -0.5786  -0.5516  -0.5439  -0.5438  -0.5354
    -0.5259  -0.5238  -0.5165  -0.5141  -0.5037  -0.5001  -0.4964  -0.4934
    -0.4905  -0.4810  -0.4797  -0.4730  -0.4704  -0.4508  -0.3917  -0.3688
     0.3304   0.5561   0.5718   0.6464   0.6506   0.7417   0.9555   1.0180
     1.4477   1.7890   1.8676   2.0196   2.4299   2.5044   2.6360   2.6843
     2.7532   2.8772   2.8964   3.0009   3.0039   3.0368   3.1062   3.1296
     3.1379   3.2083   3.2160   3.2608   3.3007   3.4042   3.4127   3.5010
     3.5845   3.6404   3.6503   3.6937

     occupation numbers 
     1.0000   1.0000   1.0000   1.0000   1.0000   1.0000   1.0000   1.0000
     1.0000   1.0000   1.0000   1.0000   1.0000   1.0000   1.0000   1.0000
     1.0000   1.0000   1.0000   1.0000   1.0000   1.0000   1.0000   1.0000
     1.0000   1.0000   1.0000   1.0000   1.0000   1.0000   1.0000   1.0000
     1.0000   1.0000   1.0000   1.0000   1.0000   1.0000   1.0000   1.0000
     1.0000   1.0000   1.0000   1.0000   1.0000   1.0000   1.0000   1.0000
     1.0000   1.0000   1.0000   1.0000   1.0000   1.0000   1.0000   1.0000
     1.0000   1.0000   1.0000   1.0000   1.0000   1.0000   1.0000   1.0000
     1.0000   1.0000   1.0000   1.0000   1.0000   1.0000   1.0000   1.0000
     1.0000   1.0000   1.0000   1.0000   1.0000   1.0000   1.0000   1.0000
     1.0000   1.0000   1.0000   1.0000   1.0000   1.0000   1.0000   1.0000
     1.0000   1.0000   1.0000   1.0000   1.0000   1.0000   1.0000   1.0000
     1.0000   1.0000   1.0000   1.0000   1.0000   1.0000   1.0000   1.0000
     1.0000   1.0000   1.0000   1.0000

          k = 0.0000 0.0962-0.1012 ( 15194 PWs)   bands (ev):

   -12.5343 -12.5342 -12.3844 -12.3843 -12.2325 -12.2324 -12.2309 -12.2309
   -12.1692 -12.1691 -12.1090 -12.1090  -1.1424  -1.1424  -1.1416  -1.1415
    -1.1333  -1.1333  -1.1159  -1.1159  -1.1109  -1.1108  -1.0929  -1.0928
    -1.0720  -1.0720  -1.0491  -1.0491  -1.0326  -1.0326  -1.0176  -1.0176
    -0.9775  -0.9775  -0.9722  -0.9721  -0.8670  -0.8670  -0.7533  -0.7533
    -0.7532  -0.7532  -0.7502  -0.7501  -0.7395  -0.7395  -0.6963  -0.6962
    -0.5901  -0.5900  -0.5850  -0.5850  -0.5449  -0.5449  -0.5346  -0.5346
    -0.5337  -0.5337  -0.5156  -0.5155  -0.5002  -0.5002  -0.4961  -0.4960
    -0.4820  -0.4819  -0.4760  -0.4759  -0.4660  -0.4660  -0.3791  -0.3790
     0.4782   0.4782   0.5601   0.5601   0.6911   0.6911   0.9939   0.9939
     1.6574   1.6574   1.8891   1.8892   2.4616   2.4617   2.7682   2.7682
     2.8250   2.8250   2.8640   2.8640   3.0232   3.0233   3.1052   3.1053
     3.1784   3.1785   3.2350   3.2350   3.3522   3.3523   3.4569   3.4569
     3.6161   3.6162   3.6753   3.6753

     occupation numbers 
     1.0000   1.0000   1.0000   1.0000   1.0000   1.0000   1.0000   1.0000
     1.0000   1.0000   1.0000   1.0000   1.0000   1.0000   1.0000   1.0000
     1.0000   1.0000   1.0000   1.0000   1.0000   1.0000   1.0000   1.0000
     1.0000   1.0000   1.0000   1.0000   1.0000   1.0000   1.0000   1.0000
     1.0000   1.0000   1.0000   1.0000   1.0000   1.0000   1.0000   1.0000
     1.0000   1.0000   1.0000   1.0000   1.0000   1.0000   1.0000   1.0000
     1.0000   1.0000   1.0000   1.0000   1.0000   1.0000   1.0000   1.0000
     1.0000   1.0000   1.0000   1.0000   1.0000   1.0000   1.0000   1.0000
     1.0000   1.0000   1.0000   1.0000   1.0000   1.0000   1.0000   1.0000
     1.0000   1.0000   1.0000   1.0000   1.0000   1.0000   1.0000   1.0000
     1.0000   1.0000   1.0000   1.0000   1.0000   1.0000   1.0000   1.0000
     1.0000   1.0000   1.0000   1.0000   1.0000   1.0000   1.0000   1.0000
     1.0000   1.0000   1.0000   1.0000   1.0000   1.0000   1.0000   1.0000
     1.0000   1.0000   1.0000   1.0000

          k = 0.0000 0.1925 0.0000 ( 15228 PWs)   bands (ev):

   -12.4974 -12.4190 -12.4190 -12.3193 -12.2672 -12.2671 -12.2599 -12.2599
   -12.1793 -12.1645 -12.1645 -12.1142  -1.1637  -1.1637  -1.1634  -1.1634
    -1.1562  -1.1476  -1.0847  -1.0846  -1.0800  -1.0800  -1.0800  -1.0624
    -1.0554  -1.0554  -1.0229  -1.0229  -1.0043  -1.0024  -0.9955  -0.9934
    -0.9934  -0.9572  -0.9572  -0.9546  -0.9140  -0.9140  -0.8518  -0.8518
    -0.8476  -0.8476  -0.8257  -0.8058  -0.8058  -0.7937  -0.6860  -0.6289
    -0.6192  -0.5990  -0.5926  -0.5713  -0.5713  -0.5623  -0.5623  -0.5565
    -0.5565  -0.5509  -0.5350  -0.5350  -0.5100  -0.5100  -0.4989  -0.4989
    -0.4915  -0.4915  -0.4879  -0.4772  -0.4439  -0.4439  -0.3911  -0.3478
     0.3298   0.7340   0.8742   0.8743   1.0821   1.0821   1.2037   1.2037
     1.2439   1.8272   2.0417   2.0417   2.2825   2.2825   2.4300   2.5743
     2.7006   2.7693   2.7693   2.8041   2.8041   3.0313   3.0896   3.0896
     3.1499   3.1499   3.1787   3.1788   3.2067   3.3038   3.3038   3.3378
     3.4694   3.4694   3.5715   3.6130

     occupation numbers 
     1.0000   1.0000   1.0000   1.0000   1.0000   1.0000   1.0000   1.0000
     1.0000   1.0000   1.0000   1.0000   1.0000   1.0000   1.0000   1.0000
     1.0000   1.0000   1.0000   1.0000   1.0000   1.0000   1.0000   1.0000
     1.0000   1.0000   1.0000   1.0000   1.0000   1.0000   1.0000   1.0000
     1.0000   1.0000   1.0000   1.0000   1.0000   1.0000   1.0000   1.0000
     1.0000   1.0000   1.0000   1.0000   1.0000   1.0000   1.0000   1.0000
     1.0000   1.0000   1.0000   1.0000   1.0000   1.0000   1.0000   1.0000
     1.0000   1.0000   1.0000   1.0000   1.0000   1.0000   1.0000   1.0000
     1.0000   1.0000   1.0000   1.0000   1.0000   1.0000   1.0000   1.0000
     1.0000   1.0000   1.0000   1.0000   1.0000   1.0000   1.0000   1.0000
     1.0000   1.0000   1.0000   1.0000   1.0000   1.0000   1.0000   1.0000
     1.0000   1.0000   1.0000   1.0000   1.0000   1.0000   1.0000   1.0000
     1.0000   1.0000   1.0000   1.0000   1.0000   1.0000   1.0000   1.0000
     1.0000   1.0000   1.0000   1.0000

          k = 0.0000 0.1925 0.0337 ( 15251 PWs)   bands (ev):

   -12.4950 -12.4415 -12.3940 -12.3177 -12.2852 -12.2820 -12.2508 -12.2369
   -12.1818 -12.1806 -12.1501 -12.1157  -1.1645  -1.1625  -1.1608  -1.1594
    -1.1568  -1.1486  -1.1025  -1.1002  -1.0793  -1.0748  -1.0630  -1.0628
    -1.0583  -1.0468  -1.0212  -1.0194  -1.0048  -1.0045  -1.0031  -0.9968
    -0.9828  -0.9711  -0.9558  -0.9539  -0.9416  -0.8695  -0.8620  -0.8505
    -0.8432  -0.8356  -0.8267  -0.8258  -0.7956  -0.7796  -0.6891  -0.6423
    -0.6171  -0.6001  -0.5916  -0.5840  -0.5729  -0.5706  -0.5580  -0.5534
    -0.5505  -0.5397  -0.5388  -0.5298  -0.5176  -0.5051  -0.5043  -0.5033
    -0.4931  -0.4885  -0.4785  -0.4782  -0.4633  -0.4244  -0.4020  -0.3530
     0.3646   0.7377   0.8320   0.9103   0.9224   1.1491   1.2493   1.2531
     1.2549   1.8332   1.9011   2.1321   2.1688   2.4253   2.4431   2.5802
     2.6938   2.7140   2.7447   2.8301   2.8758   3.0021   3.0358   3.0903
     3.1368   3.1507   3.2036   3.2078   3.2199   3.2250   3.3321   3.3802
     3.4238   3.5105   3.5635   3.6087

     occupation numbers 
     1.0000   1.0000   1.0000   1.0000   1.0000   1.0000   1.0000   1.0000
     1.0000   1.0000   1.0000   1.0000   1.0000   1.0000   1.0000   1.0000
     1.0000   1.0000   1.0000   1.0000   1.0000   1.0000   1.0000   1.0000
     1.0000   1.0000   1.0000   1.0000   1.0000   1.0000   1.0000   1.0000
     1.0000   1.0000   1.0000   1.0000   1.0000   1.0000   1.0000   1.0000
     1.0000   1.0000   1.0000   1.0000   1.0000   1.0000   1.0000   1.0000
     1.0000   1.0000   1.0000   1.0000   1.0000   1.0000   1.0000   1.0000
     1.0000   1.0000   1.0000   1.0000   1.0000   1.0000   1.0000   1.0000
     1.0000   1.0000   1.0000   1.0000   1.0000   1.0000   1.0000   1.0000
     1.0000   1.0000   1.0000   1.0000   1.0000   1.0000   1.0000   1.0000
     1.0000   1.0000   1.0000   1.0000   1.0000   1.0000   1.0000   1.0000
     1.0000   1.0000   1.0000   1.0000   1.0000   1.0000   1.0000   1.0000
     1.0000   1.0000   1.0000   1.0000   1.0000   1.0000   1.0000   1.0000
     1.0000   1.0000   1.0000   1.0000

          k = 0.0000 0.1925 0.0675 ( 15243 PWs)   bands (ev):

   -12.4880 -12.4608 -12.3674 -12.3130 -12.3121 -12.2948 -12.2334 -12.2171
   -12.1978 -12.1891 -12.1377 -12.1202  -1.1631  -1.1591  -1.1584  -1.1535
    -1.1511  -1.1503  -1.1235  -1.1188  -1.0772  -1.0695  -1.0689  -1.0644
    -1.0391  -1.0372  -1.0158  -1.0140  -1.0129  -1.0120  -1.0004  -0.9989
    -0.9828  -0.9821  -0.9734  -0.9595  -0.9245  -0.8879  -0.8508  -0.8394
    -0.8381  -0.8292  -0.8214  -0.8010  -0.8008  -0.7498  -0.7000  -0.6802
    -0.6123  -0.6005  -0.5954  -0.5887  -0.5867  -0.5780  -0.5491  -0.5442
    -0.5441  -0.5437  -0.5259  -0.5240  -0.5204  -0.5172  -0.5116  -0.4979
    -0.4903  -0.4879  -0.4824  -0.4802  -0.4643  -0.4250  -0.4045  -0.3663
     0.4580   0.7439   0.7492   0.7966   0.9755   1.0908   1.2732   1.2792
     1.4254   1.7502   1.8570   2.0043   2.2768   2.4054   2.5980   2.6034
     2.6661   2.6812   2.7017   2.8892   2.8946   2.9565   3.0267   3.0492
     3.1005   3.1319   3.1874   3.2089   3.2500   3.2742   3.3152   3.3751
     3.4464   3.5394   3.5460   3.5958

     occupation numbers 
     1.0000   1.0000   1.0000   1.0000   1.0000   1.0000   1.0000   1.0000
     1.0000   1.0000   1.0000   1.0000   1.0000   1.0000   1.0000   1.0000
     1.0000   1.0000   1.0000   1.0000   1.0000   1.0000   1.0000   1.0000
     1.0000   1.0000   1.0000   1.0000   1.0000   1.0000   1.0000   1.0000
     1.0000   1.0000   1.0000   1.0000   1.0000   1.0000   1.0000   1.0000
     1.0000   1.0000   1.0000   1.0000   1.0000   1.0000   1.0000   1.0000
     1.0000   1.0000   1.0000   1.0000   1.0000   1.0000   1.0000   1.0000
     1.0000   1.0000   1.0000   1.0000   1.0000   1.0000   1.0000   1.0000
     1.0000   1.0000   1.0000   1.0000   1.0000   1.0000   1.0000   1.0000
     1.0000   1.0000   1.0000   1.0000   1.0000   1.0000   1.0000   1.0000
     1.0000   1.0000   1.0000   1.0000   1.0000   1.0000   1.0000   1.0000
     1.0000   1.0000   1.0000   1.0000   1.0000   1.0000   1.0000   1.0000
     1.0000   1.0000   1.0000   1.0000   1.0000   1.0000   1.0000   1.0000
     1.0000   1.0000   1.0000   1.0000

          k = 0.0000 0.1925-0.1012 ( 15230 PWs)   bands (ev):

   -12.4765 -12.4764 -12.3398 -12.3398 -12.3053 -12.3052 -12.2156 -12.2155
   -12.2010 -12.2009 -12.1277 -12.1276  -1.1608  -1.1607  -1.1550  -1.1549
    -1.1409  -1.1409  -1.1365  -1.1365  -1.0738  -1.0737  -1.0665  -1.0665
    -1.0268  -1.0268  -1.0236  -1.0235  -1.0061  -1.0060  -1.0013  -1.0013
    -0.9921  -0.9921  -0.9655  -0.9654  -0.9064  -0.9064  -0.8474  -0.8474
    -0.8333  -0.8332  -0.8097  -0.8096  -0.7367  -0.7367  -0.7213  -0.7213
    -0.6050  -0.6049  -0.5964  -0.5964  -0.5842  -0.5841  -0.5468  -0.5467
    -0.5349  -0.5349  -0.5305  -0.5305  -0.5178  -0.5178  -0.5014  -0.5014
    -0.4936  -0.4935  -0.4834  -0.4834  -0.4470  -0.4470  -0.3846  -0.3845
     0.5897   0.5898   0.7688   0.7689   1.0322   1.0322   1.2866   1.2867
     1.5911   1.5911   1.9112   1.9112   2.3578   2.3578   2.6269   2.6270
     2.6801   2.6802   2.7545   2.7545   2.9608   2.9608   3.0429   3.0429
     3.0710   3.0710   3.2045   3.2046   3.2875   3.2876   3.3247   3.3247
     3.5000   3.5001   3.5746   3.5747

     occupation numbers 
     1.0000   1.0000   1.0000   1.0000   1.0000   1.0000   1.0000   1.0000
     1.0000   1.0000   1.0000   1.0000   1.0000   1.0000   1.0000   1.0000
     1.0000   1.0000   1.0000   1.0000   1.0000   1.0000   1.0000   1.0000
     1.0000   1.0000   1.0000   1.0000   1.0000   1.0000   1.0000   1.0000
     1.0000   1.0000   1.0000   1.0000   1.0000   1.0000   1.0000   1.0000
     1.0000   1.0000   1.0000   1.0000   1.0000   1.0000   1.0000   1.0000
     1.0000   1.0000   1.0000   1.0000   1.0000   1.0000   1.0000   1.0000
     1.0000   1.0000   1.0000   1.0000   1.0000   1.0000   1.0000   1.0000
     1.0000   1.0000   1.0000   1.0000   1.0000   1.0000   1.0000   1.0000
     1.0000   1.0000   1.0000   1.0000   1.0000   1.0000   1.0000   1.0000
     1.0000   1.0000   1.0000   1.0000   1.0000   1.0000   1.0000   1.0000
     1.0000   1.0000   1.0000   1.0000   1.0000   1.0000   1.0000   1.0000
     1.0000   1.0000   1.0000   1.0000   1.0000   1.0000   1.0000   1.0000
     1.0000   1.0000   1.0000   1.0000

          k = 0.0000-0.2887 0.0000 ( 15234 PWs)   bands (ev):

   -12.4119 -12.4119 -12.3451 -12.3451 -12.3451 -12.3450 -12.2112 -12.2111
   -12.2111 -12.2111 -12.1442 -12.1441  -1.1708  -1.1708  -1.1707  -1.1707
    -1.1612  -1.1612  -1.0879  -1.0879  -1.0879  -1.0879  -1.0376  -1.0376
    -1.0375  -1.0375  -1.0031  -1.0031  -1.0031  -1.0031  -0.9489  -0.9489
    -0.9489  -0.9489  -0.9279  -0.9279  -0.9232  -0.9232  -0.9232  -0.9232
    -0.8767  -0.8767  -0.8653  -0.8653  -0.8653  -0.8653  -0.6499  -0.6499
    -0.6284  -0.6284  -0.5798  -0.5798  -0.5732  -0.5732  -0.5732  -0.5732
    -0.5547  -0.5547  -0.5547  -0.5547  -0.5067  -0.5067  -0.5067  -0.5067
    -0.4834  -0.4834  -0.4696  -0.4696  -0.4696  -0.4696  -0.3602  -0.3602
     0.5528   0.5528   1.0692   1.0692   1.0693   1.0693   1.6398   1.6398
     1.6398   1.6398   1.7791   1.7792   2.2132   2.2132   2.4304   2.4304
     2.4304   2.4304   2.8032   2.8032   2.9745   2.9745   2.9745   2.9745
     3.1750   3.1750   3.1750   3.1750   3.3111   3.3111   3.3111   3.3112
     3.4176   3.4176   3.4776   3.4776

     occupation numbers 
     1.0000   1.0000   1.0000   1.0000   1.0000   1.0000   1.0000   1.0000
     1.0000   1.0000   1.0000   1.0000   1.0000   1.0000   1.0000   1.0000
     1.0000   1.0000   1.0000   1.0000   1.0000   1.0000   1.0000   1.0000
     1.0000   1.0000   1.0000   1.0000   1.0000   1.0000   1.0000   1.0000
     1.0000   1.0000   1.0000   1.0000   1.0000   1.0000   1.0000   1.0000
     1.0000   1.0000   1.0000   1.0000   1.0000   1.0000   1.0000   1.0000
     1.0000   1.0000   1.0000   1.0000   1.0000   1.0000   1.0000   1.0000
     1.0000   1.0000   1.0000   1.0000   1.0000   1.0000   1.0000   1.0000
     1.0000   1.0000   1.0000   1.0000   1.0000   1.0000   1.0000   1.0000
     1.0000   1.0000   1.0000   1.0000   1.0000   1.0000   1.0000   1.0000
     1.0000   1.0000   1.0000   1.0000   1.0000   1.0000   1.0000   1.0000
     1.0000   1.0000   1.0000   1.0000   1.0000   1.0000   1.0000   1.0000
     1.0000   1.0000   1.0000   1.0000   1.0000   1.0000   1.0000   1.0000
     1.0000   1.0000   1.0000   1.0000

          k = 0.0000-0.2887 0.0337 ( 15264 PWs)   bands (ev):

   -12.4099 -12.4098 -12.3642 -12.3641 -12.3239 -12.3239 -12.2323 -12.2323
   -12.1920 -12.1920 -12.1462 -12.1462  -1.1713  -1.1713  -1.1667  -1.1667
    -1.1619  -1.1619  -1.1070  -1.1070  -1.0717  -1.0717  -1.0390  -1.0390
    -1.0366  -1.0366  -1.0134  -1.0133  -0.9916  -0.9916  -0.9490  -0.9490
    -0.9458  -0.9458  -0.9370  -0.9370  -0.9289  -0.9289  -0.9105  -0.9105
    -0.8977  -0.8977  -0.8783  -0.8783  -0.8231  -0.8231  -0.6569  -0.6569
    -0.6291  -0.6291  -0.5895  -0.5895  -0.5790  -0.5790  -0.5619  -0.5619
    -0.5560  -0.5560  -0.5471  -0.5471  -0.5142  -0.5142  -0.5000  -0.5000
    -0.4868  -0.4868  -0.4841  -0.4841  -0.4519  -0.4519  -0.3685  -0.3685
     0.5765   0.5766   0.9566   0.9566   1.1781   1.1781   1.5613   1.5613
     1.7057   1.7058   1.7812   1.7812   2.2111   2.2111   2.3305   2.3305
     2.5506   2.5506   2.8084   2.8084   2.9258   2.9258   3.0281   3.0281
     3.0698   3.0698   3.2583   3.2583   3.2611   3.2611   3.3587   3.3588
     3.4133   3.4134   3.4725   3.4726

     occupation numbers 
     1.0000   1.0000   1.0000   1.0000   1.0000   1.0000   1.0000   1.0000
     1.0000   1.0000   1.0000   1.0000   1.0000   1.0000   1.0000   1.0000
     1.0000   1.0000   1.0000   1.0000   1.0000   1.0000   1.0000   1.0000
     1.0000   1.0000   1.0000   1.0000   1.0000   1.0000   1.0000   1.0000
     1.0000   1.0000   1.0000   1.0000   1.0000   1.0000   1.0000   1.0000
     1.0000   1.0000   1.0000   1.0000   1.0000   1.0000   1.0000   1.0000
     1.0000   1.0000   1.0000   1.0000   1.0000   1.0000   1.0000   1.0000
     1.0000   1.0000   1.0000   1.0000   1.0000   1.0000   1.0000   1.0000
     1.0000   1.0000   1.0000   1.0000   1.0000   1.0000   1.0000   1.0000
     1.0000   1.0000   1.0000   1.0000   1.0000   1.0000   1.0000   1.0000
     1.0000   1.0000   1.0000   1.0000   1.0000   1.0000   1.0000   1.0000
     1.0000   1.0000   1.0000   1.0000   1.0000   1.0000   1.0000   1.0000
     1.0000   1.0000   1.0000   1.0000   1.0000   1.0000   1.0000   1.0000
     1.0000   1.0000   1.0000   1.0000

          k = 0.0000-0.2887 0.0675 ( 15272 PWs)   bands (ev):

   -12.4038 -12.4038 -12.3807 -12.3806 -12.3014 -12.3014 -12.2549 -12.2548
   -12.1755 -12.1755 -12.1522 -12.1522  -1.1695  -1.1695  -1.1638  -1.1638
    -1.1581  -1.1580  -1.1268  -1.1268  -1.0592  -1.0592  -1.0431  -1.0431
    -1.0336  -1.0336  -1.0219  -1.0219  -0.9789  -0.9789  -0.9512  -0.9512
    -0.9450  -0.9450  -0.9412  -0.9412  -0.9319  -0.9319  -0.9207  -0.9207
    -0.8992  -0.8992  -0.8827  -0.8827  -0.7740  -0.7740  -0.6823  -0.6823
    -0.6255  -0.6255  -0.6041  -0.6041  -0.5767  -0.5767  -0.5680  -0.5680
    -0.5389  -0.5389  -0.5386  -0.5386  -0.5222  -0.5222  -0.5039  -0.5039
    -0.4943  -0.4943  -0.4862  -0.4862  -0.4328  -0.4328  -0.3884  -0.3884
     0.6417   0.6418   0.8432   0.8432   1.2821   1.2821   1.4742   1.4742
     1.7533   1.7533   1.7840   1.7840   2.2095   2.2095   2.2592   2.2592
     2.6825   2.6825   2.8240   2.8240   2.8836   2.8837   2.9490   2.9490
     3.0851   3.0851   3.2019   3.2019   3.3263   3.3263   3.3991   3.3991
     3.3998   3.3998   3.4576   3.4576

     occupation numbers 
     1.0000   1.0000   1.0000   1.0000   1.0000   1.0000   1.0000   1.0000
     1.0000   1.0000   1.0000   1.0000   1.0000   1.0000   1.0000   1.0000
     1.0000   1.0000   1.0000   1.0000   1.0000   1.0000   1.0000   1.0000
     1.0000   1.0000   1.0000   1.0000   1.0000   1.0000   1.0000   1.0000
     1.0000   1.0000   1.0000   1.0000   1.0000   1.0000   1.0000   1.0000
     1.0000   1.0000   1.0000   1.0000   1.0000   1.0000   1.0000   1.0000
     1.0000   1.0000   1.0000   1.0000   1.0000   1.0000   1.0000   1.0000
     1.0000   1.0000   1.0000   1.0000   1.0000   1.0000   1.0000   1.0000
     1.0000   1.0000   1.0000   1.0000   1.0000   1.0000   1.0000   1.0000
     1.0000   1.0000   1.0000   1.0000   1.0000   1.0000   1.0000   1.0000
     1.0000   1.0000   1.0000   1.0000   1.0000   1.0000   1.0000   1.0000
     1.0000   1.0000   1.0000   1.0000   1.0000   1.0000   1.0000   1.0000
     1.0000   1.0000   1.0000   1.0000   1.0000   1.0000   1.0000   1.0000
     1.0000   1.0000   1.0000   1.0000

          k = 0.0000-0.2887-0.1012 ( 15268 PWs)   bands (ev):

   -12.3940 -12.3940 -12.3940 -12.3939 -12.2782 -12.2781 -12.2781 -12.2781
   -12.1622 -12.1621 -12.1621 -12.1620  -1.1666  -1.1666  -1.1665  -1.1665
    -1.1445  -1.1445  -1.1445  -1.1445  -1.0498  -1.0498  -1.0497  -1.0497
    -1.0287  -1.0287  -1.0287  -1.0287  -0.9652  -0.9652  -0.9652  -0.9652
    -0.9361  -0.9361  -0.9361  -0.9361  -0.9359  -0.9359  -0.9359  -0.9359
    -0.8897  -0.8897  -0.8897  -0.8897  -0.7243  -0.7243  -0.7243  -0.7243
    -0.6165  -0.6165  -0.6165  -0.6165  -0.5731  -0.5731  -0.5730  -0.5730
    -0.5305  -0.5305  -0.5305  -0.5305  -0.5213  -0.5213  -0.5213  -0.5213
    -0.4897  -0.4897  -0.4896  -0.4896  -0.4116  -0.4116  -0.4115  -0.4115
     0.7350   0.7350   0.7350   0.7350   1.3808   1.3808   1.3809   1.3809
     1.7782   1.7782   1.7783   1.7783   2.2208   2.2208   2.2209   2.2209
     2.8177   2.8177   2.8178   2.8178   2.8493   2.8493   2.8494   2.8494
     3.1436   3.1436   3.1436   3.1436   3.3714   3.3714   3.3715   3.3715
     3.4330   3.4330   3.4331   3.4331

     occupation numbers 
     1.0000   1.0000   1.0000   1.0000   1.0000   1.0000   1.0000   1.0000
     1.0000   1.0000   1.0000   1.0000   1.0000   1.0000   1.0000   1.0000
     1.0000   1.0000   1.0000   1.0000   1.0000   1.0000   1.0000   1.0000
     1.0000   1.0000   1.0000   1.0000   1.0000   1.0000   1.0000   1.0000
     1.0000   1.0000   1.0000   1.0000   1.0000   1.0000   1.0000   1.0000
     1.0000   1.0000   1.0000   1.0000   1.0000   1.0000   1.0000   1.0000
     1.0000   1.0000   1.0000   1.0000   1.0000   1.0000   1.0000   1.0000
     1.0000   1.0000   1.0000   1.0000   1.0000   1.0000   1.0000   1.0000
     1.0000   1.0000   1.0000   1.0000   1.0000   1.0000   1.0000   1.0000
     1.0000   1.0000   1.0000   1.0000   1.0000   1.0000   1.0000   1.0000
     1.0000   1.0000   1.0000   1.0000   1.0000   1.0000   1.0000   1.0000
     1.0000   1.0000   1.0000   1.0000   1.0000   1.0000   1.0000   1.0000
     1.0000   1.0000   1.0000   1.0000   1.0000   1.0000   1.0000   1.0000
     1.0000   1.0000   1.0000   1.0000

          k = 0.1667 0.0962 0.0000 ( 15201 PWs)   bands (ev):

[...]
     xc contribution           =    -654.59609467 Ry
     ewald contribution        =   -1191.33677795 Ry

     convergence has been achieved in  36 iterations

     Forces acting on atoms (cartesian axes, Ry/au):

     atom    1 type  1   force =     0.00000000    0.00000344   -0.00151043
     atom    2 type  1   force =     0.00000000   -0.00000684   -0.00150389
     atom    3 type  2   force =     0.00000000    0.00000829    0.00151370
     atom    4 type  2   force =     0.00000000   -0.00000862    0.00151593
     atom    5 type  1   force =     0.00000000    0.00000432   -0.00150550
     atom    6 type  1   force =     0.00000000   -0.00000512   -0.00151039
     atom    7 type  2   force =     0.00000000    0.00000921    0.00149883
     atom    8 type  2   force =     0.00000000   -0.00000759    0.00150673
     atom    9 type  1   force =     0.00000000    0.00000470   -0.00150457
     atom   10 type  1   force =     0.00000000   -0.00000679   -0.00150332
     atom   11 type  2   force =     0.00000000    0.00000896    0.00150343
     atom   12 type  2   force =     0.00000000   -0.00000639    0.00149915
     atom   13 type  1   force =     0.00000000    0.00000753   -0.00151046
     atom   14 type  1   force =     0.00000000   -0.00000487   -0.00150415
     atom   15 type  2   force =     0.00000000    0.00000731    0.00151425
     atom   16 type  2   force =     0.00000000   -0.00000753    0.00151540
     atom   17 type  1   force =     0.00000000    0.00000705   -0.00150749
     atom   18 type  1   force =     0.00000000   -0.00000601   -0.00150970
     atom   19 type  2   force =     0.00000000    0.00000643    0.00150006
     atom   20 type  2   force =     0.00000000   -0.00000740    0.00150764
     atom   21 type  1   force =     0.00000000    0.00000685   -0.00150532
     atom   22 type  1   force =     0.00000000   -0.00000384   -0.00150215
     atom   23 type  2   force =     0.00000000    0.00000617    0.00150287
     atom   24 type  2   force =     0.00000000   -0.00000924    0.00149939
     The non-local contrib.  to forces
     atom    1 type  1   force =     0.00000000   -0.00001408    0.04427445
     atom    2 type  1   force =     0.00000000    0.00000947    0.04429205
     atom    3 type  2   force =     0.00000000    0.00023039    0.05789159
     atom    4 type  2   force =     0.00000000   -0.00022996    0.05789073
     atom    5 type  1   force =     0.00000000   -0.00001343    0.04428369
     atom    6 type  1   force =     0.00000000    0.00001158    0.04427467
     atom    7 type  2   force =     0.00000000    0.00022913    0.05788713
     atom    8 type  2   force =     0.00000000   -0.00022921    0.05788782
     atom    9 type  1   force =     0.00000000   -0.00001385    0.04429518
     atom   10 type  1   force =     0.00000000    0.00000621    0.04429460
     atom   11 type  2   force =     0.00000000    0.00023029    0.05788774
     atom   12 type  2   force =     0.00000000   -0.00022908    0.05788498
     atom   13 type  1   force =     0.00000000   -0.00000804    0.04427378
     atom   14 type  1   force =     0.00000000    0.00001332    0.04429198
     atom   15 type  2   force =     0.00000000    0.00022900    0.05789225
     atom   16 type  2   force =     0.00000000   -0.00022812    0.05789254
     atom   17 type  1   force =     0.00000000   -0.00000897    0.04427778
     atom   18 type  1   force =     0.00000000    0.00001095    0.04427548
     atom   19 type  2   force =     0.00000000    0.00022944    0.05788624
     atom   20 type  2   force =     0.00000000   -0.00022935    0.05788940
     atom   21 type  1   force =     0.00000000   -0.00000823    0.04429524
     atom   22 type  1   force =     0.00000000    0.00001624    0.04429554
     atom   23 type  2   force =     0.00000000    0.00022836    0.05788756
     atom   24 type  2   force =     0.00000000   -0.00022971    0.05788510
     The ionic contribution  to forces
     atom    1 type  1   force =    -0.00000000    0.00000001    0.39869710
     atom    2 type  1   force =     0.00000000    0.00000001    0.39869713
     atom    3 type  2   force =    -0.00000000    0.00000000   -0.39869711
     atom    4 type  2   force =     0.00000000    0.00000000   -0.39869712
     atom    5 type  1   force =    -0.00000000    0.00000001    0.39869713
     atom    6 type  1   force =     0.00000000    0.00000001    0.39869710
     atom    7 type  2   force =    -0.00000000    0.00000000   -0.39869712
     atom    8 type  2   force =     0.00000000    0.00000000   -0.39869710
     atom    9 type  1   force =    -0.00000000    0.00000001    0.39869710
     atom   10 type  1   force =     0.00000000    0.00000001    0.39869710
     atom   11 type  2   force =    -0.00000000    0.00000000   -0.39869710
     atom   12 type  2   force =     0.00000000    0.00000000   -0.39869711
     atom   13 type  1   force =     0.00000000   -0.00000001    0.39869710
     atom   14 type  1   force =    -0.00000000   -0.00000000    0.39869713
     atom   15 type  2   force =     0.00000000   -0.00000001   -0.39869711
     atom   16 type  2   force =    -0.00000000   -0.00000000   -0.39869712
     atom   17 type  1   force =     0.00000000   -0.00000001    0.39869713
     atom   18 type  1   force =    -0.00000000   -0.00000000    0.39869710
     atom   19 type  2   force =     0.00000000   -0.00000001   -0.39869712
     atom   20 type  2   force =    -0.00000000   -0.00000000   -0.39869710
     atom   21 type  1   force =     0.00000000   -0.00000001    0.39869710
     atom   22 type  1   force =    -0.00000000   -0.00000000    0.39869710
     atom   23 type  2   force =     0.00000000   -0.00000001   -0.39869710
     atom   24 type  2   force =    -0.00000000   -0.00000000   -0.39869711
     The local contribution  to forces
     atom    1 type  1   force =    -0.00000009    0.00001858   -0.44187246
     atom    2 type  1   force =    -0.00000000   -0.00000533   -0.44190053
     atom    3 type  2   force =    -0.00000002   -0.00021948    0.34286415
     atom    4 type  2   force =     0.00000000    0.00021967    0.34286619
     atom    5 type  1   force =    -0.00000009    0.00001539   -0.44188965
     atom    6 type  1   force =     0.00000000   -0.00001104   -0.44187432
     atom    7 type  2   force =    -0.00000002   -0.00021539    0.34283845
     atom    8 type  2   force =    -0.00000000    0.00021920    0.34285385
     atom    9 type  1   force =    -0.00000009    0.00001518   -0.44190690
     atom   10 type  1   force =     0.00000000    0.00000160   -0.44190595
     atom   11 type  2   force =    -0.00000002   -0.00021721    0.34284584
     atom   12 type  2   force =    -0.00000000    0.00022201    0.34284223
     atom   13 type  1   force =     0.00000000    0.00000015   -0.44187035
     atom   14 type  1   force =    -0.00000000   -0.00001405   -0.44190548
     atom   15 type  2   force =     0.00000000   -0.00021957    0.34286384
     atom   16 type  2   force =     0.00000000    0.00021727    0.34286228
     atom   17 type  1   force =     0.00000000    0.00000386   -0.44187683
     atom   18 type  1   force =     0.00000000   -0.00000816   -0.44187639
     atom   19 type  2   force =     0.00000000   -0.00022225    0.34284086
     atom   20 type  2   force =     0.00000000    0.00022002    0.34285358
     atom   21 type  1   force =     0.00000000    0.00000325   -0.44190578
     atom   22 type  1   force =    -0.00000000   -0.00002066   -0.44190999
     atom   23 type  2   force =     0.00000000   -0.00022113    0.34284492
     atom   24 type  2   force =    -0.00000000    0.00021644    0.34284323
     The core correction contribution to forces
     atom    1 type  1   force =    -0.00000001    0.00000674   -0.00259469
     atom    2 type  1   force =     0.00000000   -0.00000723   -0.00259459
     atom    3 type  2   force =     0.00000000   -0.00000260   -0.00053799
     atom    4 type  2   force =    -0.00000000    0.00000260   -0.00053797
     atom    5 type  1   force =    -0.00000001    0.00000695   -0.00259430
     atom    6 type  1   force =     0.00000000   -0.00000706   -0.00259444
     atom    7 type  2   force =     0.00000000   -0.00000258   -0.00053796
     atom    8 type  2   force =    -0.00000000    0.00000258   -0.00053795
     atom    9 type  1   force =    -0.00000001    0.00000701   -0.00259413
     atom   10 type  1   force =     0.00000000   -0.00000754   -0.00259417
     atom   11 type  2   force =     0.00000000   -0.00000260   -0.00053795
     atom   12 type  2   force =    -0.00000000    0.00000259   -0.00053791
     atom   13 type  1   force =     0.00000000    0.00000755   -0.00259469
     atom   14 type  1   force =    -0.00000000   -0.00000709   -0.00259409
     atom   15 type  2   force =     0.00000000   -0.00000258   -0.00053800
     atom   16 type  2   force =    -0.00000000    0.00000257   -0.00053800
     atom   17 type  1   force =     0.00000000    0.00000735   -0.00259474
     atom   18 type  1   force =    -0.00000000   -0.00000726   -0.00259431
     atom   19 type  2   force =     0.00000000   -0.00000259   -0.00053794
     atom   20 type  2   force =    -0.00000000    0.00000259   -0.00053797
     atom   21 type  1   force =     0.00000000    0.00000727   -0.00259425
     atom   22 type  1   force =    -0.00000000   -0.00000678   -0.00259389
     atom   23 type  2   force =     0.00000000   -0.00000258   -0.00053794
     atom   24 type  2   force =    -0.00000000    0.00000259   -0.00053791
     The Hubbard contrib.    to forces
     atom    1 type  1   force =     0.00000000    0.00000000    0.00000000
     atom    2 type  1   force =     0.00000000    0.00000000    0.00000000
     atom    3 type  2   force =     0.00000000    0.00000000    0.00000000
     atom    4 type  2   force =     0.00000000    0.00000000    0.00000000
     atom    5 type  1   force =     0.00000000    0.00000000    0.00000000
     atom    6 type  1   force =     0.00000000    0.00000000    0.00000000
     atom    7 type  2   force =     0.00000000    0.00000000    0.00000000
     atom    8 type  2   force =     0.00000000    0.00000000    0.00000000
     atom    9 type  1   force =     0.00000000    0.00000000    0.00000000
     atom   10 type  1   force =     0.00000000    0.00000000    0.00000000
     atom   11 type  2   force =     0.00000000    0.00000000    0.00000000
     atom   12 type  2   force =     0.00000000    0.00000000    0.00000000
     atom   13 type  1   force =     0.00000000    0.00000000    0.00000000
     atom   14 type  1   force =     0.00000000    0.00000000    0.00000000
     atom   15 type  2   force =     0.00000000    0.00000000    0.00000000
     atom   16 type  2   force =     0.00000000    0.00000000    0.00000000
     atom   17 type  1   force =     0.00000000    0.00000000    0.00000000
     atom   18 type  1   force =     0.00000000    0.00000000    0.00000000
     atom   19 type  2   force =     0.00000000    0.00000000    0.00000000
     atom   20 type  2   force =     0.00000000    0.00000000    0.00000000
     atom   21 type  1   force =     0.00000000    0.00000000    0.00000000
     atom   22 type  1   force =     0.00000000    0.00000000    0.00000000
     atom   23 type  2   force =     0.00000000    0.00000000    0.00000000
     atom   24 type  2   force =     0.00000000    0.00000000    0.00000000
     The SCF correction term to forces
     atom    1 type  1   force =    -0.00000000   -0.00000771   -0.00001639
     atom    2 type  1   force =     0.00000000   -0.00000366    0.00000048
     atom    3 type  2   force =    -0.00000000    0.00000007   -0.00000849
     atom    4 type  2   force =     0.00000000   -0.00000084   -0.00000747
     atom    5 type  1   force =    -0.00000000   -0.00000450   -0.00000393
     atom    6 type  1   force =     0.00000000    0.00000149   -0.00001496
     atom    7 type  2   force =    -0.00000000   -0.00000186    0.00000676
     atom    8 type  2   force =     0.00000000   -0.00000008   -0.00000145
     atom    9 type  1   force =    -0.00000000   -0.00000356    0.00000262
     atom   10 type  1   force =     0.00000000   -0.00000697    0.00000353
     atom   11 type  2   force =    -0.00000000   -0.00000143    0.00000333
     atom   12 type  2   force =     0.00000000   -0.00000183    0.00000539
     atom   13 type  1   force =     0.00000000    0.00000798   -0.00001787
     atom   14 type  1   force =    -0.00000000    0.00000304    0.00000474
     atom   15 type  2   force =     0.00000000    0.00000055   -0.00000830
     atom   16 type  2   force =    -0.00000000    0.00000085   -0.00000586
     atom   17 type  1   force =     0.00000000    0.00000490   -0.00001240
     atom   18 type  1   force =    -0.00000000   -0.00000145   -0.00001314
     atom   19 type  2   force =     0.00000000    0.00000193    0.00000646
     atom   20 type  2   force =    -0.00000000   -0.00000056   -0.00000183
     atom   21 type  1   force =     0.00000000    0.00000466    0.00000080
     atom   22 type  1   force =    -0.00000000    0.00000746    0.00000753
     atom   23 type  2   force =     0.00000000    0.00000161    0.00000387
     atom   24 type  2   force =    -0.00000000    0.00000153    0.00000452

     Total force =     0.007380     Total SCF correction =     0.000045

     init_run     :     29.56s CPU     30.38s WALL (       1 calls)
     electrons    :   2515.19s CPU   2563.76s WALL (       1 calls)
     forces       :     15.20s CPU     15.29s WALL (       1 calls)

     Called by init_run:
     wfcinit      :     20.27s CPU     20.92s WALL (       1 calls)
     wfcinit:atom :      0.10s CPU      0.11s WALL (      10 calls)
     wfcinit:wfcr :     19.29s CPU     19.92s WALL (      10 calls)
     potinit      :      3.24s CPU      3.31s WALL (       1 calls)
     hinit0       :      4.34s CPU      4.37s WALL (       1 calls)

     Called by electrons:
     c_bands      :   2246.34s CPU   2286.93s WALL (      36 calls)
     sum_band     :    231.46s CPU    238.74s WALL (      36 calls)
     v_of_rho     :     20.44s CPU     20.87s WALL (      37 calls)
     v_h          :      1.08s CPU      1.13s WALL (      37 calls)
     v_xc         :     19.84s CPU     20.23s WALL (      38 calls)
     newd         :     13.49s CPU     13.57s WALL (      37 calls)
     mix_rho      :      2.24s CPU      2.35s WALL (      36 calls)

     Called by c_bands:
     init_us_2    :      9.26s CPU      9.33s WALL (     740 calls)
     init_us_2:cp :      9.25s CPU      9.32s WALL (     740 calls)
     cegterg      :   2087.96s CPU   2128.26s WALL (     360 calls)

     Called by sum_band:
     sum_band:wei :      0.07s CPU      0.07s WALL (      36 calls)
     sum_band:loo :    211.27s CPU    218.00s WALL (      36 calls)
     sum_band:buf :      1.36s CPU      1.45s WALL (     360 calls)
     sum_band:ini :      4.28s CPU      4.29s WALL (     360 calls)
     sum_band:cal :     58.61s CPU     58.84s WALL (     360 calls)
     sum_band:bec :      0.30s CPU      0.31s WALL (     360 calls)
     addusdens    :     10.55s CPU     10.68s WALL (      36 calls)
     addusd:skk   :      0.10s CPU      0.10s WALL (      72 calls)
     addusd:dgemm :      1.65s CPU      1.65s WALL (      72 calls)
     addusd:qvan2 :      3.15s CPU      3.16s WALL (      72 calls)

     Called by *egterg:
     cdiaghg      :    132.53s CPU    135.28s WALL (    2928 calls)
     cegterg:over :    206.38s CPU    206.74s WALL (    2568 calls)
     cegterg:upda :    117.64s CPU    117.93s WALL (    2568 calls)
     cegterg:last :    217.63s CPU    218.11s WALL (     960 calls)
     cdiaghg:chol :      8.03s CPU      8.06s WALL (    2928 calls)
     cdiaghg:inve :      2.05s CPU      2.06s WALL (    2928 calls)
     cdiaghg:para :     24.62s CPU     26.87s WALL (    5856 calls)
     h_psi        :   1203.61s CPU   1240.29s WALL (    2938 calls)
     s_psi        :    166.46s CPU    166.54s WALL (    2938 calls)
     g_psi        :      3.91s CPU      3.92s WALL (    2568 calls)

     Called by h_psi:
     h_psi:calbec :    201.93s CPU    202.79s WALL (    2938 calls)
     vloc_psi     :    828.39s CPU    864.11s WALL (    2938 calls)
     add_vuspsi   :    169.50s CPU    169.57s WALL (    2938 calls)

     General routines
     calbec       :    267.39s CPU    268.51s WALL (    3338 calls)
     fft          :     15.98s CPU     16.54s WALL (     490 calls)
     ffts         :      0.83s CPU      0.87s WALL (      73 calls)
     fftw         :    872.34s CPU    913.06s WALL (  274494 calls)
     interpolate  :      1.51s CPU      1.56s WALL (      37 calls)

     Parallel routines

     PWSCF        :  42m41.93s CPU  43m31.46s WALL


   This run was terminated on:  11:51:42   1Sep2025            

=------------------------------------------------------------------------------=
   JOB DONE.
=------------------------------------------------------------------------------=
Note: The following floating-point exceptions are signalling: IEEE_UNDERFLOW_FLAG IEEE_DENORMAL
Note: The following floating-point exceptions are signalling: IEEE_UNDERFLOW_FLAG IEEE_DENORMAL
Note: The following floating-point exceptions are signalling: IEEE_UNDERFLOW_FLAG IEEE_DENORMAL
Note: The following floating-point exceptions are signalling: IEEE_UNDERFLOW_FLAG IEEE_DENORMAL
Note: The following floating-point exceptions are signalling: IEEE_UNDERFLOW_FLAG IEEE_DENORMAL
Note: The following floating-point exceptions are signalling: IEEE_UNDERFLOW_FLAG IEEE_DENORMAL
Note: The following floating-point exceptions are signalling: IEEE_UNDERFLOW_FLAG IEEE_DENORMAL
Note: The following floating-point exceptions are signalling: IEEE_UNDERFLOW_FLAG IEEE_DENORMAL
Note: The following floating-point exceptions are signalling: IEEE_UNDERFLOW_FLAG IEEE_DENORMAL
Note: The following floating-point exceptions are signalling: IEEE_UNDERFLOW_FLAG IEEE_DENORMAL
Note: The following floating-point exceptions are signalling: IEEE_UNDERFLOW_FLAG IEEE_DENORMAL
Note: The following floating-point exceptions are signalling: IEEE_UNDERFLOW_FLAG IEEE_DENORMAL
Note: The following floating-point exceptions are signalling: IEEE_UNDERFLOW_FLAG IEEE_DENORMAL
Note: The following floating-point exceptions are signalling: IEEE_UNDERFLOW_FLAG IEEE_DENORMAL
Note: The following floating-point exceptions are signalling: IEEE_UNDERFLOW_FLAG IEEE_DENORMAL
Note: The following floating-point exceptions are signalling: IEEE_UNDERFLOW_FLAG IEEE_DENORMAL
Note: The following floating-point exceptions are signalling: IEEE_UNDERFLOW_FLAG IEEE_DENORMAL
Note: The following floating-point exceptions are signalling: IEEE_UNDERFLOW_FLAG IEEE_DENORMAL
Note: The following floating-point exceptions are signalling: IEEE_UNDERFLOW_FLAG IEEE_DENORMAL
Note: The following floating-point exceptions are signalling: IEEE_UNDERFLOW_FLAG IEEE_DENORMAL
Note: The following floating-point exceptions are signalling: IEEE_UNDERFLOW_FLAG IEEE_DENORMAL
Note: The following floating-point exceptions are signalling: IEEE_UNDERFLOW_FLAG IEEE_DENORMAL
Note: The following floating-point exceptions are signalling: IEEE_UNDERFLOW_FLAG IEEE_DENORMAL
Note: The following floating-point exceptions are signalling: IEEE_UNDERFLOW_FLAG IEEE_DENORMAL
Note: The following floating-point exceptions are signalling: IEEE_UNDERFLOW_FLAG IEEE_DENORMAL
Note: The following floating-point exceptions are signalling: IEEE_UNDERFLOW_FLAG IEEE_DENORMAL
Note: The following floating-point exceptions are signalling: IEEE_UNDERFLOW_FLAG IEEE_DENORMAL
Note: The following floating-point exceptions are signalling: IEEE_UNDERFLOW_FLAG IEEE_DENORMAL
Note: The following floating-point exceptions are signalling: IEEE_UNDERFLOW_FLAG IEEE_DENORMAL
Note: The following floating-point exceptions are signalling: IEEE_UNDERFLOW_FLAG IEEE_DENORMAL
Note: The following floating-point exceptions are signalling: IEEE_UNDERFLOW_FLAG IEEE_DENORMAL
Note: The following floating-point exceptions are signalling: IEEE_UNDERFLOW_FLAG IEEE_DENORMAL
