
     Program PWSCF v.7.0 starts on  1Sep2025 at 18: 0:47 

     This program is part of the open-source Quantum ESPRESSO suite
     for quantum simulation of materials; please cite
         "P. Giannozzi et al., J. Phys.:Condens. Matter 21 395502 (2009);
         "P. Giannozzi et al., J. Phys.:Condens. Matter 29 465901 (2017);
         "P. Giannozzi et al., J. Chem. Phys. 152 154105 (2020);
          URL http://www.quantum-espresso.org", 
     in publications or presentations arising from this work. More details at
     http://www.quantum-espresso.org/quote

     Parallel version (MPI & OpenMP), running on      32 processor cores
     Number of MPI processes:                32
     Threads/MPI process:                     1

     MPI processes distributed on     1 nodes
     K-points division:     npool     =       8
     R & G space division:  proc/nbgrp/npool/nimage =       4
     107961 MiB available memory on the printing compute node when the environment starts

     Reading input from /home/jvc/QEspresso7.2/ZnO_database/scripts/cell123.in/ZnO-3.60-1.74-123.in
Warning: card &CELL ignored
Warning: card / ignored
Warning: card &FCP ignored
Warning: card / ignored
Warning: card &RISM ignored
Warning: card / ignored

     Current dimensions of program PWSCF are:
     Max number of different atomic species (ntypx) = 10
     Max number of k-points (npk) =  40000
     Max angular momentum in pseudopotentials (lmaxx) =  4
     file Zn.upf: wavefunction(s)  3D renormalized
     Found identity + (  0.0000  0.0000  0.3333) symmetry
     This is a supercell, fractional translations are disabled
     Message from routine setup:
     using ibrav=0 with symmetry is DISCOURAGED, use correct ibrav instead

     Subspace diagonalization in iterative solution of the eigenvalue problem:
     one sub-group per band group will be used
     scalapack distributed-memory algorithm (size of sub-group:  2*  2 procs)


     Parallelization info
     --------------------
     sticks:   dense  smooth     PW     G-vecs:    dense   smooth      PW
     Min         638     319     97                96101    33995    5677
     Max         640     321     98                96104    34004    5684
     Sum        2557    1279    389               384411   135999   22725

     Using Slab Decomposition



     bravais-lattice index     =            0
     lattice parameter (alat)  =       6.7967  a.u.
     unit-cell volume          =    2844.5098 (a.u.)^3
     number of atoms/cell      =           24
     number of atomic types    =            2
     number of electrons       =       216.00
     number of Kohn-Sham states=          108
     kinetic-energy cutoff     =      50.0000  Ry
     charge density cutoff     =     400.0000  Ry
     scf convergence threshold =      1.0E-08
     mixing beta               =       0.3000
     number of iterations used =            8  plain     mixing
     Exchange-correlation= PBE
                           (   1   4   3   4   0   0   0)

     celldm(1)=   6.796739  celldm(2)=   0.000000  celldm(3)=   0.000000
     celldm(4)=   0.000000  celldm(5)=   0.000000  celldm(6)=   0.000000

     crystal axes: (cart. coord. in units of alat)
               a(1) = (   1.000000   0.000000   0.000000 )  
               a(2) = (  -1.000000   1.732051   0.000000 )  
               a(3) = (   0.000000   0.000000   5.230521 )  

     reciprocal axes: (cart. coord. in units 2 pi/alat)
               b(1) = (  1.000000  0.577350 -0.000000 )  
               b(2) = (  0.000000  0.577350  0.000000 )  
               b(3) = (  0.000000 -0.000000  0.191186 )  


     PseudoPot. # 1 for Zn read from file:
     /home/jvc/QEspresso7.2/ZnO_database/pseudos/Zn.upf
     MD5 check sum: 7f56cabf9682ed8c977c2f7d0c5985c5
     Pseudo is Ultrasoft + core correction, Zval = 12.0
     Generated using &quot;atomic&quot; code by A. Dal Corso  v.6.2.2
     Using radial grid of 1201 points,  6 beta functions with: 
                l(1) =   0
                l(2) =   0
                l(3) =   1
                l(4) =   1
                l(5) =   2
                l(6) =   2
     Q(r) pseudized with 0 coefficients 


     PseudoPot. # 2 for O  read from file:
     /home/jvc/QEspresso7.2/ZnO_database/pseudos/O.upf
     MD5 check sum: 91400c9766925bcf19f520983a725ff0
     Pseudo is Ultrasoft + core correction, Zval =  6.0
     Generated using &quot;atomic&quot; code by A. Dal Corso  v.6.3MaX
     Using radial grid of 1095 points,  4 beta functions with: 
                l(1) =   0
                l(2) =   0
                l(3) =   1
                l(4) =   1
     Q(r) pseudized with 0 coefficients 


     atomic species   valence    mass     pseudopotential
        Zn            12.00    65.38000     Zn( 1.00)
        O              6.00    15.99900     O ( 1.00)

      2 Sym. Ops. (no inversion) found


                                    s                        frac. trans.

      isym =  1     identity                                     

 cryst.   s( 1) = (     1          0          0      )
                  (     0          1          0      )
                  (     0          0          1      )

 cart.    s( 1) = (  1.0000000  0.0000000  0.0000000 )
                  (  0.0000000  1.0000000  0.0000000 )
                  (  0.0000000  0.0000000  1.0000000 )


      isym =  2     inv. 180 deg rotation - cart. axis [1,0,0]   

 cryst.   s( 2) = (    -1          0          0      )
                  (     2          1          0      )
                  (     0          0          1      )

 cart.    s( 2) = ( -1.0000000  0.0000000  0.0000000 )
                  (  0.0000000  1.0000000  0.0000000 )
                  (  0.0000000  0.0000000  1.0000000 )


   Cartesian axes

     site n.     atom                  positions (alat units)
         1           Zn  tau(   1) = (   0.5000000   0.2886751   0.8728582  )
         2           Zn  tau(   2) = (   0.0000000   0.5773503   0.0011047  )
         3           O   tau(   3) = (   0.5000000   0.2886751   1.5337220  )
         4           O   tau(   4) = (   0.0000000   0.5773503   0.6619685  )
         5           Zn  tau(   5) = (   0.5000000   0.2886751   2.6163652  )
         6           Zn  tau(   6) = (   0.0000000   0.5773503   1.7446117  )
         7           O   tau(   7) = (   0.5000000   0.2886751   3.2772290  )
         8           O   tau(   8) = (   0.0000000   0.5773503   2.4054755  )
         9           Zn  tau(   9) = (   0.5000000   0.2886751   4.3598722  )
        10           Zn  tau(  10) = (   0.0000000   0.5773503   3.4881187  )
        11           O   tau(  11) = (   0.5000000   0.2886751   5.0207361  )
        12           O   tau(  12) = (   0.0000000   0.5773503   4.1489825  )
        13           Zn  tau(  13) = (   0.0000000   1.1547005   0.8728582  )
        14           Zn  tau(  14) = (  -0.5000000   1.4433757   0.0011047  )
        15           O   tau(  15) = (   0.0000000   1.1547005   1.5337220  )
        16           O   tau(  16) = (  -0.5000000   1.4433757   0.6619685  )
        17           Zn  tau(  17) = (   0.0000000   1.1547005   2.6163652  )
        18           Zn  tau(  18) = (  -0.5000000   1.4433757   1.7446117  )
        19           O   tau(  19) = (   0.0000000   1.1547005   3.2772290  )
        20           O   tau(  20) = (  -0.5000000   1.4433757   2.4054755  )
        21           Zn  tau(  21) = (   0.0000000   1.1547005   4.3598722  )
        22           Zn  tau(  22) = (  -0.5000000   1.4433757   3.4881187  )
        23           O   tau(  23) = (   0.0000000   1.1547005   5.0207361  )
        24           O   tau(  24) = (  -0.5000000   1.4433757   4.1489825  )

   Crystallographic axes

     site n.     atom                  positions (cryst. coord.)
         1           Zn  tau(   1) = (  0.6666667  0.1666667  0.1668779  )
         2           Zn  tau(   2) = (  0.3333333  0.3333333  0.0002112  )
         3           O   tau(   3) = (  0.6666667  0.1666667  0.2932255  )
         4           O   tau(   4) = (  0.3333333  0.3333333  0.1265588  )
         5           Zn  tau(   5) = (  0.6666667  0.1666667  0.5002112  )
         6           Zn  tau(   6) = (  0.3333333  0.3333333  0.3335445  )
         7           O   tau(   7) = (  0.6666667  0.1666667  0.6265588  )
         8           O   tau(   8) = (  0.3333333  0.3333333  0.4598921  )
         9           Zn  tau(   9) = (  0.6666667  0.1666667  0.8335445  )
        10           Zn  tau(  10) = (  0.3333333  0.3333333  0.6668779  )
        11           O   tau(  11) = (  0.6666667  0.1666667  0.9598921  )
        12           O   tau(  12) = (  0.3333333  0.3333333  0.7932255  )
        13           Zn  tau(  13) = (  0.6666667  0.6666667  0.1668779  )
        14           Zn  tau(  14) = (  0.3333333  0.8333333  0.0002112  )
        15           O   tau(  15) = (  0.6666667  0.6666667  0.2932255  )
        16           O   tau(  16) = (  0.3333333  0.8333333  0.1265588  )
        17           Zn  tau(  17) = (  0.6666667  0.6666667  0.5002112  )
        18           Zn  tau(  18) = (  0.3333333  0.8333333  0.3335445  )
        19           O   tau(  19) = (  0.6666667  0.6666667  0.6265588  )
        20           O   tau(  20) = (  0.3333333  0.8333333  0.4598921  )
        21           Zn  tau(  21) = (  0.6666667  0.6666667  0.8335445  )
        22           Zn  tau(  22) = (  0.3333333  0.8333333  0.6668779  )
        23           O   tau(  23) = (  0.6666667  0.6666667  0.9598921  )
        24           O   tau(  24) = (  0.3333333  0.8333333  0.7932255  )

     number of k points=    80
                       cart. coord. in units 2pi/alat
        k(    1) = (   0.0000000   0.0000000   0.0000000), wk =   0.0092593
        k(    2) = (   0.0000000   0.0000000   0.0318643), wk =   0.0185185
        k(    3) = (   0.0000000   0.0000000   0.0637285), wk =   0.0185185
        k(    4) = (   0.0000000   0.0000000  -0.0955928), wk =   0.0092593
        k(    5) = (   0.0000000   0.0962250   0.0000000), wk =   0.0185185
        k(    6) = (   0.0000000   0.0962250   0.0318643), wk =   0.0185185
        k(    7) = (   0.0000000   0.0962250   0.0637285), wk =   0.0185185
        k(    8) = (   0.0000000   0.0962250  -0.0955928), wk =   0.0185185
        k(    9) = (   0.0000000   0.1924501   0.0000000), wk =   0.0185185
        k(   10) = (   0.0000000   0.1924501   0.0318643), wk =   0.0185185
        k(   11) = (   0.0000000   0.1924501   0.0637285), wk =   0.0185185
        k(   12) = (   0.0000000   0.1924501  -0.0955928), wk =   0.0185185
        k(   13) = (   0.0000000  -0.2886751   0.0000000), wk =   0.0092593
        k(   14) = (   0.0000000  -0.2886751   0.0318643), wk =   0.0185185
        k(   15) = (   0.0000000  -0.2886751   0.0637285), wk =   0.0185185
        k(   16) = (   0.0000000  -0.2886751  -0.0955928), wk =   0.0092593
        k(   17) = (   0.1666667   0.0962250   0.0000000), wk =   0.0370370
        k(   18) = (   0.1666667   0.0962250   0.0318643), wk =   0.0370370
        k(   19) = (   0.1666667   0.0962250   0.0637285), wk =   0.0370370
        k(   20) = (   0.1666667   0.0962250  -0.0955928), wk =   0.0370370
        k(   21) = (   0.1666667   0.1924501   0.0000000), wk =   0.0370370
        k(   22) = (   0.1666667   0.1924501   0.0318643), wk =   0.0370370
        k(   23) = (   0.1666667   0.1924501   0.0637285), wk =   0.0370370
        k(   24) = (   0.1666667   0.1924501  -0.0955928), wk =   0.0370370
        k(   25) = (   0.1666667   0.2886751   0.0000000), wk =   0.0185185
        k(   26) = (   0.1666667   0.2886751   0.0318643), wk =   0.0370370
        k(   27) = (   0.1666667   0.2886751   0.0637285), wk =   0.0370370
        k(   28) = (   0.1666667   0.2886751  -0.0955928), wk =   0.0185185
        k(   29) = (   0.1666667   0.0000000   0.0000000), wk =   0.0185185
        k(   30) = (   0.1666667   0.0000000   0.0318643), wk =   0.0370370
        k(   31) = (   0.1666667   0.0000000   0.0637285), wk =   0.0370370
        k(   32) = (   0.1666667   0.0000000  -0.0955928), wk =   0.0185185
        k(   33) = (   0.3333333   0.1924501   0.0000000), wk =   0.0370370
        k(   34) = (   0.3333333   0.1924501   0.0318643), wk =   0.0370370
        k(   35) = (   0.3333333   0.1924501   0.0637285), wk =   0.0370370
        k(   36) = (   0.3333333   0.1924501  -0.0955928), wk =   0.0370370
        k(   37) = (   0.3333333   0.2886751   0.0000000), wk =   0.0185185
        k(   38) = (   0.3333333   0.2886751   0.0318643), wk =   0.0370370
        k(   39) = (   0.3333333   0.2886751   0.0637285), wk =   0.0370370
        k(   40) = (   0.3333333   0.2886751  -0.0955928), wk =   0.0185185
        k(   41) = (   0.3333333  -0.0962250   0.0000000), wk =   0.0370370
        k(   42) = (   0.3333333  -0.0962250   0.0318643), wk =   0.0370370
        k(   43) = (   0.3333333  -0.0962250   0.0637285), wk =   0.0370370
        k(   44) = (   0.3333333  -0.0962250  -0.0955928), wk =   0.0370370
        k(   45) = (   0.3333333  -0.0000000   0.0000000), wk =   0.0185185
        k(   46) = (   0.3333333  -0.0000000   0.0318643), wk =   0.0370370
        k(   47) = (   0.3333333  -0.0000000   0.0637285), wk =   0.0370370
        k(   48) = (   0.3333333  -0.0000000  -0.0955928), wk =   0.0185185
        k(   49) = (  -0.5000000  -0.2886751   0.0000000), wk =   0.0092593
        k(   50) = (  -0.5000000  -0.2886751   0.0318643), wk =   0.0185185
        k(   51) = (  -0.5000000  -0.2886751   0.0637285), wk =   0.0185185
        k(   52) = (  -0.5000000  -0.2886751  -0.0955928), wk =   0.0092593
        k(   53) = (  -0.5000000  -0.1924501   0.0000000), wk =   0.0185185
        k(   54) = (  -0.5000000  -0.1924501   0.0318643), wk =   0.0185185
        k(   55) = (  -0.5000000  -0.1924501   0.0637285), wk =   0.0185185
        k(   56) = (  -0.5000000  -0.1924501  -0.0955928), wk =   0.0185185
        k(   57) = (  -0.5000000  -0.0962250   0.0000000), wk =   0.0185185
        k(   58) = (  -0.5000000  -0.0962250   0.0318643), wk =   0.0185185
        k(   59) = (  -0.5000000  -0.0962250   0.0637285), wk =   0.0185185
        k(   60) = (  -0.5000000  -0.0962250  -0.0955928), wk =   0.0185185
        k(   61) = (  -0.5000000  -0.5773503   0.0000000), wk =   0.0092593
        k(   62) = (  -0.5000000  -0.5773503   0.0318643), wk =   0.0185185
        k(   63) = (  -0.5000000  -0.5773503   0.0637285), wk =   0.0185185
        k(   64) = (  -0.5000000  -0.5773503  -0.0955928), wk =   0.0092593
        k(   65) = (   0.0000000   0.0962250  -0.0318643), wk =   0.0185185
        k(   66) = (   0.0000000   0.0962250  -0.0637285), wk =   0.0185185
        k(   67) = (   0.0000000   0.1924501  -0.0318643), wk =   0.0185185
        k(   68) = (   0.0000000   0.1924501  -0.0637285), wk =   0.0185185
        k(   69) = (  -0.1666667   0.0962250  -0.0318643), wk =   0.0370370
        k(   70) = (  -0.1666667   0.0962250  -0.0637285), wk =   0.0370370
        k(   71) = (  -0.1666667   0.1924501  -0.0318643), wk =   0.0370370
        k(   72) = (  -0.1666667   0.1924501  -0.0637285), wk =   0.0370370
        k(   73) = (  -0.3333333   0.1924501  -0.0318643), wk =   0.0370370
        k(   74) = (  -0.3333333   0.1924501  -0.0637285), wk =   0.0370370
        k(   75) = (  -0.3333333  -0.0962250  -0.0318643), wk =   0.0370370
        k(   76) = (  -0.3333333  -0.0962250  -0.0637285), wk =   0.0370370
        k(   77) = (   0.5000000  -0.1924501  -0.0318643), wk =   0.0185185
        k(   78) = (   0.5000000  -0.1924501  -0.0637285), wk =   0.0185185
        k(   79) = (   0.5000000  -0.0962250  -0.0318643), wk =   0.0185185
        k(   80) = (   0.5000000  -0.0962250  -0.0637285), wk =   0.0185185

                       cryst. coord.
        k(    1) = (   0.0000000   0.0000000   0.0000000), wk =   0.0092593
        k(    2) = (   0.0000000   0.0000000   0.1666667), wk =   0.0185185
        k(    3) = (   0.0000000   0.0000000   0.3333333), wk =   0.0185185
        k(    4) = (   0.0000000   0.0000000  -0.5000000), wk =   0.0092593
        k(    5) = (   0.0000000   0.1666667   0.0000000), wk =   0.0185185
        k(    6) = (   0.0000000   0.1666667   0.1666667), wk =   0.0185185
        k(    7) = (   0.0000000   0.1666667   0.3333333), wk =   0.0185185
        k(    8) = (   0.0000000   0.1666667  -0.5000000), wk =   0.0185185
        k(    9) = (   0.0000000   0.3333333   0.0000000), wk =   0.0185185
        k(   10) = (   0.0000000   0.3333333   0.1666667), wk =   0.0185185
        k(   11) = (   0.0000000   0.3333333   0.3333333), wk =   0.0185185
        k(   12) = (   0.0000000   0.3333333  -0.5000000), wk =   0.0185185
        k(   13) = (   0.0000000  -0.5000000   0.0000000), wk =   0.0092593
        k(   14) = (   0.0000000  -0.5000000   0.1666667), wk =   0.0185185
        k(   15) = (   0.0000000  -0.5000000   0.3333333), wk =   0.0185185
        k(   16) = (   0.0000000  -0.5000000  -0.5000000), wk =   0.0092593
        k(   17) = (   0.1666667   0.0000000   0.0000000), wk =   0.0370370
        k(   18) = (   0.1666667   0.0000000   0.1666667), wk =   0.0370370
        k(   19) = (   0.1666667   0.0000000   0.3333333), wk =   0.0370370
        k(   20) = (   0.1666667   0.0000000  -0.5000000), wk =   0.0370370
        k(   21) = (   0.1666667   0.1666667   0.0000000), wk =   0.0370370
        k(   22) = (   0.1666667   0.1666667   0.1666667), wk =   0.0370370
        k(   23) = (   0.1666667   0.1666667   0.3333333), wk =   0.0370370
        k(   24) = (   0.1666667   0.1666667  -0.5000000), wk =   0.0370370
        k(   25) = (   0.1666667   0.3333333   0.0000000), wk =   0.0185185
        k(   26) = (   0.1666667   0.3333333   0.1666667), wk =   0.0370370
        k(   27) = (   0.1666667   0.3333333   0.3333333), wk =   0.0370370
        k(   28) = (   0.1666667   0.3333333  -0.5000000), wk =   0.0185185
        k(   29) = (   0.1666667  -0.1666667   0.0000000), wk =   0.0185185
        k(   30) = (   0.1666667  -0.1666667   0.1666667), wk =   0.0370370
        k(   31) = (   0.1666667  -0.1666667   0.3333333), wk =   0.0370370
        k(   32) = (   0.1666667  -0.1666667  -0.5000000), wk =   0.0185185
        k(   33) = (   0.3333333   0.0000000   0.0000000), wk =   0.0370370
        k(   34) = (   0.3333333   0.0000000   0.1666667), wk =   0.0370370
        k(   35) = (   0.3333333   0.0000000   0.3333333), wk =   0.0370370
        k(   36) = (   0.3333333   0.0000000  -0.5000000), wk =   0.0370370
        k(   37) = (   0.3333333   0.1666667   0.0000000), wk =   0.0185185
        k(   38) = (   0.3333333   0.1666667   0.1666667), wk =   0.0370370
        k(   39) = (   0.3333333   0.1666667   0.3333333), wk =   0.0370370
        k(   40) = (   0.3333333   0.1666667  -0.5000000), wk =   0.0185185
        k(   41) = (   0.3333333  -0.5000000   0.0000000), wk =   0.0370370
        k(   42) = (   0.3333333  -0.5000000   0.1666667), wk =   0.0370370
        k(   43) = (   0.3333333  -0.5000000   0.3333333), wk =   0.0370370
        k(   44) = (   0.3333333  -0.5000000  -0.5000000), wk =   0.0370370
        k(   45) = (   0.3333333  -0.3333333   0.0000000), wk =   0.0185185
        k(   46) = (   0.3333333  -0.3333333   0.1666667), wk =   0.0370370
        k(   47) = (   0.3333333  -0.3333333   0.3333333), wk =   0.0370370
        k(   48) = (   0.3333333  -0.3333333  -0.5000000), wk =   0.0185185
        k(   49) = (  -0.5000000   0.0000000   0.0000000), wk =   0.0092593
        k(   50) = (  -0.5000000   0.0000000   0.1666667), wk =   0.0185185
        k(   51) = (  -0.5000000   0.0000000   0.3333333), wk =   0.0185185
        k(   52) = (  -0.5000000   0.0000000  -0.5000000), wk =   0.0092593
        k(   53) = (  -0.5000000   0.1666667   0.0000000), wk =   0.0185185
        k(   54) = (  -0.5000000   0.1666667   0.1666667), wk =   0.0185185
        k(   55) = (  -0.5000000   0.1666667   0.3333333), wk =   0.0185185
        k(   56) = (  -0.5000000   0.1666667  -0.5000000), wk =   0.0185185
        k(   57) = (  -0.5000000   0.3333333   0.0000000), wk =   0.0185185
        k(   58) = (  -0.5000000   0.3333333   0.1666667), wk =   0.0185185
        k(   59) = (  -0.5000000   0.3333333   0.3333333), wk =   0.0185185
        k(   60) = (  -0.5000000   0.3333333  -0.5000000), wk =   0.0185185
        k(   61) = (  -0.5000000  -0.5000000   0.0000000), wk =   0.0092593
        k(   62) = (  -0.5000000  -0.5000000   0.1666667), wk =   0.0185185
        k(   63) = (  -0.5000000  -0.5000000   0.3333333), wk =   0.0185185
        k(   64) = (  -0.5000000  -0.5000000  -0.5000000), wk =   0.0092593
        k(   65) = (   0.0000000   0.1666667  -0.1666667), wk =   0.0185185
        k(   66) = (   0.0000000   0.1666667  -0.3333333), wk =   0.0185185
        k(   67) = (   0.0000000   0.3333333  -0.1666667), wk =   0.0185185
        k(   68) = (   0.0000000   0.3333333  -0.3333333), wk =   0.0185185
        k(   69) = (  -0.1666667   0.3333333  -0.1666667), wk =   0.0370370
        k(   70) = (  -0.1666667   0.3333333  -0.3333333), wk =   0.0370370
        k(   71) = (  -0.1666667   0.5000000  -0.1666667), wk =   0.0370370
        k(   72) = (  -0.1666667   0.5000000  -0.3333333), wk =   0.0370370
        k(   73) = (  -0.3333333   0.6666667  -0.1666667), wk =   0.0370370
        k(   74) = (  -0.3333333   0.6666667  -0.3333333), wk =   0.0370370
        k(   75) = (  -0.3333333   0.1666667  -0.1666667), wk =   0.0370370
        k(   76) = (  -0.3333333   0.1666667  -0.3333333), wk =   0.0370370
        k(   77) = (   0.5000000  -0.8333333  -0.1666667), wk =   0.0185185
        k(   78) = (   0.5000000  -0.8333333  -0.3333333), wk =   0.0185185
        k(   79) = (   0.5000000  -0.6666667  -0.1666667), wk =   0.0185185
        k(   80) = (   0.5000000  -0.6666667  -0.3333333), wk =   0.0185185

     Dense  grid:   384411 G-vectors     FFT dimensions: (  45,  90, 240)

     Smooth grid:   135999 G-vectors     FFT dimensions: (  32,  64, 162)

     Dynamical RAM for                 wfc:       7.00 MB

     Dynamical RAM for     wfc (w. buffer):      76.95 MB

     Dynamical RAM for           str. fact:       2.93 MB

     Dynamical RAM for           local pot:       0.00 MB

     Dynamical RAM for          nlocal pot:      20.21 MB

     Dynamical RAM for                qrad:       3.21 MB

     Dynamical RAM for          rho,v,vnew:       9.96 MB

     Dynamical RAM for               rhoin:       3.32 MB

     Dynamical RAM for            rho*nmix:      23.46 MB

     Dynamical RAM for           G-vectors:       5.76 MB

     Dynamical RAM for          h,s,v(r/c):       0.53 MB

     Dynamical RAM for          <psi|beta>:       0.51 MB

     Dynamical RAM for                 psi:      13.99 MB

     Dynamical RAM for                hpsi:      13.99 MB

     Dynamical RAM for                spsi:      13.99 MB

     Dynamical RAM for      wfcinit/wfcrot:      20.77 MB

     Dynamical RAM for           addusdens:      37.57 MB

     Dynamical RAM for          addusforce:      41.10 MB

     Estimated static dynamical RAM per process >     136.01 MB

     Estimated max dynamical RAM per process >     202.50 MB

     Estimated total dynamical RAM >       5.69 GB

     Check: negative core charge=   -0.000003

     Initial potential from superposition of free atoms

     starting charge     215.9553, renormalised to     216.0000
     Starting wfcs are  156 randomized atomic wfcs

     total cpu time spent up to now is       22.5 secs

     per-process dynamical memory:   174.1 Mb

     Self-consistent Calculation

     iteration #  1     ecut=    50.00 Ry     beta= 0.30
     Davidson diagonalization with overlap

---- Real-time Memory Report at c_bands before calling an iterative solver
           196 MiB given to the printing process from OS
           170 MiB allocation reported by mallinfo(arena+hblkhd)
        102424 MiB available memory on the node where the printing process lives
------------------
     ethr =  1.00E-02,  avg # of iterations =  1.1

     total cpu time spent up to now is       50.7 secs

     total energy              =   -2167.61988709 Ry
     estimated scf accuracy    <       5.54683930 Ry

     iteration #  2     ecut=    50.00 Ry     beta= 0.30
     Davidson diagonalization with overlap

---- Real-time Memory Report at c_bands before calling an iterative solver
           229 MiB given to the printing process from OS
           202 MiB allocation reported by mallinfo(arena+hblkhd)
        101431 MiB available memory on the node where the printing process lives
------------------
     ethr =  2.57E-03,  avg # of iterations =  2.0

     total cpu time spent up to now is       84.1 secs

     total energy              =   -2168.37714709 Ry
     estimated scf accuracy    <       0.66357002 Ry

     iteration #  3     ecut=    50.00 Ry     beta= 0.30
     Davidson diagonalization with overlap

---- Real-time Memory Report at c_bands before calling an iterative solver
           233 MiB given to the printing process from OS
           206 MiB allocation reported by mallinfo(arena+hblkhd)
        101467 MiB available memory on the node where the printing process lives
------------------
     ethr =  3.07E-04,  avg # of iterations =  8.2

     total cpu time spent up to now is      144.7 secs

     total energy              =   -2168.29995616 Ry
     estimated scf accuracy    <       1.67121016 Ry

     iteration #  4     ecut=    50.00 Ry     beta= 0.30
     Davidson diagonalization with overlap

---- Real-time Memory Report at c_bands before calling an iterative solver
           234 MiB given to the printing process from OS
           215 MiB allocation reported by mallinfo(arena+hblkhd)
        101476 MiB available memory on the node where the printing process lives
------------------
     ethr =  3.07E-04,  avg # of iterations =  8.2

     total cpu time spent up to now is      217.8 secs

     total energy              =   -2169.47396514 Ry
     estimated scf accuracy    <       1.44399022 Ry

     iteration #  5     ecut=    50.00 Ry     beta= 0.30
     Davidson diagonalization with overlap

---- Real-time Memory Report at c_bands before calling an iterative solver
           236 MiB given to the printing process from OS
           215 MiB allocation reported by mallinfo(arena+hblkhd)
        101466 MiB available memory on the node where the printing process lives
------------------
     ethr =  3.07E-04,  avg # of iterations =  1.6

     total cpu time spent up to now is      247.2 secs

     total energy              =   -2168.88481075 Ry
     estimated scf accuracy    <       1.72884634 Ry

     iteration #  6     ecut=    50.00 Ry     beta= 0.30
     Davidson diagonalization with overlap

---- Real-time Memory Report at c_bands before calling an iterative solver
           237 MiB given to the printing process from OS
           215 MiB allocation reported by mallinfo(arena+hblkhd)
        101472 MiB available memory on the node where the printing process lives
------------------
     ethr =  3.07E-04,  avg # of iterations =  2.8

     total cpu time spent up to now is      281.4 secs

     total energy              =   -2168.67558593 Ry
     estimated scf accuracy    <       0.69457470 Ry

     iteration #  7     ecut=    50.00 Ry     beta= 0.30
     Davidson diagonalization with overlap

---- Real-time Memory Report at c_bands before calling an iterative solver
           238 MiB given to the printing process from OS
           215 MiB allocation reported by mallinfo(arena+hblkhd)
        101465 MiB available memory on the node where the printing process lives
------------------
     ethr =  3.07E-04,  avg # of iterations =  6.5

     total cpu time spent up to now is      330.3 secs

     total energy              =   -2168.97456266 Ry
     estimated scf accuracy    <       0.13005903 Ry

     iteration #  8     ecut=    50.00 Ry     beta= 0.30
     Davidson diagonalization with overlap

---- Real-time Memory Report at c_bands before calling an iterative solver
           239 MiB given to the printing process from OS
           215 MiB allocation reported by mallinfo(arena+hblkhd)
        101454 MiB available memory on the node where the printing process lives
------------------
     ethr =  6.02E-05,  avg # of iterations =  3.0

     total cpu time spent up to now is      364.2 secs

     total energy              =   -2169.00249256 Ry
     estimated scf accuracy    <       0.05271963 Ry

     iteration #  9     ecut=    50.00 Ry     beta= 0.30
     Davidson diagonalization with overlap

---- Real-time Memory Report at c_bands before calling an iterative solver
           240 MiB given to the printing process from OS
           215 MiB allocation reported by mallinfo(arena+hblkhd)
        101459 MiB available memory on the node where the printing process lives
------------------
     ethr =  2.44E-05,  avg # of iterations =  5.6

     total cpu time spent up to now is      399.3 secs

     total energy              =   -2168.99776048 Ry
     estimated scf accuracy    <       0.09408765 Ry

     iteration # 10     ecut=    50.00 Ry     beta= 0.30
     Davidson diagonalization with overlap

---- Real-time Memory Report at c_bands before calling an iterative solver
           241 MiB given to the printing process from OS
           215 MiB allocation reported by mallinfo(arena+hblkhd)
        101455 MiB available memory on the node where the printing process lives
------------------
     ethr =  2.44E-05,  avg # of iterations =  1.3

     total cpu time spent up to now is      428.1 secs

     total energy              =   -2168.99136267 Ry
     estimated scf accuracy    <       0.07445776 Ry

     iteration # 11     ecut=    50.00 Ry     beta= 0.30
     Davidson diagonalization with overlap

---- Real-time Memory Report at c_bands before calling an iterative solver
           242 MiB given to the printing process from OS
           215 MiB allocation reported by mallinfo(arena+hblkhd)
        101450 MiB available memory on the node where the printing process lives
------------------
     ethr =  2.44E-05,  avg # of iterations =  1.4

     total cpu time spent up to now is      457.5 secs

     total energy              =   -2168.98149971 Ry
     estimated scf accuracy    <       0.05335878 Ry

     iteration # 12     ecut=    50.00 Ry     beta= 0.30
     Davidson diagonalization with overlap

---- Real-time Memory Report at c_bands before calling an iterative solver
           242 MiB given to the printing process from OS
           215 MiB allocation reported by mallinfo(arena+hblkhd)
        101447 MiB available memory on the node where the printing process lives
------------------
     ethr =  2.44E-05,  avg # of iterations =  3.2

     total cpu time spent up to now is      492.4 secs

     total energy              =   -2168.97921915 Ry
     estimated scf accuracy    <       0.02240875 Ry

     iteration # 13     ecut=    50.00 Ry     beta= 0.30
     Davidson diagonalization with overlap

---- Real-time Memory Report at c_bands before calling an iterative solver
           242 MiB given to the printing process from OS
           215 MiB allocation reported by mallinfo(arena+hblkhd)
        101450 MiB available memory on the node where the printing process lives
------------------
     ethr =  1.04E-05,  avg # of iterations =  6.2

     total cpu time spent up to now is      537.3 secs

     total energy              =   -2168.98847277 Ry
     estimated scf accuracy    <       0.00058004 Ry

     iteration # 14     ecut=    50.00 Ry     beta= 0.30
     Davidson diagonalization with overlap

---- Real-time Memory Report at c_bands before calling an iterative solver
           242 MiB given to the printing process from OS
           215 MiB allocation reported by mallinfo(arena+hblkhd)
        101450 MiB available memory on the node where the printing process lives
------------------
     ethr =  2.69E-07,  avg # of iterations =  8.2

     total cpu time spent up to now is      598.3 secs

     total energy              =   -2168.98877961 Ry
     estimated scf accuracy    <       0.00212937 Ry

     iteration # 15     ecut=    50.00 Ry     beta= 0.30
     Davidson diagonalization with overlap

---- Real-time Memory Report at c_bands before calling an iterative solver
           242 MiB given to the printing process from OS
           215 MiB allocation reported by mallinfo(arena+hblkhd)
        101449 MiB available memory on the node where the printing process lives
------------------
     ethr =  2.69E-07,  avg # of iterations =  1.1

     total cpu time spent up to now is      625.5 secs

     total energy              =   -2168.98878276 Ry
     estimated scf accuracy    <       0.00148923 Ry

     iteration # 16     ecut=    50.00 Ry     beta= 0.30
     Davidson diagonalization with overlap

---- Real-time Memory Report at c_bands before calling an iterative solver
           242 MiB given to the printing process from OS
           215 MiB allocation reported by mallinfo(arena+hblkhd)
        101450 MiB available memory on the node where the printing process lives
------------------
     ethr =  2.69E-07,  avg # of iterations =  1.0

     total cpu time spent up to now is      651.8 secs

     total energy              =   -2168.98883214 Ry
     estimated scf accuracy    <       0.00141870 Ry

     iteration # 17     ecut=    50.00 Ry     beta= 0.30
     Davidson diagonalization with overlap

---- Real-time Memory Report at c_bands before calling an iterative solver
           242 MiB given to the printing process from OS
           215 MiB allocation reported by mallinfo(arena+hblkhd)
        101450 MiB available memory on the node where the printing process lives
------------------
     ethr =  2.69E-07,  avg # of iterations =  1.0

     total cpu time spent up to now is      678.4 secs

     total energy              =   -2168.98845301 Ry
     estimated scf accuracy    <       0.00137529 Ry

     iteration # 18     ecut=    50.00 Ry     beta= 0.30
     Davidson diagonalization with overlap

---- Real-time Memory Report at c_bands before calling an iterative solver
           242 MiB given to the printing process from OS
           215 MiB allocation reported by mallinfo(arena+hblkhd)
        101450 MiB available memory on the node where the printing process lives
------------------
     ethr =  2.69E-07,  avg # of iterations =  6.0

     total cpu time spent up to now is      723.6 secs

     total energy              =   -2168.98872634 Ry
     estimated scf accuracy    <       0.00009421 Ry

     iteration # 19     ecut=    50.00 Ry     beta= 0.30
     Davidson diagonalization with overlap

---- Real-time Memory Report at c_bands before calling an iterative solver
           242 MiB given to the printing process from OS
           222 MiB allocation reported by mallinfo(arena+hblkhd)
        101449 MiB available memory on the node where the printing process lives
------------------
     ethr =  4.36E-08,  avg # of iterations =  6.0

     total cpu time spent up to now is      763.0 secs

     total energy              =   -2168.98875764 Ry
     estimated scf accuracy    <       0.00000574 Ry

     iteration # 20     ecut=    50.00 Ry     beta= 0.30
     Davidson diagonalization with overlap

---- Real-time Memory Report at c_bands before calling an iterative solver
           242 MiB given to the printing process from OS
           222 MiB allocation reported by mallinfo(arena+hblkhd)
        101449 MiB available memory on the node where the printing process lives
------------------
     c_bands:  1 eigenvalues not converged
     c_bands:  1 eigenvalues not converged
     c_bands:  1 eigenvalues not converged
     c_bands:  1 eigenvalues not converged
     ethr =  2.66E-09,  avg # of iterations = 12.0

     total cpu time spent up to now is      836.4 secs

     total energy              =   -2168.98875522 Ry
     estimated scf accuracy    <       0.00002331 Ry

     iteration # 21     ecut=    50.00 Ry     beta= 0.30
     Davidson diagonalization with overlap

---- Real-time Memory Report at c_bands before calling an iterative solver
           242 MiB given to the printing process from OS
           222 MiB allocation reported by mallinfo(arena+hblkhd)
        101449 MiB available memory on the node where the printing process lives
------------------
     c_bands:  1 eigenvalues not converged
     ethr =  2.66E-09,  avg # of iterations = 11.6

     total cpu time spent up to now is      916.7 secs

     total energy              =   -2168.98877088 Ry
     estimated scf accuracy    <       0.00003732 Ry

     iteration # 22     ecut=    50.00 Ry     beta= 0.30
     Davidson diagonalization with overlap

---- Real-time Memory Report at c_bands before calling an iterative solver
           242 MiB given to the printing process from OS
           222 MiB allocation reported by mallinfo(arena+hblkhd)
        101441 MiB available memory on the node where the printing process lives
------------------
     ethr =  2.66E-09,  avg # of iterations =  1.1

     total cpu time spent up to now is      944.2 secs

     total energy              =   -2168.98875889 Ry
     estimated scf accuracy    <       0.00002991 Ry

     iteration # 23     ecut=    50.00 Ry     beta= 0.30
     Davidson diagonalization with overlap

---- Real-time Memory Report at c_bands before calling an iterative solver
           242 MiB given to the printing process from OS
           222 MiB allocation reported by mallinfo(arena+hblkhd)
        101444 MiB available memory on the node where the printing process lives
------------------
     ethr =  2.66E-09,  avg # of iterations =  8.5

     total cpu time spent up to now is     1003.7 secs

     total energy              =   -2168.98876613 Ry
     estimated scf accuracy    <       0.00000167 Ry

     iteration # 24     ecut=    50.00 Ry     beta= 0.30
     Davidson diagonalization with overlap

---- Real-time Memory Report at c_bands before calling an iterative solver
           243 MiB given to the printing process from OS
           222 MiB allocation reported by mallinfo(arena+hblkhd)
        101445 MiB available memory on the node where the printing process lives
------------------
     ethr =  7.75E-10,  avg # of iterations =  2.1

     total cpu time spent up to now is     1033.4 secs

     total energy              =   -2168.98876585 Ry
     estimated scf accuracy    <       0.00000108 Ry

     iteration # 25     ecut=    50.00 Ry     beta= 0.30
     Davidson diagonalization with overlap

---- Real-time Memory Report at c_bands before calling an iterative solver
           243 MiB given to the printing process from OS
           222 MiB allocation reported by mallinfo(arena+hblkhd)
        101445 MiB available memory on the node where the printing process lives
------------------
     ethr =  5.00E-10,  avg # of iterations =  3.9

     total cpu time spent up to now is     1072.8 secs

     total energy              =   -2168.98876603 Ry
     estimated scf accuracy    <       0.00000019 Ry

     iteration # 26     ecut=    50.00 Ry     beta= 0.30
     Davidson diagonalization with overlap

---- Real-time Memory Report at c_bands before calling an iterative solver
           243 MiB given to the printing process from OS
           222 MiB allocation reported by mallinfo(arena+hblkhd)
        101445 MiB available memory on the node where the printing process lives
------------------
     ethr =  8.71E-11,  avg # of iterations =  6.3

     total cpu time spent up to now is     1118.4 secs

     total energy              =   -2168.98876619 Ry
     estimated scf accuracy    <       0.00000040 Ry

     iteration # 27     ecut=    50.00 Ry     beta= 0.30
     Davidson diagonalization with overlap

---- Real-time Memory Report at c_bands before calling an iterative solver
           243 MiB given to the printing process from OS
           222 MiB allocation reported by mallinfo(arena+hblkhd)
        101445 MiB available memory on the node where the printing process lives
------------------
     ethr =  8.71E-11,  avg # of iterations =  5.3

     total cpu time spent up to now is     1163.7 secs

     total energy              =   -2168.98876604 Ry
     estimated scf accuracy    <       0.00000102 Ry

     iteration # 28     ecut=    50.00 Ry     beta= 0.30
     Davidson diagonalization with overlap

---- Real-time Memory Report at c_bands before calling an iterative solver
           243 MiB given to the printing process from OS
           222 MiB allocation reported by mallinfo(arena+hblkhd)
        101442 MiB available memory on the node where the printing process lives
------------------
     ethr =  8.71E-11,  avg # of iterations =  2.7

     total cpu time spent up to now is     1198.2 secs

     total energy              =   -2168.98876579 Ry
     estimated scf accuracy    <       0.00000064 Ry

     iteration # 29     ecut=    50.00 Ry     beta= 0.30
     Davidson diagonalization with overlap

---- Real-time Memory Report at c_bands before calling an iterative solver
           243 MiB given to the printing process from OS
           222 MiB allocation reported by mallinfo(arena+hblkhd)
        101445 MiB available memory on the node where the printing process lives
------------------
     ethr =  8.71E-11,  avg # of iterations =  8.6

     total cpu time spent up to now is     1256.5 secs

     total energy              =   -2168.98876599 Ry
     estimated scf accuracy    <       0.00000005 Ry

     iteration # 30     ecut=    50.00 Ry     beta= 0.30
     Davidson diagonalization with overlap

---- Real-time Memory Report at c_bands before calling an iterative solver
           243 MiB given to the printing process from OS
           222 MiB allocation reported by mallinfo(arena+hblkhd)
        101448 MiB available memory on the node where the printing process lives
------------------
     ethr =  2.48E-11,  avg # of iterations =  2.0

     total cpu time spent up to now is     1286.1 secs

     total energy              =   -2168.98876597 Ry
     estimated scf accuracy    <       0.00000005 Ry

     iteration # 31     ecut=    50.00 Ry     beta= 0.30
     Davidson diagonalization with overlap

---- Real-time Memory Report at c_bands before calling an iterative solver
           243 MiB given to the printing process from OS
           222 MiB allocation reported by mallinfo(arena+hblkhd)
        101440 MiB available memory on the node where the printing process lives
------------------
     c_bands:  1 eigenvalues not converged
     ethr =  2.10E-11,  avg # of iterations =  6.9

     total cpu time spent up to now is     1337.3 secs

     total energy              =   -2168.98876598 Ry
     estimated scf accuracy    <       0.00000001 Ry

     iteration # 32     ecut=    50.00 Ry     beta= 0.30
     Davidson diagonalization with overlap

---- Real-time Memory Report at c_bands before calling an iterative solver
           243 MiB given to the printing process from OS
           222 MiB allocation reported by mallinfo(arena+hblkhd)
        101447 MiB available memory on the node where the printing process lives
------------------
     ethr =  4.92E-12,  avg # of iterations =  3.0

     total cpu time spent up to now is     1371.5 secs

     End of self-consistent calculation

          k = 0.0000 0.0000 0.0000 ( 17017 PWs)   bands (ev):

   -13.2228 -13.1664 -13.1664 -13.0515 -13.0514 -12.9929 -12.9320 -12.9139
   -12.9139 -12.8789 -12.8789 -12.8620  -2.1767  -2.1765  -2.1640  -2.1640
    -2.1638  -2.1638  -2.1503  -2.1390  -2.1390  -2.1384  -2.1327  -2.1327
    -2.1325  -2.1325  -2.1293  -2.1293  -2.1139  -2.1138  -2.0730  -2.0730
    -2.0544  -2.0141  -2.0141  -1.9866  -1.9788  -1.9788  -1.9282  -1.9282
    -1.8942  -1.8835  -1.8623  -1.8623  -1.7965  -1.7921  -1.7921  -1.7878
    -1.7877  -1.7724  -1.7703  -1.7703  -1.7702  -1.7702  -1.7416  -1.7416
    -1.7416  -1.7416  -1.7304  -1.7304  -1.7136  -1.7117  -1.7116  -1.7056
    -1.7056  -1.7002  -1.6882  -1.6882  -1.6784  -1.6668  -1.6668  -1.6620
    -0.5200  -0.3563  -0.3563  -0.3437  -0.1531  -0.1531   0.0528   0.0782
     0.0782   1.0039   1.2408   1.2408   1.4597   1.4597   1.5828   1.7270
     1.7270   1.9189   1.9431   1.9432   2.0138   2.0138   2.1575   2.3403
     2.3411   2.4204   2.4205   2.4213   2.4213   2.4453   2.5801   2.5801
     2.5809   2.5810   2.6595   2.6604

     occupation numbers 
     1.0000   1.0000   1.0000   1.0000   1.0000   1.0000   1.0000   1.0000
     1.0000   1.0000   1.0000   1.0000   1.0000   1.0000   1.0000   1.0000
     1.0000   1.0000   1.0000   1.0000   1.0000   1.0000   1.0000   1.0000
     1.0000   1.0000   1.0000   1.0000   1.0000   1.0000   1.0000   1.0000
     1.0000   1.0000   1.0000   1.0000   1.0000   1.0000   1.0000   1.0000
     1.0000   1.0000   1.0000   1.0000   1.0000   1.0000   1.0000   1.0000
     1.0000   1.0000   1.0000   1.0000   1.0000   1.0000   1.0000   1.0000
     1.0000   1.0000   1.0000   1.0000   1.0000   1.0000   1.0000   1.0000
     1.0000   1.0000   1.0000   1.0000   1.0000   1.0000   1.0000   1.0000
     1.0000   1.0000   1.0000   1.0000   1.0000   1.0000   1.0000   1.0000
     1.0000   1.0000   1.0000   1.0000   1.0000   1.0000   1.0000   1.0000
     1.0000   1.0000   1.0000   1.0000   1.0000   1.0000   1.0000   1.0000
     1.0000   1.0000   1.0000   1.0000   1.0000   1.0000   1.0000   1.0000
     1.0000   1.0000   1.0000   1.0000

          k = 0.0000 0.0000 0.0319 ( 17018 PWs)   bands (ev):

   -13.2211 -13.1826 -13.1484 -13.0698 -13.0348 -12.9947 -12.9314 -12.9190
   -12.9082 -12.8843 -12.8740 -12.8625  -2.1762  -2.1760  -2.1678  -2.1676
    -2.1597  -2.1595  -2.1500  -2.1409  -2.1387  -2.1384  -2.1382  -2.1376
    -2.1349  -2.1276  -2.1274  -2.1171  -2.1145  -2.1143  -2.0906  -2.0539
    -2.0534  -2.0257  -2.0174  -2.0009  -1.9904  -1.9421  -1.9358  -1.9154
    -1.8933  -1.8849  -1.8719  -1.8514  -1.8020  -1.7948  -1.7871  -1.7871
    -1.7859  -1.7818  -1.7751  -1.7750  -1.7657  -1.7656  -1.7457  -1.7457
    -1.7381  -1.7381  -1.7303  -1.7303  -1.7135  -1.7122  -1.7109  -1.7069
    -1.7043  -1.7004  -1.6898  -1.6847  -1.6795  -1.6691  -1.6650  -1.6621
    -0.4991  -0.3639  -0.3461  -0.3406  -0.2013  -0.1034  -0.0810   0.0450
     0.2506   1.0204   1.0299   1.3455   1.4566   1.5733   1.5872   1.6859
     1.7724   1.9077   1.9232   1.9589   1.9685   2.0548   2.1531   2.3292
     2.3427   2.3436   2.3976   2.3984   2.4457   2.4466   2.5549   2.5558
     2.6028   2.6037   2.6571   2.6580

     occupation numbers 
     1.0000   1.0000   1.0000   1.0000   1.0000   1.0000   1.0000   1.0000
     1.0000   1.0000   1.0000   1.0000   1.0000   1.0000   1.0000   1.0000
     1.0000   1.0000   1.0000   1.0000   1.0000   1.0000   1.0000   1.0000
     1.0000   1.0000   1.0000   1.0000   1.0000   1.0000   1.0000   1.0000
     1.0000   1.0000   1.0000   1.0000   1.0000   1.0000   1.0000   1.0000
     1.0000   1.0000   1.0000   1.0000   1.0000   1.0000   1.0000   1.0000
     1.0000   1.0000   1.0000   1.0000   1.0000   1.0000   1.0000   1.0000
     1.0000   1.0000   1.0000   1.0000   1.0000   1.0000   1.0000   1.0000
     1.0000   1.0000   1.0000   1.0000   1.0000   1.0000   1.0000   1.0000
     1.0000   1.0000   1.0000   1.0000   1.0000   1.0000   1.0000   1.0000
     1.0000   1.0000   1.0000   1.0000   1.0000   1.0000   1.0000   1.0000
     1.0000   1.0000   1.0000   1.0000   1.0000   1.0000   1.0000   1.0000
     1.0000   1.0000   1.0000   1.0000   1.0000   1.0000   1.0000   1.0000
     1.0000   1.0000   1.0000   1.0000

          k = 0.0000 0.0000 0.0637 ( 17076 PWs)   bands (ev):

   -13.2161 -13.1965 -13.1292 -13.0893 -13.0204 -13.0000 -12.9298 -12.9235
   -12.9023 -12.8901 -12.8698 -12.8640  -2.1754  -2.1751  -2.1711  -2.1708
    -2.1548  -2.1546  -2.1492  -2.1440  -2.1438  -2.1434  -2.1411  -2.1395
    -2.1284  -2.1231  -2.1229  -2.1164  -2.1162  -2.1061  -2.1003  -2.0507
    -2.0498  -2.0358  -2.0345  -2.0008  -1.9869  -1.9571  -1.9045  -1.8909
    -1.8905  -1.8888  -1.8797  -1.8397  -1.8142  -1.8084  -1.7905  -1.7856
    -1.7856  -1.7840  -1.7794  -1.7794  -1.7605  -1.7604  -1.7503  -1.7503
    -1.7353  -1.7353  -1.7313  -1.7313  -1.7134  -1.7126  -1.7103  -1.7082
    -1.7031  -1.7009  -1.6888  -1.6823  -1.6807  -1.6725  -1.6636  -1.6624
    -0.4388  -0.3643  -0.3523  -0.3166  -0.2458  -0.2236  -0.0553   0.0225
     0.4337   0.8246   1.0683   1.2375   1.6002   1.6504   1.6764   1.6800
     1.8207   1.8511   1.9203   1.9345   1.9587   2.0902   2.1211   2.1401
     2.3500   2.3508   2.3778   2.3787   2.4726   2.4735   2.5281   2.5290
     2.6223   2.6232   2.6499   2.6508

     occupation numbers 
     1.0000   1.0000   1.0000   1.0000   1.0000   1.0000   1.0000   1.0000
     1.0000   1.0000   1.0000   1.0000   1.0000   1.0000   1.0000   1.0000
     1.0000   1.0000   1.0000   1.0000   1.0000   1.0000   1.0000   1.0000
     1.0000   1.0000   1.0000   1.0000   1.0000   1.0000   1.0000   1.0000
     1.0000   1.0000   1.0000   1.0000   1.0000   1.0000   1.0000   1.0000
     1.0000   1.0000   1.0000   1.0000   1.0000   1.0000   1.0000   1.0000
     1.0000   1.0000   1.0000   1.0000   1.0000   1.0000   1.0000   1.0000
     1.0000   1.0000   1.0000   1.0000   1.0000   1.0000   1.0000   1.0000
     1.0000   1.0000   1.0000   1.0000   1.0000   1.0000   1.0000   1.0000
     1.0000   1.0000   1.0000   1.0000   1.0000   1.0000   1.0000   1.0000
     1.0000   1.0000   1.0000   1.0000   1.0000   1.0000   1.0000   1.0000
     1.0000   1.0000   1.0000   1.0000   1.0000   1.0000   1.0000   1.0000
     1.0000   1.0000   1.0000   1.0000   1.0000   1.0000   1.0000   1.0000
     1.0000   1.0000   1.0000   1.0000

          k = 0.0000 0.0000-0.0956 ( 17092 PWs)   bands (ev):

   -13.2078 -13.2078 -13.1093 -13.1093 -13.0087 -13.0087 -12.9271 -12.9271
   -12.8962 -12.8962 -12.8665 -12.8665  -2.1736  -2.1736  -2.1734  -2.1734
    -2.1494  -2.1494  -2.1492  -2.1492  -2.1473  -2.1473  -2.1405  -2.1405
    -2.1193  -2.1193  -2.1191  -2.1191  -2.1187  -2.1187  -2.0783  -2.0783
    -2.0440  -2.0439  -2.0162  -2.0162  -1.9721  -1.9721  -1.8955  -1.8955
    -1.8860  -1.8860  -1.8469  -1.8469  -1.8270  -1.8270  -1.7861  -1.7861
    -1.7831  -1.7830  -1.7830  -1.7830  -1.7552  -1.7552  -1.7552  -1.7552
    -1.7330  -1.7330  -1.7330  -1.7330  -1.7131  -1.7130  -1.7093  -1.7093
    -1.7019  -1.7019  -1.6859  -1.6859  -1.6764  -1.6764  -1.6629  -1.6629
    -0.3595  -0.3595  -0.3448  -0.3448  -0.2847  -0.2847  -0.0121  -0.0120
     0.6255   0.6255   1.1427   1.1428   1.6215   1.6215   1.7741   1.7741
     1.8705   1.8705   1.8990   1.8990   1.9484   1.9484   2.1189   2.1190
     2.3618   2.3618   2.3626   2.3627   2.5004   2.5004   2.5013   2.5013
     2.6382   2.6382   2.6391   2.6391

     occupation numbers 
     1.0000   1.0000   1.0000   1.0000   1.0000   1.0000   1.0000   1.0000
     1.0000   1.0000   1.0000   1.0000   1.0000   1.0000   1.0000   1.0000
     1.0000   1.0000   1.0000   1.0000   1.0000   1.0000   1.0000   1.0000
     1.0000   1.0000   1.0000   1.0000   1.0000   1.0000   1.0000   1.0000
     1.0000   1.0000   1.0000   1.0000   1.0000   1.0000   1.0000   1.0000
     1.0000   1.0000   1.0000   1.0000   1.0000   1.0000   1.0000   1.0000
     1.0000   1.0000   1.0000   1.0000   1.0000   1.0000   1.0000   1.0000
     1.0000   1.0000   1.0000   1.0000   1.0000   1.0000   1.0000   1.0000
     1.0000   1.0000   1.0000   1.0000   1.0000   1.0000   1.0000   1.0000
     1.0000   1.0000   1.0000   1.0000   1.0000   1.0000   1.0000   1.0000
     1.0000   1.0000   1.0000   1.0000   1.0000   1.0000   1.0000   1.0000
     1.0000   1.0000   1.0000   1.0000   1.0000   1.0000   1.0000   1.0000
     1.0000   1.0000   1.0000   1.0000   1.0000   1.0000   1.0000   1.0000
     1.0000   1.0000   1.0000   1.0000

          k = 0.0000 0.0962 0.0000 ( 16989 PWs)   bands (ev):

   -13.2055 -13.1507 -13.1507 -13.0393 -13.0393 -12.9827 -12.9564 -12.9334
   -12.9334 -12.8885 -12.8885 -12.8666  -2.1795  -2.1683  -2.1683  -2.1648
    -2.1512  -2.1512  -2.1401  -2.1401  -2.1401  -2.1386  -2.1318  -2.1318
    -2.1181  -2.1181  -2.1137  -2.1137  -2.1077  -2.0983  -2.0804  -2.0804
    -2.0582  -2.0200  -2.0200  -2.0129  -1.9730  -1.9730  -1.9393  -1.9393
    -1.8971  -1.8891  -1.8732  -1.8732  -1.8292  -1.8292  -1.8212  -1.7945
    -1.7901  -1.7884  -1.7737  -1.7737  -1.7711  -1.7711  -1.7500  -1.7415
    -1.7415  -1.7386  -1.7386  -1.7304  -1.7303  -1.7293  -1.7259  -1.7222
    -1.7222  -1.7124  -1.7124  -1.7063  -1.7053  -1.6682  -1.6682  -1.6264
    -0.4701  -0.2347  -0.2347  -0.2124  -0.0379  -0.0379   0.1051   0.1051
     0.1294   0.9319   1.1866   1.1866   1.4081   1.4081   1.6336   1.7737
     1.7737   1.9744   1.9744   2.0122   2.0145   2.0527   2.0527   2.1615
     2.1925   2.2431   2.2431   2.2890   2.3741   2.3741   2.4410   2.4410
     2.5320   2.5437   2.5438   2.6283

     occupation numbers 
     1.0000   1.0000   1.0000   1.0000   1.0000   1.0000   1.0000   1.0000
     1.0000   1.0000   1.0000   1.0000   1.0000   1.0000   1.0000   1.0000
     1.0000   1.0000   1.0000   1.0000   1.0000   1.0000   1.0000   1.0000
     1.0000   1.0000   1.0000   1.0000   1.0000   1.0000   1.0000   1.0000
     1.0000   1.0000   1.0000   1.0000   1.0000   1.0000   1.0000   1.0000
     1.0000   1.0000   1.0000   1.0000   1.0000   1.0000   1.0000   1.0000
     1.0000   1.0000   1.0000   1.0000   1.0000   1.0000   1.0000   1.0000
     1.0000   1.0000   1.0000   1.0000   1.0000   1.0000   1.0000   1.0000
     1.0000   1.0000   1.0000   1.0000   1.0000   1.0000   1.0000   1.0000
     1.0000   1.0000   1.0000   1.0000   1.0000   1.0000   1.0000   1.0000
     1.0000   1.0000   1.0000   1.0000   1.0000   1.0000   1.0000   1.0000
     1.0000   1.0000   1.0000   1.0000   1.0000   1.0000   1.0000   1.0000
     1.0000   1.0000   1.0000   1.0000   1.0000   1.0000   1.0000   1.0000
     1.0000   1.0000   1.0000   1.0000

          k = 0.0000 0.0962 0.0319 ( 17008 PWs)   bands (ev):

   -13.2038 -13.1664 -13.1333 -13.0571 -13.0232 -12.9844 -12.9557 -12.9399
   -12.9262 -12.8955 -12.8822 -12.8672  -2.1793  -2.1724  -2.1644  -2.1632
    -2.1553  -2.1466  -2.1420  -2.1403  -2.1383  -2.1373  -2.1362  -2.1294
    -2.1239  -2.1185  -2.1127  -2.1084  -2.1031  -2.0990  -2.0957  -2.0644
    -2.0570  -2.0311  -2.0155  -2.0098  -2.0077  -1.9524  -1.9324  -1.9273
    -1.8984  -1.8887  -1.8783  -1.8672  -1.8364  -1.8236  -1.8206  -1.7987
    -1.7921  -1.7878  -1.7792  -1.7758  -1.7679  -1.7660  -1.7500  -1.7457
    -1.7442  -1.7381  -1.7378  -1.7335  -1.7297  -1.7258  -1.7233  -1.7213
    -1.7209  -1.7143  -1.7106  -1.7092  -1.7055  -1.6791  -1.6575  -1.6279
    -0.4500  -0.2421  -0.2187  -0.2159  -0.0826  -0.0477   0.0066   0.1243
     0.2697   0.9485   0.9973   1.2862   1.3746   1.5314   1.6379   1.7338
     1.8178   1.9220   1.9763   2.0068   2.0086   2.0166   2.0926   2.1600
     2.1882   2.2154   2.2740   2.2916   2.3498   2.4010   2.4096   2.4691
     2.5170   2.5304   2.5679   2.6257

     occupation numbers 
     1.0000   1.0000   1.0000   1.0000   1.0000   1.0000   1.0000   1.0000
     1.0000   1.0000   1.0000   1.0000   1.0000   1.0000   1.0000   1.0000
     1.0000   1.0000   1.0000   1.0000   1.0000   1.0000   1.0000   1.0000
     1.0000   1.0000   1.0000   1.0000   1.0000   1.0000   1.0000   1.0000
     1.0000   1.0000   1.0000   1.0000   1.0000   1.0000   1.0000   1.0000
     1.0000   1.0000   1.0000   1.0000   1.0000   1.0000   1.0000   1.0000
     1.0000   1.0000   1.0000   1.0000   1.0000   1.0000   1.0000   1.0000
     1.0000   1.0000   1.0000   1.0000   1.0000   1.0000   1.0000   1.0000
     1.0000   1.0000   1.0000   1.0000   1.0000   1.0000   1.0000   1.0000
     1.0000   1.0000   1.0000   1.0000   1.0000   1.0000   1.0000   1.0000
     1.0000   1.0000   1.0000   1.0000   1.0000   1.0000   1.0000   1.0000
     1.0000   1.0000   1.0000   1.0000   1.0000   1.0000   1.0000   1.0000
     1.0000   1.0000   1.0000   1.0000   1.0000   1.0000   1.0000   1.0000
     1.0000   1.0000   1.0000   1.0000

          k = 0.0000 0.0962 0.0637 ( 17012 PWs)   bands (ev):

   -13.1989 -13.1799 -13.1146 -13.0760 -13.0093 -12.9896 -12.9536 -12.9456
   -12.9186 -12.9030 -12.8768 -12.8692  -2.1786  -2.1754  -2.1633  -2.1587
    -2.1572  -2.1438  -2.1423  -2.1414  -2.1410  -2.1371  -2.1318  -2.1299
    -2.1298  -2.1167  -2.1103  -2.1094  -2.1079  -2.1009  -2.0878  -2.0537
    -2.0486  -2.0415  -2.0406  -2.0230  -1.9943  -1.9663  -1.9169  -1.9022
    -1.8903  -1.8873  -1.8822  -1.8601  -1.8443  -1.8202  -1.8195  -1.8185
    -1.7907  -1.7862  -1.7840  -1.7801  -1.7619  -1.7608  -1.7506  -1.7500
    -1.7493  -1.7438  -1.7348  -1.7306  -1.7282  -1.7255  -1.7242  -1.7195
    -1.7161  -1.7157  -1.7114  -1.7088  -1.7062  -1.6901  -1.6476  -1.6322
    -0.3920  -0.2415  -0.2247  -0.1945  -0.1848  -0.1249   0.0478   0.1087
     0.4434   0.8090   0.9971   1.1724   1.5572   1.6496   1.6505   1.6993
     1.8490   1.8648   1.8745   1.9617   2.0215   2.0222   2.1270   2.1628
     2.1756   2.1920   2.2993   2.3072   2.3289   2.3761   2.4296   2.4885
     2.4930   2.5241   2.5888   2.6181

     occupation numbers 
     1.0000   1.0000   1.0000   1.0000   1.0000   1.0000   1.0000   1.0000
     1.0000   1.0000   1.0000   1.0000   1.0000   1.0000   1.0000   1.0000
     1.0000   1.0000   1.0000   1.0000   1.0000   1.0000   1.0000   1.0000
     1.0000   1.0000   1.0000   1.0000   1.0000   1.0000   1.0000   1.0000
     1.0000   1.0000   1.0000   1.0000   1.0000   1.0000   1.0000   1.0000
     1.0000   1.0000   1.0000   1.0000   1.0000   1.0000   1.0000   1.0000
     1.0000   1.0000   1.0000   1.0000   1.0000   1.0000   1.0000   1.0000
     1.0000   1.0000   1.0000   1.0000   1.0000   1.0000   1.0000   1.0000
     1.0000   1.0000   1.0000   1.0000   1.0000   1.0000   1.0000   1.0000
     1.0000   1.0000   1.0000   1.0000   1.0000   1.0000   1.0000   1.0000
     1.0000   1.0000   1.0000   1.0000   1.0000   1.0000   1.0000   1.0000
     1.0000   1.0000   1.0000   1.0000   1.0000   1.0000   1.0000   1.0000
     1.0000   1.0000   1.0000   1.0000   1.0000   1.0000   1.0000   1.0000
     1.0000   1.0000   1.0000   1.0000

          k = 0.0000 0.0962-0.0956 ( 17030 PWs)   bands (ev):

   -13.1909 -13.1908 -13.0953 -13.0953 -12.9980 -12.9979 -12.9502 -12.9502
   -12.9108 -12.9108 -12.8724 -12.8724  -2.1774  -2.1774  -2.1614  -2.1614
    -2.1506  -2.1506  -2.1419  -2.1418  -2.1357  -2.1357  -2.1350  -2.1350
    -2.1209  -2.1209  -2.1132  -2.1132  -2.1039  -2.1039  -2.0674  -2.0674
    -2.0482  -2.0482  -2.0345  -2.0345  -1.9804  -1.9804  -1.9085  -1.9085
    -1.8853  -1.8853  -1.8524  -1.8524  -1.8507  -1.8506  -1.8191  -1.8190
    -1.7878  -1.7878  -1.7836  -1.7836  -1.7558  -1.7558  -1.7556  -1.7556
    -1.7475  -1.7475  -1.7324  -1.7324  -1.7250  -1.7250  -1.7224  -1.7224
    -1.7179  -1.7179  -1.7075  -1.7074  -1.7009  -1.7009  -1.6390  -1.6390
    -0.3015  -0.3015  -0.2346  -0.2346  -0.1628  -0.1628   0.0827   0.0828
     0.6238   0.6238   1.0737   1.0737   1.6712   1.6712   1.7279   1.7279
     1.7570   1.7570   1.9132   1.9132   2.0252   2.0252   2.1549   2.1550
     2.1740   2.1741   2.3118   2.3118   2.3415   2.3415   2.4590   2.4590
     2.5117   2.5117   2.6056   2.6057

     occupation numbers 
     1.0000   1.0000   1.0000   1.0000   1.0000   1.0000   1.0000   1.0000
     1.0000   1.0000   1.0000   1.0000   1.0000   1.0000   1.0000   1.0000
     1.0000   1.0000   1.0000   1.0000   1.0000   1.0000   1.0000   1.0000
     1.0000   1.0000   1.0000   1.0000   1.0000   1.0000   1.0000   1.0000
     1.0000   1.0000   1.0000   1.0000   1.0000   1.0000   1.0000   1.0000
     1.0000   1.0000   1.0000   1.0000   1.0000   1.0000   1.0000   1.0000
     1.0000   1.0000   1.0000   1.0000   1.0000   1.0000   1.0000   1.0000
     1.0000   1.0000   1.0000   1.0000   1.0000   1.0000   1.0000   1.0000
     1.0000   1.0000   1.0000   1.0000   1.0000   1.0000   1.0000   1.0000
     1.0000   1.0000   1.0000   1.0000   1.0000   1.0000   1.0000   1.0000
     1.0000   1.0000   1.0000   1.0000   1.0000   1.0000   1.0000   1.0000
     1.0000   1.0000   1.0000   1.0000   1.0000   1.0000   1.0000   1.0000
     1.0000   1.0000   1.0000   1.0000   1.0000   1.0000   1.0000   1.0000
     1.0000   1.0000   1.0000   1.0000

          k = 0.0000 0.1925 0.0000 ( 16990 PWs)   bands (ev):

   -13.1571 -13.1073 -13.1073 -13.0155 -13.0063 -13.0063 -12.9829 -12.9829
   -12.9552 -12.9182 -12.9182 -12.8860  -2.1796  -2.1691  -2.1690  -2.1489
    -2.1456  -2.1456  -2.1346  -2.1277  -2.1277  -2.1187  -2.1176  -2.1176
    -2.0993  -2.0993  -2.0785  -2.0785  -2.0772  -2.0742  -2.0742  -2.0717
    -2.0634  -2.0559  -2.0401  -2.0401  -1.9731  -1.9731  -1.9577  -1.9577
    -1.9379  -1.9308  -1.9308  -1.9303  -1.8913  -1.8913  -1.8467  -1.8150
    -1.8071  -1.7980  -1.7870  -1.7807  -1.7807  -1.7714  -1.7714  -1.7705
    -1.7705  -1.7527  -1.7447  -1.7447  -1.7405  -1.7405  -1.7287  -1.7287
    -1.7272  -1.7262  -1.7262  -1.7156  -1.6898  -1.6898  -1.6715  -1.6269
    -0.3285  -0.0196   0.0215   0.0215   0.1646   0.1646   0.2552   0.2552
     0.3491   0.9457   0.9892   0.9892   1.3563   1.3563   1.4045   1.7303
     1.7716   1.8522   1.8522   1.9006   1.9007   2.0288   2.0288   2.1486
     2.1580   2.1581   2.1945   2.2200   2.2200   2.2463   2.2463   2.2871
     2.4415   2.4415   2.4641   2.5390

     occupation numbers 
     1.0000   1.0000   1.0000   1.0000   1.0000   1.0000   1.0000   1.0000
     1.0000   1.0000   1.0000   1.0000   1.0000   1.0000   1.0000   1.0000
     1.0000   1.0000   1.0000   1.0000   1.0000   1.0000   1.0000   1.0000
     1.0000   1.0000   1.0000   1.0000   1.0000   1.0000   1.0000   1.0000
     1.0000   1.0000   1.0000   1.0000   1.0000   1.0000   1.0000   1.0000
     1.0000   1.0000   1.0000   1.0000   1.0000   1.0000   1.0000   1.0000
     1.0000   1.0000   1.0000   1.0000   1.0000   1.0000   1.0000   1.0000
     1.0000   1.0000   1.0000   1.0000   1.0000   1.0000   1.0000   1.0000
     1.0000   1.0000   1.0000   1.0000   1.0000   1.0000   1.0000   1.0000
     1.0000   1.0000   1.0000   1.0000   1.0000   1.0000   1.0000   1.0000
     1.0000   1.0000   1.0000   1.0000   1.0000   1.0000   1.0000   1.0000
     1.0000   1.0000   1.0000   1.0000   1.0000   1.0000   1.0000   1.0000
     1.0000   1.0000   1.0000   1.0000   1.0000   1.0000   1.0000   1.0000
     1.0000   1.0000   1.0000   1.0000

          k = 0.0000 0.1925 0.0319 ( 16997 PWs)   bands (ev):

   -13.1556 -13.1216 -13.0914 -13.0224 -13.0145 -12.9922 -12.9918 -12.9727
   -12.9568 -12.9284 -12.9090 -12.8870  -2.1795  -2.1733  -2.1634  -2.1491
    -2.1480  -2.1416  -2.1341  -2.1335  -2.1234  -2.1227  -2.1188  -2.1120
    -2.1093  -2.0898  -2.0852  -2.0783  -2.0776  -2.0723  -2.0707  -2.0666
    -2.0646  -2.0567  -2.0493  -2.0298  -1.9894  -1.9840  -1.9632  -1.9390
    -1.9313  -1.9303  -1.9293  -1.9231  -1.9034  -1.8781  -1.8473  -1.8195
    -1.8066  -1.7984  -1.7882  -1.7865  -1.7820  -1.7751  -1.7725  -1.7655
    -1.7593  -1.7525  -1.7470  -1.7450  -1.7419  -1.7377  -1.7366  -1.7293
    -1.7275  -1.7234  -1.7192  -1.7159  -1.7044  -1.6754  -1.6751  -1.6295
    -0.3112  -0.0205   0.0001   0.0354   0.0501   0.2123   0.2935   0.3014
     0.3501   0.8602   0.9564   1.1076   1.2371   1.3928   1.4833   1.7314
     1.7756   1.8083   1.8638   1.9039   1.9413   1.9469   2.0921   2.1174
     2.1515   2.1551   2.1921   2.1949   2.2184   2.2772   2.2820   2.2832
     2.4107   2.4550   2.4693   2.5361

     occupation numbers 
     1.0000   1.0000   1.0000   1.0000   1.0000   1.0000   1.0000   1.0000
     1.0000   1.0000   1.0000   1.0000   1.0000   1.0000   1.0000   1.0000
     1.0000   1.0000   1.0000   1.0000   1.0000   1.0000   1.0000   1.0000
     1.0000   1.0000   1.0000   1.0000   1.0000   1.0000   1.0000   1.0000
     1.0000   1.0000   1.0000   1.0000   1.0000   1.0000   1.0000   1.0000
     1.0000   1.0000   1.0000   1.0000   1.0000   1.0000   1.0000   1.0000
     1.0000   1.0000   1.0000   1.0000   1.0000   1.0000   1.0000   1.0000
     1.0000   1.0000   1.0000   1.0000   1.0000   1.0000   1.0000   1.0000
     1.0000   1.0000   1.0000   1.0000   1.0000   1.0000   1.0000   1.0000
     1.0000   1.0000   1.0000   1.0000   1.0000   1.0000   1.0000   1.0000
     1.0000   1.0000   1.0000   1.0000   1.0000   1.0000   1.0000   1.0000
     1.0000   1.0000   1.0000   1.0000   1.0000   1.0000   1.0000   1.0000
     1.0000   1.0000   1.0000   1.0000   1.0000   1.0000   1.0000   1.0000
     1.0000   1.0000   1.0000   1.0000

          k = 0.0000 0.1925 0.0637 ( 16987 PWs)   bands (ev):

   -13.1511 -13.1339 -13.0745 -13.0395 -13.0116 -13.0002 -12.9792 -12.9617
   -12.9614 -12.9392 -12.9011 -12.8899  -2.1790  -2.1762  -2.1564  -2.1492
    -2.1490  -2.1407  -2.1357  -2.1327  -2.1269  -2.1209  -2.1192  -2.1191
    -2.1057  -2.0921  -2.0811  -2.0796  -2.0784  -2.0682  -2.0679  -2.0668
    -2.0588  -2.0571  -2.0549  -2.0187  -2.0165  -1.9954  -1.9545  -1.9422
    -1.9312  -1.9305  -1.9261  -1.9134  -1.8885  -1.8655  -1.8497  -1.8336
    -1.8044  -1.7984  -1.7949  -1.7905  -1.7849  -1.7792  -1.7640  -1.7602
    -1.7518  -1.7498  -1.7490  -1.7465  -1.7464  -1.7389  -1.7333  -1.7326
    -1.7287  -1.7208  -1.7188  -1.7168  -1.7088  -1.6850  -1.6608  -1.6368
    -0.2611  -0.0821  -0.0219  -0.0138   0.0850   0.1679   0.3236   0.3500
     0.4421   0.7242   0.9899   1.1324   1.2114   1.3569   1.6113   1.7366
     1.7738   1.7872   1.8321   1.8478   1.9618   1.9847   2.0740   2.0892
     2.1374   2.1603   2.1839   2.1943   2.2267   2.2715   2.3100   2.3392
     2.3778   2.4289   2.4934   2.5273

     occupation numbers 
     1.0000   1.0000   1.0000   1.0000   1.0000   1.0000   1.0000   1.0000
     1.0000   1.0000   1.0000   1.0000   1.0000   1.0000   1.0000   1.0000
     1.0000   1.0000   1.0000   1.0000   1.0000   1.0000   1.0000   1.0000
     1.0000   1.0000   1.0000   1.0000   1.0000   1.0000   1.0000   1.0000
     1.0000   1.0000   1.0000   1.0000   1.0000   1.0000   1.0000   1.0000
     1.0000   1.0000   1.0000   1.0000   1.0000   1.0000   1.0000   1.0000
     1.0000   1.0000   1.0000   1.0000   1.0000   1.0000   1.0000   1.0000
     1.0000   1.0000   1.0000   1.0000   1.0000   1.0000   1.0000   1.0000
     1.0000   1.0000   1.0000   1.0000   1.0000   1.0000   1.0000   1.0000
     1.0000   1.0000   1.0000   1.0000   1.0000   1.0000   1.0000   1.0000
     1.0000   1.0000   1.0000   1.0000   1.0000   1.0000   1.0000   1.0000
     1.0000   1.0000   1.0000   1.0000   1.0000   1.0000   1.0000   1.0000
     1.0000   1.0000   1.0000   1.0000   1.0000   1.0000   1.0000   1.0000
     1.0000   1.0000   1.0000   1.0000

          k = 0.0000 0.1925-0.0956 ( 16994 PWs)   bands (ev):

   -13.1438 -13.1438 -13.0570 -13.0570 -13.0068 -13.0067 -12.9690 -12.9689
   -12.9505 -12.9505 -12.8946 -12.8946  -2.1781  -2.1781  -2.1493  -2.1493
    -2.1486  -2.1486  -2.1303  -2.1302  -2.1282  -2.1282  -2.1197  -2.1196
    -2.0990  -2.0990  -2.0793  -2.0793  -2.0739  -2.0739  -2.0633  -2.0633
    -2.0623  -2.0623  -2.0384  -2.0384  -2.0072  -2.0072  -1.9474  -1.9474
    -1.9308  -1.9308  -1.9209  -1.9209  -1.8575  -1.8574  -1.8556  -1.8556
    -1.8004  -1.8004  -1.7961  -1.7961  -1.7825  -1.7825  -1.7553  -1.7553
    -1.7551  -1.7551  -1.7506  -1.7506  -1.7358  -1.7358  -1.7328  -1.7328
    -1.7307  -1.7307  -1.7185  -1.7185  -1.6971  -1.6971  -1.6476  -1.6476
    -0.1828  -0.1828  -0.0206  -0.0205   0.1248   0.1248   0.3425   0.3425
     0.5840   0.5840   1.0487   1.0487   1.2959   1.2959   1.7345   1.7345
     1.7499   1.7499   1.8062   1.8063   2.0242   2.0242   2.0293   2.0293
     2.1668   2.1669   2.1747   2.1748   2.2525   2.2525   2.3439   2.3439
     2.3891   2.3891   2.5129   2.5129

     occupation numbers 
     1.0000   1.0000   1.0000   1.0000   1.0000   1.0000   1.0000   1.0000
     1.0000   1.0000   1.0000   1.0000   1.0000   1.0000   1.0000   1.0000
     1.0000   1.0000   1.0000   1.0000   1.0000   1.0000   1.0000   1.0000
     1.0000   1.0000   1.0000   1.0000   1.0000   1.0000   1.0000   1.0000
     1.0000   1.0000   1.0000   1.0000   1.0000   1.0000   1.0000   1.0000
     1.0000   1.0000   1.0000   1.0000   1.0000   1.0000   1.0000   1.0000
     1.0000   1.0000   1.0000   1.0000   1.0000   1.0000   1.0000   1.0000
     1.0000   1.0000   1.0000   1.0000   1.0000   1.0000   1.0000   1.0000
     1.0000   1.0000   1.0000   1.0000   1.0000   1.0000   1.0000   1.0000
     1.0000   1.0000   1.0000   1.0000   1.0000   1.0000   1.0000   1.0000
     1.0000   1.0000   1.0000   1.0000   1.0000   1.0000   1.0000   1.0000
     1.0000   1.0000   1.0000   1.0000   1.0000   1.0000   1.0000   1.0000
     1.0000   1.0000   1.0000   1.0000   1.0000   1.0000   1.0000   1.0000
     1.0000   1.0000   1.0000   1.0000

          k = 0.0000-0.2887 0.0000 ( 17046 PWs)   bands (ev):

   -13.0886 -13.0886 -13.0464 -13.0464 -13.0464 -13.0464 -12.9617 -12.9616
   -12.9616 -12.9616 -12.9191 -12.9191  -2.1675  -2.1675  -2.1587  -2.1587
    -2.1587  -2.1587  -2.1173  -2.1173  -2.1173  -2.1173  -2.0990  -2.0990
    -2.0987  -2.0987  -2.0754  -2.0754  -2.0754  -2.0754  -2.0247  -2.0247
    -2.0247  -2.0247  -2.0136  -2.0136  -2.0128  -2.0128  -2.0128  -2.0128
    -1.9971  -1.9971  -1.9315  -1.9315  -1.9315  -1.9315  -1.8285  -1.8285
    -1.8193  -1.8193  -1.7841  -1.7840  -1.7840  -1.7840  -1.7765  -1.7765
    -1.7630  -1.7630  -1.7630  -1.7630  -1.7364  -1.7364  -1.7364  -1.7364
    -1.7232  -1.7232  -1.7115  -1.7115  -1.7115  -1.7115  -1.6438  -1.6438
    -0.1326  -0.1326   0.1768   0.1769   0.1769   0.1769   0.6408   0.6408
     0.6408   0.6408   0.8240   0.8240   1.2633   1.2633   1.4929   1.4929
     1.4929   1.4929   1.9595   1.9595   2.0733   2.0733   2.0733   2.0733
     2.0925   2.0925   2.0925   2.0925   2.3005   2.3005   2.3005   2.3005
     2.3534   2.3534   2.4143   2.4143

     occupation numbers 
     1.0000   1.0000   1.0000   1.0000   1.0000   1.0000   1.0000   1.0000
     1.0000   1.0000   1.0000   1.0000   1.0000   1.0000   1.0000   1.0000
     1.0000   1.0000   1.0000   1.0000   1.0000   1.0000   1.0000   1.0000
     1.0000   1.0000   1.0000   1.0000   1.0000   1.0000   1.0000   1.0000
     1.0000   1.0000   1.0000   1.0000   1.0000   1.0000   1.0000   1.0000
     1.0000   1.0000   1.0000   1.0000   1.0000   1.0000   1.0000   1.0000
     1.0000   1.0000   1.0000   1.0000   1.0000   1.0000   1.0000   1.0000
     1.0000   1.0000   1.0000   1.0000   1.0000   1.0000   1.0000   1.0000
     1.0000   1.0000   1.0000   1.0000   1.0000   1.0000   1.0000   1.0000
     1.0000   1.0000   1.0000   1.0000   1.0000   1.0000   1.0000   1.0000
     1.0000   1.0000   1.0000   1.0000   1.0000   1.0000   1.0000   1.0000
     1.0000   1.0000   1.0000   1.0000   1.0000   1.0000   1.0000   1.0000
     1.0000   1.0000   1.0000   1.0000   1.0000   1.0000   1.0000   1.0000
     1.0000   1.0000   1.0000   1.0000

          k = 0.0000-0.2887 0.0319 ( 17024 PWs)   bands (ev):

   -13.0873 -13.0873 -13.0585 -13.0584 -13.0330 -13.0330 -12.9751 -12.9751
   -12.9495 -12.9495 -12.9204 -12.9204  -2.1674  -2.1674  -2.1624  -2.1624
    -2.1535  -2.1535  -2.1240  -2.1240  -2.1117  -2.1117  -2.0993  -2.0993
    -2.0983  -2.0983  -2.0822  -2.0822  -2.0677  -2.0677  -2.0330  -2.0330
    -2.0169  -2.0169  -2.0146  -2.0146  -2.0137  -2.0137  -2.0087  -2.0087
    -1.9980  -1.9980  -1.9553  -1.9553  -1.9056  -1.9056  -1.8308  -1.8308
    -1.8194  -1.8194  -1.7943  -1.7943  -1.7761  -1.7761  -1.7729  -1.7729
    -1.7667  -1.7667  -1.7587  -1.7587  -1.7405  -1.7405  -1.7326  -1.7326
    -1.7245  -1.7245  -1.7236  -1.7236  -1.6979  -1.6979  -1.6473  -1.6473
    -0.1214  -0.1214   0.0984   0.0984   0.2579   0.2579   0.5723   0.5723
     0.7010   0.7010   0.8206   0.8206   1.2669   1.2669   1.4132   1.4132
     1.5860   1.5860   1.9630   1.9630   2.0005   2.0005   2.0408   2.0408
     2.1092   2.1092   2.1727   2.1727   2.2646   2.2646   2.3330   2.3330
     2.3465   2.3465   2.4109   2.4109

     occupation numbers 
     1.0000   1.0000   1.0000   1.0000   1.0000   1.0000   1.0000   1.0000
     1.0000   1.0000   1.0000   1.0000   1.0000   1.0000   1.0000   1.0000
     1.0000   1.0000   1.0000   1.0000   1.0000   1.0000   1.0000   1.0000
     1.0000   1.0000   1.0000   1.0000   1.0000   1.0000   1.0000   1.0000
     1.0000   1.0000   1.0000   1.0000   1.0000   1.0000   1.0000   1.0000
     1.0000   1.0000   1.0000   1.0000   1.0000   1.0000   1.0000   1.0000
     1.0000   1.0000   1.0000   1.0000   1.0000   1.0000   1.0000   1.0000
     1.0000   1.0000   1.0000   1.0000   1.0000   1.0000   1.0000   1.0000
     1.0000   1.0000   1.0000   1.0000   1.0000   1.0000   1.0000   1.0000
     1.0000   1.0000   1.0000   1.0000   1.0000   1.0000   1.0000   1.0000
     1.0000   1.0000   1.0000   1.0000   1.0000   1.0000   1.0000   1.0000
     1.0000   1.0000   1.0000   1.0000   1.0000   1.0000   1.0000   1.0000
     1.0000   1.0000   1.0000   1.0000   1.0000   1.0000   1.0000   1.0000
     1.0000   1.0000   1.0000   1.0000

          k = 0.0000-0.2887 0.0637 ( 16992 PWs)   bands (ev):

   -13.0835 -13.0835 -13.0688 -13.0688 -13.0188 -13.0188 -12.9894 -12.9893
   -12.9390 -12.9390 -12.9242 -12.9242  -2.1670  -2.1670  -2.1648  -2.1648
    -2.1469  -2.1469  -2.1314  -2.1314  -2.1071  -2.1071  -2.1009  -2.1009
    -2.0962  -2.0962  -2.0881  -2.0881  -2.0594  -2.0594  -2.0417  -2.0417
    -2.0151  -2.0151  -2.0142  -2.0142  -2.0101  -2.0101  -2.0015  -2.0015
    -2.0005  -2.0005  -1.9751  -1.9751  -1.8799  -1.8799  -1.8402  -1.8402
    -1.8168  -1.8168  -1.8036  -1.8036  -1.7748  -1.7748  -1.7701  -1.7701
    -1.7612  -1.7612  -1.7542  -1.7542  -1.7449  -1.7449  -1.7369  -1.7369
    -1.7294  -1.7294  -1.7247  -1.7247  -1.6838  -1.6838  -1.6566  -1.6566
    -0.0889  -0.0889   0.0253   0.0253   0.3394   0.3394   0.4981   0.4981
     0.7502   0.7502   0.8090   0.8090   1.2797   1.2797   1.3503   1.3503
     1.6879   1.6879   1.8997   1.8997   1.9733   1.9733   2.0128   2.0128
     2.1474   2.1474   2.2263   2.2263   2.2389   2.2389   2.3256   2.3256
     2.3610   2.3610   2.4006   2.4006

     occupation numbers 
     1.0000   1.0000   1.0000   1.0000   1.0000   1.0000   1.0000   1.0000
     1.0000   1.0000   1.0000   1.0000   1.0000   1.0000   1.0000   1.0000
     1.0000   1.0000   1.0000   1.0000   1.0000   1.0000   1.0000   1.0000
     1.0000   1.0000   1.0000   1.0000   1.0000   1.0000   1.0000   1.0000
     1.0000   1.0000   1.0000   1.0000   1.0000   1.0000   1.0000   1.0000
     1.0000   1.0000   1.0000   1.0000   1.0000   1.0000   1.0000   1.0000
     1.0000   1.0000   1.0000   1.0000   1.0000   1.0000   1.0000   1.0000
     1.0000   1.0000   1.0000   1.0000   1.0000   1.0000   1.0000   1.0000
     1.0000   1.0000   1.0000   1.0000   1.0000   1.0000   1.0000   1.0000
     1.0000   1.0000   1.0000   1.0000   1.0000   1.0000   1.0000   1.0000
     1.0000   1.0000   1.0000   1.0000   1.0000   1.0000   1.0000   1.0000
     1.0000   1.0000   1.0000   1.0000   1.0000   1.0000   1.0000   1.0000
     1.0000   1.0000   1.0000   1.0000   1.0000   1.0000   1.0000   1.0000
     1.0000   1.0000   1.0000   1.0000

          k = 0.0000-0.2887-0.0956 ( 16960 PWs)   bands (ev):

   -13.0773 -13.0773 -13.0773 -13.0772 -13.0041 -13.0041 -13.0041 -13.0041
   -12.9305 -12.9305 -12.9305 -12.9305  -2.1662  -2.1662  -2.1662  -2.1662
    -2.1393  -2.1393  -2.1393  -2.1393  -2.1035  -2.1035  -2.1035  -2.1035
    -2.0927  -2.0927  -2.0927  -2.0927  -2.0506  -2.0506  -2.0506  -2.0506
    -2.0147  -2.0147  -2.0147  -2.0147  -2.0046  -2.0046  -2.0046  -2.0046
    -1.9905  -1.9905  -1.9905  -1.9905  -1.8573  -1.8573  -1.8573  -1.8573
    -1.8113  -1.8113  -1.8112  -1.8112  -1.7728  -1.7728  -1.7728  -1.7728
    -1.7494  -1.7494  -1.7494  -1.7494  -1.7491  -1.7491  -1.7491  -1.7491
    -1.7267  -1.7267  -1.7267  -1.7267  -1.6696  -1.6696  -1.6696  -1.6696
    -0.0386  -0.0386  -0.0386  -0.0386   0.4199   0.4199   0.4199   0.4200
     0.7863   0.7863   0.7863   0.7863   1.3062   1.3062   1.3062   1.3063
     1.7940   1.7940   1.7941   1.7941   1.9900   1.9900   1.9900   1.9901
     2.1869   2.1869   2.1869   2.1869   2.2899   2.2899   2.2899   2.2900
     2.3838   2.3838   2.3838   2.3838

     occupation numbers 
     1.0000   1.0000   1.0000   1.0000   1.0000   1.0000   1.0000   1.0000
     1.0000   1.0000   1.0000   1.0000   1.0000   1.0000   1.0000   1.0000
     1.0000   1.0000   1.0000   1.0000   1.0000   1.0000   1.0000   1.0000
     1.0000   1.0000   1.0000   1.0000   1.0000   1.0000   1.0000   1.0000
     1.0000   1.0000   1.0000   1.0000   1.0000   1.0000   1.0000   1.0000
     1.0000   1.0000   1.0000   1.0000   1.0000   1.0000   1.0000   1.0000
     1.0000   1.0000   1.0000   1.0000   1.0000   1.0000   1.0000   1.0000
     1.0000   1.0000   1.0000   1.0000   1.0000   1.0000   1.0000   1.0000
     1.0000   1.0000   1.0000   1.0000   1.0000   1.0000   1.0000   1.0000
     1.0000   1.0000   1.0000   1.0000   1.0000   1.0000   1.0000   1.0000
     1.0000   1.0000   1.0000   1.0000   1.0000   1.0000   1.0000   1.0000
     1.0000   1.0000   1.0000   1.0000   1.0000   1.0000   1.0000   1.0000
     1.0000   1.0000   1.0000   1.0000   1.0000   1.0000   1.0000   1.0000
     1.0000   1.0000   1.0000   1.0000

          k = 0.1667 0.0962 0.0000 ( 16975 PWs)   bands (ev):

   -13.1571 -13.1073 -13.1073 -13.0063 -13.0063 -12.9552 -12.9341 -12.9152
   -12.9152 -12.8787 -12.8787 -12.8611  -2.1795  -2.1689  -2.1689  -2.1348
    -2.1283  -2.1276  -2.1276  -2.1187  -2.1178  -2.1178  -2.1001  -2.1001
    -2.0787  -2.0787  -2.0771  -2.0741  -2.0741  -2.0561  -2.0416  -2.0416
    -2.0325  -1.9986  -1.9986  -1.9577  -1.9577  -1.9372  -1.9365  -1.9365
    -1.8972  -1.8677  -1.8677  -1.8617  -1.8605  -1.8605  -1.8405  -1.8150
    -1.8071  -1.7870  -1.7846  -1.7807  -1.7807  -1.7705  -1.7705  -1.7554
    -1.7554  -1.7435  -1.7405  -1.7405  -1.7291  -1.7291  -1.7287  -1.7287
    -1.7272  -1.6784  -1.6715  -1.6709  -1.6709  -1.6329  -1.6329  -1.6047
    -0.3284  -0.1573  -0.1573  -0.1191  -0.0111  -0.0111   0.1391   0.1647
     0.1647   0.9893   0.9894   0.9986   1.2677   1.2746   1.2746   1.4049
     1.5699   1.5699   1.6992   1.6992   1.7309   1.8527   1.8527   1.8629
     1.9756   2.0031   2.0031   2.1479   2.2204   2.2204   2.2457   2.2457
     2.4408   2.4408   2.4642   2.5384

     occupation numbers 
     1.0000   1.0000   1.0000   1.0000   1.0000   1.0000   1.0000   1.0000
     1.0000   1.0000   1.0000   1.0000   1.0000   1.0000   1.0000   1.0000
     1.0000   1.0000   1.0000   1.0000   1.0000   1.0000   1.0000   1.0000
     1.0000   1.0000   1.0000   1.0000   1.0000   1.0000   1.0000   1.0000
     1.0000   1.0000   1.0000   1.0000   1.0000   1.0000   1.0000   1.0000
     1.0000   1.0000   1.0000   1.0000   1.0000   1.0000   1.0000   1.0000
     1.0000   1.0000   1.0000   1.0000   1.0000   1.0000   1.0000   1.0000
     1.0000   1.0000   1.0000   1.0000   1.0000   1.0000   1.0000   1.0000
     1.0000   1.0000   1.0000   1.0000   1.0000   1.0000   1.0000   1.0000
     1.0000   1.0000   1.0000   1.0000   1.0000   1.0000   1.0000   1.0000
     1.0000   1.0000   1.0000   1.0000   1.0000   1.0000   1.0000   1.0000
     1.0000   1.0000   1.0000   1.0000   1.0000   1.0000   1.0000   1.0000
     1.0000   1.0000   1.0000   1.0000   1.0000   1.0000   1.0000   1.0000
     1.0000   1.0000   1.0000   1.0000

          k = 0.1667 0.0962 0.0319 ( 16986 PWs)   bands (ev):

   -13.1556 -13.1216 -13.0914 -13.0224 -12.9918 -12.9568 -12.9335 -12.9206
   -12.9093 -12.8844 -12.8736 -12.8616  -2.1794  -2.1732  -2.1633  -2.1343
    -2.1334  -2.1274  -2.1234  -2.1228  -2.1188  -2.1121  -2.1076  -2.0920
    -2.0853  -2.0782  -2.0775  -2.0724  -2.0666  -2.0568  -2.0504  -2.0374
    -2.0328  -1.9980  -1.9909  -1.9894  -1.9505  -1.9408  -1.9241  -1.9231
    -1.8982  -1.8694  -1.8651  -1.8642  -1.8610  -1.8560  -1.8411  -1.8195
[...]
     xc contribution           =    -653.64103661 Ry
     ewald contribution        =   -1146.37539136 Ry

     convergence has been achieved in  32 iterations

     Forces acting on atoms (cartesian axes, Ry/au):

     atom    1 type  1   force =     0.00000000    0.00001405   -0.01421226
     atom    2 type  1   force =     0.00000000   -0.00001466   -0.01420843
     atom    3 type  2   force =     0.00000000    0.00001438    0.01421081
     atom    4 type  2   force =     0.00000000   -0.00001420    0.01421117
     atom    5 type  1   force =     0.00000000    0.00001591   -0.01421143
     atom    6 type  1   force =     0.00000000   -0.00001478   -0.01421357
     atom    7 type  2   force =     0.00000000    0.00001406    0.01420719
     atom    8 type  2   force =     0.00000000   -0.00001436    0.01421048
     atom    9 type  1   force =     0.00000000    0.00001456   -0.01420764
     atom   10 type  1   force =     0.00000000   -0.00001325   -0.01420686
     atom   11 type  2   force =     0.00000000    0.00001368    0.01421046
     atom   12 type  2   force =     0.00000000   -0.00001508    0.01420929
     atom   13 type  1   force =     0.00000000    0.00001542   -0.01421167
     atom   14 type  1   force =     0.00000000   -0.00001486   -0.01420772
     atom   15 type  2   force =     0.00000000    0.00001395    0.01421059
     atom   16 type  2   force =     0.00000000   -0.00001446    0.01421008
     atom   17 type  1   force =     0.00000000    0.00001449   -0.01420990
     atom   18 type  1   force =     0.00000000   -0.00001500   -0.01421340
     atom   19 type  2   force =     0.00000000    0.00001436    0.01420764
     atom   20 type  2   force =     0.00000000   -0.00001416    0.01421050
     atom   21 type  1   force =     0.00000000    0.00001554   -0.01420848
     atom   22 type  1   force =     0.00000000   -0.00001649   -0.01420699
     atom   23 type  2   force =     0.00000000    0.00001454    0.01421047
     atom   24 type  2   force =     0.00000000   -0.00001363    0.01420968
     The non-local contrib.  to forces
     atom    1 type  1   force =     0.00000000   -0.00003250    0.16836945
     atom    2 type  1   force =     0.00000000    0.00003271    0.16837564
     atom    3 type  2   force =     0.00000000    0.00023480    0.20927361
     atom    4 type  2   force =     0.00000000   -0.00023429    0.20927013
     atom    5 type  1   force =     0.00000000   -0.00003265    0.16837291
     atom    6 type  1   force =     0.00000000    0.00003377    0.16836649
     atom    7 type  2   force =     0.00000000    0.00023583    0.20926342
     atom    8 type  2   force =     0.00000000   -0.00023551    0.20927163
     atom    9 type  1   force =     0.00000000   -0.00003355    0.16837692
     atom   10 type  1   force =     0.00000000    0.00003516    0.16837955
     atom   11 type  2   force =     0.00000000    0.00023429    0.20926735
     atom   12 type  2   force =     0.00000000   -0.00023571    0.20926579
     atom   13 type  1   force =     0.00000000   -0.00003400    0.16837035
     atom   14 type  1   force =     0.00000000    0.00003364    0.16837539
     atom   15 type  2   force =     0.00000000    0.00023496    0.20927268
     atom   16 type  2   force =     0.00000000   -0.00023586    0.20926763
     atom   17 type  1   force =     0.00000000   -0.00003340    0.16837372
     atom   18 type  1   force =     0.00000000    0.00003297    0.16836665
     atom   19 type  2   force =     0.00000000    0.00023471    0.20926554
     atom   20 type  2   force =     0.00000000   -0.00023443    0.20927184
     atom   21 type  1   force =     0.00000000   -0.00003292    0.16837572
     atom   22 type  1   force =     0.00000000    0.00003129    0.16837922
     atom   23 type  2   force =     0.00000000    0.00023584    0.20926635
     atom   24 type  2   force =     0.00000000   -0.00023450    0.20926723
     The ionic contribution  to forces
     atom    1 type  1   force =    -0.00000000    0.00000002    1.30007235
     atom    2 type  1   force =     0.00000000    0.00000001    1.30007238
     atom    3 type  2   force =    -0.00000000    0.00000001   -1.30007236
     atom    4 type  2   force =     0.00000000    0.00000001   -1.30007236
     atom    5 type  1   force =    -0.00000000    0.00000002    1.30007238
     atom    6 type  1   force =     0.00000000    0.00000001    1.30007234
     atom    7 type  2   force =    -0.00000000    0.00000001   -1.30007237
     atom    8 type  2   force =     0.00000000    0.00000001   -1.30007234
     atom    9 type  1   force =    -0.00000000    0.00000002    1.30007235
     atom   10 type  1   force =     0.00000000    0.00000001    1.30007234
     atom   11 type  2   force =    -0.00000000    0.00000001   -1.30007235
     atom   12 type  2   force =     0.00000000    0.00000001   -1.30007236
     atom   13 type  1   force =    -0.00000000   -0.00000001    1.30007234
     atom   14 type  1   force =     0.00000000   -0.00000002    1.30007238
     atom   15 type  2   force =    -0.00000000   -0.00000001   -1.30007236
     atom   16 type  2   force =     0.00000000   -0.00000001   -1.30007237
     atom   17 type  1   force =    -0.00000000   -0.00000001    1.30007238
     atom   18 type  1   force =     0.00000000   -0.00000002    1.30007235
     atom   19 type  2   force =    -0.00000000   -0.00000001   -1.30007236
     atom   20 type  2   force =     0.00000000   -0.00000001   -1.30007235
     atom   21 type  1   force =    -0.00000000   -0.00000001    1.30007234
     atom   22 type  1   force =     0.00000000   -0.00000002    1.30007235
     atom   23 type  2   force =    -0.00000000   -0.00000001   -1.30007234
     atom   24 type  2   force =     0.00000000   -0.00000001   -1.30007236
     The local contribution  to forces
     atom    1 type  1   force =    -0.00000010    0.00003971   -1.47366469
     atom    2 type  1   force =    -0.00000000   -0.00003926   -1.47367575
     atom    3 type  2   force =    -0.00000002   -0.00021736    1.10701444
     atom    4 type  2   force =     0.00000000    0.00021760    1.10701671
     atom    5 type  1   force =    -0.00000010    0.00004006   -1.47367137
     atom    6 type  1   force =    -0.00000000   -0.00004151   -1.47365914
     atom    7 type  2   force =    -0.00000002   -0.00021988    1.10701385
     atom    8 type  2   force =     0.00000000    0.00021834    1.10701440
     atom    9 type  1   force =    -0.00000010    0.00004131   -1.47367894
     atom   10 type  1   force =    -0.00000000   -0.00004545   -1.47368335
     atom   11 type  2   force =    -0.00000002   -0.00021816    1.10701621
     atom   12 type  2   force =    -0.00000000    0.00021716    1.10701570
     atom   13 type  1   force =    -0.00000000    0.00004137   -1.47366653
     atom   14 type  1   force =     0.00000010   -0.00004174   -1.47367573
     atom   15 type  2   force =    -0.00000000   -0.00021861    1.10701530
     atom   16 type  2   force =     0.00000002    0.00021913    1.10701782
     atom   17 type  1   force =    -0.00000000    0.00004035   -1.47367420
     atom   18 type  1   force =     0.00000010   -0.00003978   -1.47365957
     atom   19 type  2   force =     0.00000000   -0.00021702    1.10701256
     atom   20 type  2   force =     0.00000002    0.00021828    1.10701426
     atom   21 type  1   force =    -0.00000000    0.00003949   -1.47367643
     atom   22 type  1   force =     0.00000010   -0.00003563   -1.47368282
     atom   23 type  2   force =    -0.00000000   -0.00021850    1.10701731
     atom   24 type  2   force =     0.00000002    0.00021928    1.10701450
     The core correction contribution to forces
     atom    1 type  1   force =    -0.00000001    0.00000897   -0.00898325
     atom    2 type  1   force =     0.00000000   -0.00000898   -0.00898313
     atom    3 type  2   force =     0.00000000   -0.00000265   -0.00200069
     atom    4 type  2   force =     0.00000000    0.00000264   -0.00200063
     atom    5 type  1   force =    -0.00000001    0.00000886   -0.00898315
     atom    6 type  1   force =     0.00000000   -0.00000892   -0.00898330
     atom    7 type  2   force =     0.00000000   -0.00000267   -0.00200054
     atom    8 type  2   force =     0.00000000    0.00000266   -0.00200065
     atom    9 type  1   force =    -0.00000001    0.00000891   -0.00898312
     atom   10 type  1   force =     0.00000000   -0.00000881   -0.00898309
     atom   11 type  2   force =     0.00000000   -0.00000264   -0.00200058
     atom   12 type  2   force =     0.00000000    0.00000266   -0.00200056
     atom   13 type  1   force =    -0.00000000    0.00000890   -0.00898324
     atom   14 type  1   force =     0.00000001   -0.00000890   -0.00898316
     atom   15 type  2   force =    -0.00000000   -0.00000265   -0.00200068
     atom   16 type  2   force =    -0.00000000    0.00000267   -0.00200059
     atom   17 type  1   force =    -0.00000000    0.00000897   -0.00898304
     atom   18 type  1   force =     0.00000001   -0.00000896   -0.00898328
     atom   19 type  2   force =    -0.00000000   -0.00000265   -0.00200057
     atom   20 type  2   force =    -0.00000000    0.00000264   -0.00200065
     atom   21 type  1   force =    -0.00000000    0.00000894   -0.00898318
     atom   22 type  1   force =     0.00000001   -0.00000906   -0.00898308
     atom   23 type  2   force =    -0.00000000   -0.00000266   -0.00200056
     atom   24 type  2   force =    -0.00000000    0.00000265   -0.00200058
     The Hubbard contrib.    to forces
     atom    1 type  1   force =     0.00000000    0.00000000    0.00000000
     atom    2 type  1   force =     0.00000000    0.00000000    0.00000000
     atom    3 type  2   force =     0.00000000    0.00000000    0.00000000
     atom    4 type  2   force =     0.00000000    0.00000000    0.00000000
     atom    5 type  1   force =     0.00000000    0.00000000    0.00000000
     atom    6 type  1   force =     0.00000000    0.00000000    0.00000000
     atom    7 type  2   force =     0.00000000    0.00000000    0.00000000
     atom    8 type  2   force =     0.00000000    0.00000000    0.00000000
     atom    9 type  1   force =     0.00000000    0.00000000    0.00000000
     atom   10 type  1   force =     0.00000000    0.00000000    0.00000000
     atom   11 type  2   force =     0.00000000    0.00000000    0.00000000
     atom   12 type  2   force =     0.00000000    0.00000000    0.00000000
     atom   13 type  1   force =     0.00000000    0.00000000    0.00000000
     atom   14 type  1   force =     0.00000000    0.00000000    0.00000000
     atom   15 type  2   force =     0.00000000    0.00000000    0.00000000
     atom   16 type  2   force =     0.00000000    0.00000000    0.00000000
     atom   17 type  1   force =     0.00000000    0.00000000    0.00000000
     atom   18 type  1   force =     0.00000000    0.00000000    0.00000000
     atom   19 type  2   force =     0.00000000    0.00000000    0.00000000
     atom   20 type  2   force =     0.00000000    0.00000000    0.00000000
     atom   21 type  1   force =     0.00000000    0.00000000    0.00000000
     atom   22 type  1   force =     0.00000000    0.00000000    0.00000000
     atom   23 type  2   force =     0.00000000    0.00000000    0.00000000
     atom   24 type  2   force =     0.00000000    0.00000000    0.00000000
     The SCF correction term to forces
     atom    1 type  1   force =     0.00000000   -0.00000207   -0.00000558
     atom    2 type  1   force =    -0.00000000    0.00000093    0.00000298
     atom    3 type  2   force =     0.00000000   -0.00000035   -0.00000364
     atom    4 type  2   force =    -0.00000000   -0.00000009   -0.00000213
     atom    5 type  1   force =     0.00000000   -0.00000031   -0.00000165
     atom    6 type  1   force =    -0.00000000    0.00000194   -0.00000941
     atom    7 type  2   force =     0.00000000    0.00000084    0.00000337
     atom    8 type  2   force =    -0.00000000    0.00000021   -0.00000201
     atom    9 type  1   force =     0.00000000   -0.00000206    0.00000570
     atom   10 type  1   force =    -0.00000000    0.00000591    0.00000823
     atom   11 type  2   force =     0.00000000    0.00000025    0.00000038
     atom   12 type  2   force =    -0.00000000    0.00000088    0.00000127
     atom   13 type  1   force =     0.00000000   -0.00000077   -0.00000405
     atom   14 type  1   force =    -0.00000000    0.00000222    0.00000394
     atom   15 type  2   force =     0.00000000    0.00000033   -0.00000381
     atom   16 type  2   force =    -0.00000000   -0.00000032   -0.00000187
     atom   17 type  1   force =     0.00000000   -0.00000135    0.00000179
     atom   18 type  1   force =    -0.00000000    0.00000086   -0.00000901
     atom   19 type  2   force =     0.00000000   -0.00000061    0.00000302
     atom   20 type  2   force =    -0.00000000   -0.00000057   -0.00000205
     atom   21 type  1   force =     0.00000000    0.00000012    0.00000362
     atom   22 type  1   force =    -0.00000000   -0.00000300    0.00000789
     atom   23 type  2   force =     0.00000000   -0.00000006    0.00000027
     atom   24 type  2   force =    -0.00000000   -0.00000097    0.00000145

     Total force =     0.069614     Total SCF correction =     0.000024

     init_run     :     21.27s CPU     22.07s WALL (       1 calls)
     electrons    :   1313.22s CPU   1349.01s WALL (       1 calls)
     forces       :     10.08s CPU     10.16s WALL (       1 calls)

     Called by init_run:
     wfcinit      :     13.74s CPU     14.36s WALL (       1 calls)
     wfcinit:atom :      0.10s CPU      0.11s WALL (      10 calls)
     wfcinit:wfcr :     12.76s CPU     13.35s WALL (      10 calls)
     potinit      :      3.03s CPU      3.10s WALL (       1 calls)
     hinit0       :      4.16s CPU      4.20s WALL (       1 calls)

     Called by electrons:
     c_bands      :   1162.02s CPU   1191.38s WALL (      32 calls)
     sum_band     :    128.21s CPU    134.05s WALL (      32 calls)
     v_of_rho     :     14.77s CPU     15.20s WALL (      33 calls)
     v_h          :      0.82s CPU      0.87s WALL (      33 calls)
     v_xc         :     14.37s CPU     14.77s WALL (      34 calls)
     newd         :      5.16s CPU      5.25s WALL (      33 calls)
     mix_rho      :      1.44s CPU      1.52s WALL (      32 calls)

     Called by c_bands:
     init_us_2    :      8.16s CPU      8.22s WALL (     660 calls)
     init_us_2:cp :      8.15s CPU      8.21s WALL (     660 calls)
     cegterg      :   1082.65s CPU   1111.84s WALL (     320 calls)

     Called by sum_band:
     sum_band:wei :      0.04s CPU      0.04s WALL (      32 calls)
     sum_band:loo :    119.74s CPU    124.99s WALL (      32 calls)
     sum_band:buf :      1.20s CPU      1.27s WALL (     320 calls)
     sum_band:ini :      3.59s CPU      3.60s WALL (     320 calls)
     sum_band:cal :     32.69s CPU     32.88s WALL (     320 calls)
     sum_band:bec :      0.21s CPU      0.22s WALL (     320 calls)
     addusdens    :      4.73s CPU      4.89s WALL (      32 calls)
     addusd:skk   :      0.09s CPU      0.09s WALL (      64 calls)
     addusd:dgemm :      1.45s CPU      1.45s WALL (      64 calls)
     addusd:qvan2 :      2.57s CPU      2.57s WALL (      64 calls)

     Called by *egterg:
     cdiaghg      :     76.47s CPU     78.34s WALL (    2517 calls)
     cegterg:over :    100.07s CPU    100.33s WALL (    2197 calls)
     cegterg:upda :     69.61s CPU     69.87s WALL (    2197 calls)
     cegterg:last :    110.69s CPU    111.04s WALL (     745 calls)
     cdiaghg:chol :      4.55s CPU      4.57s WALL (    2517 calls)
     cdiaghg:inve :      1.21s CPU      1.22s WALL (    2517 calls)
     cdiaghg:para :     12.11s CPU     13.68s WALL (    5034 calls)
     h_psi        :    604.06s CPU    630.84s WALL (    2527 calls)
     s_psi        :     96.85s CPU     96.88s WALL (    2527 calls)
     g_psi        :      3.24s CPU      3.26s WALL (    2197 calls)

     Called by h_psi:
     h_psi:calbec :    105.89s CPU    106.59s WALL (    2527 calls)
     vloc_psi     :    394.53s CPU    420.54s WALL (    2527 calls)
     add_vuspsi   :    100.04s CPU    100.08s WALL (    2527 calls)

     General routines
     calbec       :    142.81s CPU    143.73s WALL (    2887 calls)
     fft          :     10.32s CPU     10.88s WALL (     438 calls)
     ffts         :      0.57s CPU      0.60s WALL (      65 calls)
     fftw         :    426.20s CPU    454.74s WALL (  227456 calls)
     interpolate  :      1.13s CPU      1.19s WALL (      33 calls)

     Parallel routines

     PWSCF        :  22m25.57s CPU  23m 2.28s WALL


   This run was terminated on:  18:23:49   1Sep2025            

=------------------------------------------------------------------------------=
   JOB DONE.
=------------------------------------------------------------------------------=
Note: The following floating-point exceptions are signalling: IEEE_UNDERFLOW_FLAG IEEE_DENORMAL
Note: The following floating-point exceptions are signalling: IEEE_UNDERFLOW_FLAG IEEE_DENORMAL
Note: The following floating-point exceptions are signalling: IEEE_UNDERFLOW_FLAG IEEE_DENORMAL
Note: The following floating-point exceptions are signalling: IEEE_UNDERFLOW_FLAG IEEE_DENORMAL
Note: The following floating-point exceptions are signalling: IEEE_UNDERFLOW_FLAG IEEE_DENORMAL
Note: The following floating-point exceptions are signalling: IEEE_UNDERFLOW_FLAG IEEE_DENORMAL
Note: The following floating-point exceptions are signalling: IEEE_UNDERFLOW_FLAG IEEE_DENORMAL
Note: The following floating-point exceptions are signalling: IEEE_UNDERFLOW_FLAG IEEE_DENORMAL
Note: The following floating-point exceptions are signalling: IEEE_UNDERFLOW_FLAG IEEE_DENORMAL
Note: The following floating-point exceptions are signalling: IEEE_UNDERFLOW_FLAG IEEE_DENORMAL
Note: The following floating-point exceptions are signalling: IEEE_UNDERFLOW_FLAG IEEE_DENORMAL
Note: The following floating-point exceptions are signalling: IEEE_UNDERFLOW_FLAG IEEE_DENORMAL
Note: The following floating-point exceptions are signalling: IEEE_UNDERFLOW_FLAG IEEE_DENORMAL
Note: The following floating-point exceptions are signalling: IEEE_UNDERFLOW_FLAG IEEE_DENORMAL
Note: The following floating-point exceptions are signalling: IEEE_UNDERFLOW_FLAG IEEE_DENORMAL
Note: The following floating-point exceptions are signalling: IEEE_UNDERFLOW_FLAG IEEE_DENORMAL
Note: The following floating-point exceptions are signalling: IEEE_UNDERFLOW_FLAG IEEE_DENORMAL
Note: The following floating-point exceptions are signalling: IEEE_UNDERFLOW_FLAG IEEE_DENORMAL
Note: The following floating-point exceptions are signalling: IEEE_UNDERFLOW_FLAG IEEE_DENORMAL
Note: The following floating-point exceptions are signalling: IEEE_UNDERFLOW_FLAG IEEE_DENORMAL
Note: The following floating-point exceptions are signalling: IEEE_UNDERFLOW_FLAG IEEE_DENORMAL
Note: The following floating-point exceptions are signalling: IEEE_UNDERFLOW_FLAG IEEE_DENORMAL
Note: The following floating-point exceptions are signalling: IEEE_UNDERFLOW_FLAG IEEE_DENORMAL
Note: The following floating-point exceptions are signalling: IEEE_UNDERFLOW_FLAG IEEE_DENORMAL
Note: The following floating-point exceptions are signalling: IEEE_UNDERFLOW_FLAG IEEE_DENORMAL
Note: The following floating-point exceptions are signalling: IEEE_UNDERFLOW_FLAG IEEE_DENORMAL
Note: The following floating-point exceptions are signalling: IEEE_UNDERFLOW_FLAG IEEE_DENORMAL
Note: The following floating-point exceptions are signalling: IEEE_UNDERFLOW_FLAG IEEE_DENORMAL
Note: The following floating-point exceptions are signalling: IEEE_UNDERFLOW_FLAG IEEE_DENORMAL
Note: The following floating-point exceptions are signalling: IEEE_UNDERFLOW_FLAG IEEE_DENORMAL
Note: The following floating-point exceptions are signalling: IEEE_UNDERFLOW_FLAG IEEE_DENORMAL
Note: The following floating-point exceptions are signalling: IEEE_UNDERFLOW_FLAG IEEE_DENORMAL
