
     Program PWSCF v.7.0 starts on 30Aug2025 at 19: 2:58 

     This program is part of the open-source Quantum ESPRESSO suite
     for quantum simulation of materials; please cite
         "P. Giannozzi et al., J. Phys.:Condens. Matter 21 395502 (2009);
         "P. Giannozzi et al., J. Phys.:Condens. Matter 29 465901 (2017);
         "P. Giannozzi et al., J. Chem. Phys. 152 154105 (2020);
          URL http://www.quantum-espresso.org", 
     in publications or presentations arising from this work. More details at
     http://www.quantum-espresso.org/quote

     Parallel version (MPI & OpenMP), running on      32 processor cores
     Number of MPI processes:                32
     Threads/MPI process:                     1

     MPI processes distributed on     1 nodes
     K-points division:     npool     =       8
     R & G space division:  proc/nbgrp/npool/nimage =       4
     103340 MiB available memory on the printing compute node when the environment starts

     Reading input from /home/jvc/QEspresso7.2/ZnO_database/scripts/cell123.in/ZnO-3.20-1.52-123.in
Warning: card &CELL ignored
Warning: card / ignored
Warning: card &FCP ignored
Warning: card / ignored
Warning: card &RISM ignored
Warning: card / ignored

     Current dimensions of program PWSCF are:
     Max number of different atomic species (ntypx) = 10
     Max number of k-points (npk) =  40000
     Max angular momentum in pseudopotentials (lmaxx) =  4
     file Zn.upf: wavefunction(s)  3D renormalized
     Found identity + (  0.0000  0.0000  0.3333) symmetry
     This is a supercell, fractional translations are disabled
     Message from routine setup:
     using ibrav=0 with symmetry is DISCOURAGED, use correct ibrav instead

     Subspace diagonalization in iterative solution of the eigenvalue problem:
     one sub-group per band group will be used
     scalapack distributed-memory algorithm (size of sub-group:  2*  2 procs)


     Parallelization info
     --------------------
     sticks:   dense  smooth     PW     G-vecs:    dense   smooth      PW
     Min         505     254     80                59143    20898    3610
     Max         506     255     81                59156    20901    3613
     Sum        2021    1017    321               236591    83597   14445

     Using Slab Decomposition



     bravais-lattice index     =            0
     lattice parameter (alat)  =       6.0553  a.u.
     unit-cell volume          =    1750.6999 (a.u.)^3
     number of atoms/cell      =           24
     number of atomic types    =            2
     number of electrons       =       216.00
     number of Kohn-Sham states=          108
     kinetic-energy cutoff     =      50.0000  Ry
     charge density cutoff     =     400.0000  Ry
     scf convergence threshold =      1.0E-08
     mixing beta               =       0.3000
     number of iterations used =            8  plain     mixing
     Exchange-correlation= PBE
                           (   1   4   3   4   0   0   0)

     celldm(1)=   6.055277  celldm(2)=   0.000000  celldm(3)=   0.000000
     celldm(4)=   0.000000  celldm(5)=   0.000000  celldm(6)=   0.000000

     crystal axes: (cart. coord. in units of alat)
               a(1) = (   1.000000   0.000000   0.000000 )  
               a(2) = (  -1.000000   1.732051   0.000000 )  
               a(3) = (   0.000000   0.000000   4.552491 )  

     reciprocal axes: (cart. coord. in units 2 pi/alat)
               b(1) = (  1.000000  0.577350 -0.000000 )  
               b(2) = (  0.000000  0.577350  0.000000 )  
               b(3) = (  0.000000 -0.000000  0.219660 )  


     PseudoPot. # 1 for Zn read from file:
     /home/jvc/QEspresso7.2/ZnO_database/pseudos/Zn.upf
     MD5 check sum: 7f56cabf9682ed8c977c2f7d0c5985c5
     Pseudo is Ultrasoft + core correction, Zval = 12.0
     Generated using &quot;atomic&quot; code by A. Dal Corso  v.6.2.2
     Using radial grid of 1201 points,  6 beta functions with: 
                l(1) =   0
                l(2) =   0
                l(3) =   1
                l(4) =   1
                l(5) =   2
                l(6) =   2
     Q(r) pseudized with 0 coefficients 


     PseudoPot. # 2 for O  read from file:
     /home/jvc/QEspresso7.2/ZnO_database/pseudos/O.upf
     MD5 check sum: 91400c9766925bcf19f520983a725ff0
     Pseudo is Ultrasoft + core correction, Zval =  6.0
     Generated using &quot;atomic&quot; code by A. Dal Corso  v.6.3MaX
     Using radial grid of 1095 points,  4 beta functions with: 
                l(1) =   0
                l(2) =   0
                l(3) =   1
                l(4) =   1
     Q(r) pseudized with 0 coefficients 


     atomic species   valence    mass     pseudopotential
        Zn            12.00    65.38000     Zn( 1.00)
        O              6.00    15.99900     O ( 1.00)

      2 Sym. Ops. (no inversion) found


                                    s                        frac. trans.

      isym =  1     identity                                     

 cryst.   s( 1) = (     1          0          0      )
                  (     0          1          0      )
                  (     0          0          1      )

 cart.    s( 1) = (  1.0000000  0.0000000  0.0000000 )
                  (  0.0000000  1.0000000  0.0000000 )
                  (  0.0000000  0.0000000  1.0000000 )


      isym =  2     inv. 180 deg rotation - cart. axis [1,0,0]   

 cryst.   s( 2) = (    -1          0          0      )
                  (     2          1          0      )
                  (     0          0          1      )

 cart.    s( 2) = ( -1.0000000  0.0000000  0.0000000 )
                  (  0.0000000  1.0000000  0.0000000 )
                  (  0.0000000  0.0000000  1.0000000 )


   Cartesian axes

     site n.     atom                  positions (alat units)
         1           Zn  tau(   1) = (   0.5000000   0.2886751   0.7597099  )
         2           Zn  tau(   2) = (  -0.0000000   0.5773503   0.0009615  )
         3           O   tau(   3) = (   0.5000000   0.2886751   1.3349062  )
         4           O   tau(   4) = (  -0.0000000   0.5773503   0.5761578  )
         5           Zn  tau(   5) = (   0.5000000   0.2886751   2.2772067  )
         6           Zn  tau(   6) = (  -0.0000000   0.5773503   1.5184583  )
         7           O   tau(   7) = (   0.5000000   0.2886751   2.8524030  )
         8           O   tau(   8) = (  -0.0000000   0.5773503   2.0936546  )
         9           Zn  tau(   9) = (   0.5000000   0.2886751   3.7947036  )
        10           Zn  tau(  10) = (  -0.0000000   0.5773503   3.0359552  )
        11           O   tau(  11) = (   0.5000000   0.2886751   4.3698999  )
        12           O   tau(  12) = (  -0.0000000   0.5773503   3.6111515  )
        13           Zn  tau(  13) = (   0.0000000   1.1547005   0.7597099  )
        14           Zn  tau(  14) = (  -0.5000000   1.4433757   0.0009615  )
        15           O   tau(  15) = (   0.0000000   1.1547005   1.3349062  )
        16           O   tau(  16) = (  -0.5000000   1.4433757   0.5761578  )
        17           Zn  tau(  17) = (   0.0000000   1.1547005   2.2772067  )
        18           Zn  tau(  18) = (  -0.5000000   1.4433757   1.5184583  )
        19           O   tau(  19) = (   0.0000000   1.1547005   2.8524030  )
        20           O   tau(  20) = (  -0.5000000   1.4433757   2.0936546  )
        21           Zn  tau(  21) = (   0.0000000   1.1547005   3.7947036  )
        22           Zn  tau(  22) = (  -0.5000000   1.4433757   3.0359552  )
        23           O   tau(  23) = (   0.0000000   1.1547005   4.3698999  )
        24           O   tau(  24) = (  -0.5000000   1.4433757   3.6111515  )

   Crystallographic axes

     site n.     atom                  positions (cryst. coord.)
         1           Zn  tau(   1) = (  0.6666667  0.1666667  0.1668779  )
         2           Zn  tau(   2) = (  0.3333333  0.3333333  0.0002112  )
         3           O   tau(   3) = (  0.6666667  0.1666667  0.2932255  )
         4           O   tau(   4) = (  0.3333333  0.3333333  0.1265588  )
         5           Zn  tau(   5) = (  0.6666667  0.1666667  0.5002112  )
         6           Zn  tau(   6) = (  0.3333333  0.3333333  0.3335445  )
         7           O   tau(   7) = (  0.6666667  0.1666667  0.6265588  )
         8           O   tau(   8) = (  0.3333333  0.3333333  0.4598921  )
         9           Zn  tau(   9) = (  0.6666667  0.1666667  0.8335445  )
        10           Zn  tau(  10) = (  0.3333333  0.3333333  0.6668779  )
        11           O   tau(  11) = (  0.6666667  0.1666667  0.9598921  )
        12           O   tau(  12) = (  0.3333333  0.3333333  0.7932255  )
        13           Zn  tau(  13) = (  0.6666667  0.6666667  0.1668779  )
        14           Zn  tau(  14) = (  0.3333333  0.8333333  0.0002112  )
        15           O   tau(  15) = (  0.6666667  0.6666667  0.2932255  )
        16           O   tau(  16) = (  0.3333333  0.8333333  0.1265588  )
        17           Zn  tau(  17) = (  0.6666667  0.6666667  0.5002112  )
        18           Zn  tau(  18) = (  0.3333333  0.8333333  0.3335445  )
        19           O   tau(  19) = (  0.6666667  0.6666667  0.6265588  )
        20           O   tau(  20) = (  0.3333333  0.8333333  0.4598921  )
        21           Zn  tau(  21) = (  0.6666667  0.6666667  0.8335445  )
        22           Zn  tau(  22) = (  0.3333333  0.8333333  0.6668779  )
        23           O   tau(  23) = (  0.6666667  0.6666667  0.9598921  )
        24           O   tau(  24) = (  0.3333333  0.8333333  0.7932255  )

     number of k points=    80
                       cart. coord. in units 2pi/alat
        k(    1) = (   0.0000000   0.0000000   0.0000000), wk =   0.0092593
        k(    2) = (   0.0000000   0.0000000   0.0366100), wk =   0.0185185
        k(    3) = (   0.0000000   0.0000000   0.0732200), wk =   0.0185185
        k(    4) = (   0.0000000   0.0000000  -0.1098300), wk =   0.0092593
        k(    5) = (   0.0000000   0.0962250   0.0000000), wk =   0.0185185
        k(    6) = (   0.0000000   0.0962250   0.0366100), wk =   0.0185185
        k(    7) = (   0.0000000   0.0962250   0.0732200), wk =   0.0185185
        k(    8) = (   0.0000000   0.0962250  -0.1098300), wk =   0.0185185
        k(    9) = (   0.0000000   0.1924501   0.0000000), wk =   0.0185185
        k(   10) = (   0.0000000   0.1924501   0.0366100), wk =   0.0185185
        k(   11) = (   0.0000000   0.1924501   0.0732200), wk =   0.0185185
        k(   12) = (   0.0000000   0.1924501  -0.1098300), wk =   0.0185185
        k(   13) = (   0.0000000  -0.2886751   0.0000000), wk =   0.0092593
        k(   14) = (   0.0000000  -0.2886751   0.0366100), wk =   0.0185185
        k(   15) = (   0.0000000  -0.2886751   0.0732200), wk =   0.0185185
        k(   16) = (   0.0000000  -0.2886751  -0.1098300), wk =   0.0092593
        k(   17) = (   0.1666667   0.0962250   0.0000000), wk =   0.0370370
        k(   18) = (   0.1666667   0.0962250   0.0366100), wk =   0.0370370
        k(   19) = (   0.1666667   0.0962250   0.0732200), wk =   0.0370370
        k(   20) = (   0.1666667   0.0962250  -0.1098300), wk =   0.0370370
        k(   21) = (   0.1666667   0.1924501   0.0000000), wk =   0.0370370
        k(   22) = (   0.1666667   0.1924501   0.0366100), wk =   0.0370370
        k(   23) = (   0.1666667   0.1924501   0.0732200), wk =   0.0370370
        k(   24) = (   0.1666667   0.1924501  -0.1098300), wk =   0.0370370
        k(   25) = (   0.1666667   0.2886751   0.0000000), wk =   0.0185185
        k(   26) = (   0.1666667   0.2886751   0.0366100), wk =   0.0370370
        k(   27) = (   0.1666667   0.2886751   0.0732200), wk =   0.0370370
        k(   28) = (   0.1666667   0.2886751  -0.1098300), wk =   0.0185185
        k(   29) = (   0.1666667   0.0000000   0.0000000), wk =   0.0185185
        k(   30) = (   0.1666667   0.0000000   0.0366100), wk =   0.0370370
        k(   31) = (   0.1666667   0.0000000   0.0732200), wk =   0.0370370
        k(   32) = (   0.1666667   0.0000000  -0.1098300), wk =   0.0185185
        k(   33) = (   0.3333333   0.1924501   0.0000000), wk =   0.0370370
        k(   34) = (   0.3333333   0.1924501   0.0366100), wk =   0.0370370
        k(   35) = (   0.3333333   0.1924501   0.0732200), wk =   0.0370370
        k(   36) = (   0.3333333   0.1924501  -0.1098300), wk =   0.0370370
        k(   37) = (   0.3333333   0.2886751   0.0000000), wk =   0.0185185
        k(   38) = (   0.3333333   0.2886751   0.0366100), wk =   0.0370370
        k(   39) = (   0.3333333   0.2886751   0.0732200), wk =   0.0370370
        k(   40) = (   0.3333333   0.2886751  -0.1098300), wk =   0.0185185
        k(   41) = (   0.3333333  -0.0962250   0.0000000), wk =   0.0370370
        k(   42) = (   0.3333333  -0.0962250   0.0366100), wk =   0.0370370
        k(   43) = (   0.3333333  -0.0962250   0.0732200), wk =   0.0370370
        k(   44) = (   0.3333333  -0.0962250  -0.1098300), wk =   0.0370370
        k(   45) = (   0.3333333  -0.0000000   0.0000000), wk =   0.0185185
        k(   46) = (   0.3333333  -0.0000000   0.0366100), wk =   0.0370370
        k(   47) = (   0.3333333  -0.0000000   0.0732200), wk =   0.0370370
        k(   48) = (   0.3333333  -0.0000000  -0.1098300), wk =   0.0185185
        k(   49) = (  -0.5000000  -0.2886751   0.0000000), wk =   0.0092593
        k(   50) = (  -0.5000000  -0.2886751   0.0366100), wk =   0.0185185
        k(   51) = (  -0.5000000  -0.2886751   0.0732200), wk =   0.0185185
        k(   52) = (  -0.5000000  -0.2886751  -0.1098300), wk =   0.0092593
        k(   53) = (  -0.5000000  -0.1924501   0.0000000), wk =   0.0185185
        k(   54) = (  -0.5000000  -0.1924501   0.0366100), wk =   0.0185185
        k(   55) = (  -0.5000000  -0.1924501   0.0732200), wk =   0.0185185
        k(   56) = (  -0.5000000  -0.1924501  -0.1098300), wk =   0.0185185
        k(   57) = (  -0.5000000  -0.0962250   0.0000000), wk =   0.0185185
        k(   58) = (  -0.5000000  -0.0962250   0.0366100), wk =   0.0185185
        k(   59) = (  -0.5000000  -0.0962250   0.0732200), wk =   0.0185185
        k(   60) = (  -0.5000000  -0.0962250  -0.1098300), wk =   0.0185185
        k(   61) = (  -0.5000000  -0.5773503   0.0000000), wk =   0.0092593
        k(   62) = (  -0.5000000  -0.5773503   0.0366100), wk =   0.0185185
        k(   63) = (  -0.5000000  -0.5773503   0.0732200), wk =   0.0185185
        k(   64) = (  -0.5000000  -0.5773503  -0.1098300), wk =   0.0092593
        k(   65) = (   0.0000000   0.0962250  -0.0366100), wk =   0.0185185
        k(   66) = (   0.0000000   0.0962250  -0.0732200), wk =   0.0185185
        k(   67) = (   0.0000000   0.1924501  -0.0366100), wk =   0.0185185
        k(   68) = (   0.0000000   0.1924501  -0.0732200), wk =   0.0185185
        k(   69) = (  -0.1666667   0.0962250  -0.0366100), wk =   0.0370370
        k(   70) = (  -0.1666667   0.0962250  -0.0732200), wk =   0.0370370
        k(   71) = (  -0.1666667   0.1924501  -0.0366100), wk =   0.0370370
        k(   72) = (  -0.1666667   0.1924501  -0.0732200), wk =   0.0370370
        k(   73) = (  -0.3333333   0.1924501  -0.0366100), wk =   0.0370370
        k(   74) = (  -0.3333333   0.1924501  -0.0732200), wk =   0.0370370
        k(   75) = (  -0.3333333  -0.0962250  -0.0366100), wk =   0.0370370
        k(   76) = (  -0.3333333  -0.0962250  -0.0732200), wk =   0.0370370
        k(   77) = (   0.5000000  -0.1924501  -0.0366100), wk =   0.0185185
        k(   78) = (   0.5000000  -0.1924501  -0.0732200), wk =   0.0185185
        k(   79) = (   0.5000000  -0.0962250  -0.0366100), wk =   0.0185185
        k(   80) = (   0.5000000  -0.0962250  -0.0732200), wk =   0.0185185

                       cryst. coord.
        k(    1) = (   0.0000000   0.0000000   0.0000000), wk =   0.0092593
        k(    2) = (   0.0000000   0.0000000   0.1666667), wk =   0.0185185
        k(    3) = (   0.0000000   0.0000000   0.3333333), wk =   0.0185185
        k(    4) = (   0.0000000   0.0000000  -0.5000000), wk =   0.0092593
        k(    5) = (   0.0000000   0.1666667   0.0000000), wk =   0.0185185
        k(    6) = (   0.0000000   0.1666667   0.1666667), wk =   0.0185185
        k(    7) = (   0.0000000   0.1666667   0.3333333), wk =   0.0185185
        k(    8) = (   0.0000000   0.1666667  -0.5000000), wk =   0.0185185
        k(    9) = (   0.0000000   0.3333333   0.0000000), wk =   0.0185185
        k(   10) = (   0.0000000   0.3333333   0.1666667), wk =   0.0185185
        k(   11) = (   0.0000000   0.3333333   0.3333333), wk =   0.0185185
        k(   12) = (   0.0000000   0.3333333  -0.5000000), wk =   0.0185185
        k(   13) = (   0.0000000  -0.5000000   0.0000000), wk =   0.0092593
        k(   14) = (   0.0000000  -0.5000000   0.1666667), wk =   0.0185185
        k(   15) = (   0.0000000  -0.5000000   0.3333333), wk =   0.0185185
        k(   16) = (   0.0000000  -0.5000000  -0.5000000), wk =   0.0092593
        k(   17) = (   0.1666667   0.0000000   0.0000000), wk =   0.0370370
        k(   18) = (   0.1666667   0.0000000   0.1666667), wk =   0.0370370
        k(   19) = (   0.1666667   0.0000000   0.3333333), wk =   0.0370370
        k(   20) = (   0.1666667   0.0000000  -0.5000000), wk =   0.0370370
        k(   21) = (   0.1666667   0.1666667   0.0000000), wk =   0.0370370
        k(   22) = (   0.1666667   0.1666667   0.1666667), wk =   0.0370370
        k(   23) = (   0.1666667   0.1666667   0.3333333), wk =   0.0370370
        k(   24) = (   0.1666667   0.1666667  -0.5000000), wk =   0.0370370
        k(   25) = (   0.1666667   0.3333333   0.0000000), wk =   0.0185185
        k(   26) = (   0.1666667   0.3333333   0.1666667), wk =   0.0370370
        k(   27) = (   0.1666667   0.3333333   0.3333333), wk =   0.0370370
        k(   28) = (   0.1666667   0.3333333  -0.5000000), wk =   0.0185185
        k(   29) = (   0.1666667  -0.1666667   0.0000000), wk =   0.0185185
        k(   30) = (   0.1666667  -0.1666667   0.1666667), wk =   0.0370370
        k(   31) = (   0.1666667  -0.1666667   0.3333333), wk =   0.0370370
        k(   32) = (   0.1666667  -0.1666667  -0.5000000), wk =   0.0185185
        k(   33) = (   0.3333333   0.0000000   0.0000000), wk =   0.0370370
        k(   34) = (   0.3333333   0.0000000   0.1666667), wk =   0.0370370
        k(   35) = (   0.3333333   0.0000000   0.3333333), wk =   0.0370370
        k(   36) = (   0.3333333   0.0000000  -0.5000000), wk =   0.0370370
        k(   37) = (   0.3333333   0.1666667   0.0000000), wk =   0.0185185
        k(   38) = (   0.3333333   0.1666667   0.1666667), wk =   0.0370370
        k(   39) = (   0.3333333   0.1666667   0.3333333), wk =   0.0370370
        k(   40) = (   0.3333333   0.1666667  -0.5000000), wk =   0.0185185
        k(   41) = (   0.3333333  -0.5000000   0.0000000), wk =   0.0370370
        k(   42) = (   0.3333333  -0.5000000   0.1666667), wk =   0.0370370
        k(   43) = (   0.3333333  -0.5000000   0.3333333), wk =   0.0370370
        k(   44) = (   0.3333333  -0.5000000  -0.5000000), wk =   0.0370370
        k(   45) = (   0.3333333  -0.3333333   0.0000000), wk =   0.0185185
        k(   46) = (   0.3333333  -0.3333333   0.1666667), wk =   0.0370370
        k(   47) = (   0.3333333  -0.3333333   0.3333333), wk =   0.0370370
        k(   48) = (   0.3333333  -0.3333333  -0.5000000), wk =   0.0185185
        k(   49) = (  -0.5000000   0.0000000   0.0000000), wk =   0.0092593
        k(   50) = (  -0.5000000   0.0000000   0.1666667), wk =   0.0185185
        k(   51) = (  -0.5000000   0.0000000   0.3333333), wk =   0.0185185
        k(   52) = (  -0.5000000   0.0000000  -0.5000000), wk =   0.0092593
        k(   53) = (  -0.5000000   0.1666667   0.0000000), wk =   0.0185185
        k(   54) = (  -0.5000000   0.1666667   0.1666667), wk =   0.0185185
        k(   55) = (  -0.5000000   0.1666667   0.3333333), wk =   0.0185185
        k(   56) = (  -0.5000000   0.1666667  -0.5000000), wk =   0.0185185
        k(   57) = (  -0.5000000   0.3333333   0.0000000), wk =   0.0185185
        k(   58) = (  -0.5000000   0.3333333   0.1666667), wk =   0.0185185
        k(   59) = (  -0.5000000   0.3333333   0.3333333), wk =   0.0185185
        k(   60) = (  -0.5000000   0.3333333  -0.5000000), wk =   0.0185185
        k(   61) = (  -0.5000000  -0.5000000   0.0000000), wk =   0.0092593
        k(   62) = (  -0.5000000  -0.5000000   0.1666667), wk =   0.0185185
        k(   63) = (  -0.5000000  -0.5000000   0.3333333), wk =   0.0185185
        k(   64) = (  -0.5000000  -0.5000000  -0.5000000), wk =   0.0092593
        k(   65) = (   0.0000000   0.1666667  -0.1666667), wk =   0.0185185
        k(   66) = (   0.0000000   0.1666667  -0.3333333), wk =   0.0185185
        k(   67) = (   0.0000000   0.3333333  -0.1666667), wk =   0.0185185
        k(   68) = (   0.0000000   0.3333333  -0.3333333), wk =   0.0185185
        k(   69) = (  -0.1666667   0.3333333  -0.1666667), wk =   0.0370370
        k(   70) = (  -0.1666667   0.3333333  -0.3333333), wk =   0.0370370
        k(   71) = (  -0.1666667   0.5000000  -0.1666667), wk =   0.0370370
        k(   72) = (  -0.1666667   0.5000000  -0.3333333), wk =   0.0370370
        k(   73) = (  -0.3333333   0.6666667  -0.1666667), wk =   0.0370370
        k(   74) = (  -0.3333333   0.6666667  -0.3333333), wk =   0.0370370
        k(   75) = (  -0.3333333   0.1666667  -0.1666667), wk =   0.0370370
        k(   76) = (  -0.3333333   0.1666667  -0.3333333), wk =   0.0370370
        k(   77) = (   0.5000000  -0.8333333  -0.1666667), wk =   0.0185185
        k(   78) = (   0.5000000  -0.8333333  -0.3333333), wk =   0.0185185
        k(   79) = (   0.5000000  -0.6666667  -0.1666667), wk =   0.0185185
        k(   80) = (   0.5000000  -0.6666667  -0.3333333), wk =   0.0185185

     Dense  grid:   236591 G-vectors     FFT dimensions: (  40,  80, 180)

     Smooth grid:    83597 G-vectors     FFT dimensions: (  27,  60, 125)

     Dynamical RAM for                 wfc:       4.31 MB

     Dynamical RAM for     wfc (w. buffer):      47.37 MB

     Dynamical RAM for           str. fact:       1.81 MB

     Dynamical RAM for           local pot:       0.00 MB

     Dynamical RAM for          nlocal pot:      12.44 MB

     Dynamical RAM for                qrad:       3.21 MB

     Dynamical RAM for          rho,v,vnew:       6.00 MB

     Dynamical RAM for               rhoin:       2.00 MB

     Dynamical RAM for            rho*nmix:      14.44 MB

     Dynamical RAM for           G-vectors:       3.54 MB

     Dynamical RAM for          h,s,v(r/c):       0.53 MB

     Dynamical RAM for          <psi|beta>:       0.51 MB

     Dynamical RAM for                 psi:       8.61 MB

     Dynamical RAM for                hpsi:       8.61 MB

     Dynamical RAM for                spsi:       8.61 MB

     Dynamical RAM for      wfcinit/wfcrot:      13.00 MB

     Dynamical RAM for           addusdens:      23.13 MB

     Dynamical RAM for          addusforce:      25.32 MB

     Estimated static dynamical RAM per process >      84.57 MB

     Estimated max dynamical RAM per process >     125.90 MB

     Estimated total dynamical RAM >       3.54 GB

     Check: negative core charge=   -0.000002

     Initial potential from superposition of free atoms

     starting charge     215.9553, renormalised to     216.0000
     Starting wfcs are  156 randomized atomic wfcs

     total cpu time spent up to now is       21.6 secs

     per-process dynamical memory:   113.6 Mb

     Self-consistent Calculation

     iteration #  1     ecut=    50.00 Ry     beta= 0.30
     Davidson diagonalization with overlap

---- Real-time Memory Report at c_bands before calling an iterative solver
           140 MiB given to the printing process from OS
           110 MiB allocation reported by mallinfo(arena+hblkhd)
        103133 MiB available memory on the node where the printing process lives
------------------
     ethr =  1.00E-02,  avg # of iterations =  2.0

     total cpu time spent up to now is       55.6 secs

     total energy              =   -2168.72700316 Ry
     estimated scf accuracy    <       4.07937429 Ry

     iteration #  2     ecut=    50.00 Ry     beta= 0.30
     Davidson diagonalization with overlap

---- Real-time Memory Report at c_bands before calling an iterative solver
           160 MiB given to the printing process from OS
           131 MiB allocation reported by mallinfo(arena+hblkhd)
         99119 MiB available memory on the node where the printing process lives
------------------
     ethr =  1.89E-03,  avg # of iterations =  2.0

     total cpu time spent up to now is       96.6 secs

     total energy              =   -2169.13732066 Ry
     estimated scf accuracy    <       0.67258690 Ry

     iteration #  3     ecut=    50.00 Ry     beta= 0.30
     Davidson diagonalization with overlap

---- Real-time Memory Report at c_bands before calling an iterative solver
           163 MiB given to the printing process from OS
           133 MiB allocation reported by mallinfo(arena+hblkhd)
         99094 MiB available memory on the node where the printing process lives
------------------
     ethr =  3.11E-04,  avg # of iterations =  7.1

     total cpu time spent up to now is      170.7 secs

     total energy              =   -2169.42846491 Ry
     estimated scf accuracy    <       0.45589128 Ry

     iteration #  4     ecut=    50.00 Ry     beta= 0.30
     Davidson diagonalization with overlap

---- Real-time Memory Report at c_bands before calling an iterative solver
           163 MiB given to the printing process from OS
           134 MiB allocation reported by mallinfo(arena+hblkhd)
         99107 MiB available memory on the node where the printing process lives
------------------
     ethr =  2.11E-04,  avg # of iterations =  6.0

     total cpu time spent up to now is      233.5 secs

     total energy              =   -2169.73880754 Ry
     estimated scf accuracy    <       0.19561829 Ry

     iteration #  5     ecut=    50.00 Ry     beta= 0.30
     Davidson diagonalization with overlap

---- Real-time Memory Report at c_bands before calling an iterative solver
           164 MiB given to the printing process from OS
           134 MiB allocation reported by mallinfo(arena+hblkhd)
         99094 MiB available memory on the node where the printing process lives
------------------
     ethr =  9.06E-05,  avg # of iterations =  5.2

     total cpu time spent up to now is      297.6 secs

     total energy              =   -2169.47656971 Ry
     estimated scf accuracy    <       0.59746639 Ry

     iteration #  6     ecut=    50.00 Ry     beta= 0.30
     Davidson diagonalization with overlap

---- Real-time Memory Report at c_bands before calling an iterative solver
           165 MiB given to the printing process from OS
           139 MiB allocation reported by mallinfo(arena+hblkhd)
         99097 MiB available memory on the node where the printing process lives
------------------
     ethr =  9.06E-05,  avg # of iterations =  6.0

     total cpu time spent up to now is      366.6 secs

     total energy              =   -2169.59622032 Ry
     estimated scf accuracy    <       0.00088634 Ry

     iteration #  7     ecut=    50.00 Ry     beta= 0.30
     Davidson diagonalization with overlap

---- Real-time Memory Report at c_bands before calling an iterative solver
           165 MiB given to the printing process from OS
           139 MiB allocation reported by mallinfo(arena+hblkhd)
         99055 MiB available memory on the node where the printing process lives
------------------
     c_bands:  1 eigenvalues not converged
     c_bands:  1 eigenvalues not converged
     c_bands:  1 eigenvalues not converged
     c_bands:  1 eigenvalues not converged
     c_bands:  1 eigenvalues not converged
     ethr =  4.10E-07,  avg # of iterations = 13.1

     total cpu time spent up to now is      495.6 secs

     total energy              =   -2169.59890993 Ry
     estimated scf accuracy    <       0.01875794 Ry

     iteration #  8     ecut=    50.00 Ry     beta= 0.30
     Davidson diagonalization with overlap

---- Real-time Memory Report at c_bands before calling an iterative solver
           167 MiB given to the printing process from OS
           140 MiB allocation reported by mallinfo(arena+hblkhd)
         99057 MiB available memory on the node where the printing process lives
------------------
     ethr =  4.10E-07,  avg # of iterations =  9.4

     total cpu time spent up to now is      586.6 secs

     total energy              =   -2169.60008765 Ry
     estimated scf accuracy    <       0.00172315 Ry

     iteration #  9     ecut=    50.00 Ry     beta= 0.30
     Davidson diagonalization with overlap

---- Real-time Memory Report at c_bands before calling an iterative solver
           167 MiB given to the printing process from OS
           140 MiB allocation reported by mallinfo(arena+hblkhd)
         99048 MiB available memory on the node where the printing process lives
------------------
     ethr =  4.10E-07,  avg # of iterations =  3.4

     total cpu time spent up to now is      624.9 secs

     total energy              =   -2169.59990108 Ry
     estimated scf accuracy    <       0.00062093 Ry

     iteration # 10     ecut=    50.00 Ry     beta= 0.30
     Davidson diagonalization with overlap

---- Real-time Memory Report at c_bands before calling an iterative solver
           168 MiB given to the printing process from OS
           140 MiB allocation reported by mallinfo(arena+hblkhd)
         99042 MiB available memory on the node where the printing process lives
------------------
     ethr =  2.87E-07,  avg # of iterations =  6.8

     total cpu time spent up to now is      688.4 secs

     total energy              =   -2169.60025356 Ry
     estimated scf accuracy    <       0.00013848 Ry

     iteration # 11     ecut=    50.00 Ry     beta= 0.30
     Davidson diagonalization with overlap

---- Real-time Memory Report at c_bands before calling an iterative solver
           169 MiB given to the printing process from OS
           140 MiB allocation reported by mallinfo(arena+hblkhd)
         99048 MiB available memory on the node where the printing process lives
------------------
     ethr =  6.41E-08,  avg # of iterations =  2.9

     total cpu time spent up to now is      726.6 secs

     total energy              =   -2169.60025997 Ry
     estimated scf accuracy    <       0.00001825 Ry

     iteration # 12     ecut=    50.00 Ry     beta= 0.30
     Davidson diagonalization with overlap

---- Real-time Memory Report at c_bands before calling an iterative solver
           169 MiB given to the printing process from OS
           140 MiB allocation reported by mallinfo(arena+hblkhd)
         99048 MiB available memory on the node where the printing process lives
------------------
     ethr =  8.45E-09,  avg # of iterations =  8.5

     total cpu time spent up to now is      816.6 secs

     total energy              =   -2169.60029080 Ry
     estimated scf accuracy    <       0.00005978 Ry

     iteration # 13     ecut=    50.00 Ry     beta= 0.30
     Davidson diagonalization with overlap

---- Real-time Memory Report at c_bands before calling an iterative solver
           169 MiB given to the printing process from OS
           140 MiB allocation reported by mallinfo(arena+hblkhd)
         99048 MiB available memory on the node where the printing process lives
------------------
     ethr =  8.45E-09,  avg # of iterations =  1.5

     total cpu time spent up to now is      846.5 secs

     total energy              =   -2169.60027267 Ry
     estimated scf accuracy    <       0.00003795 Ry

     iteration # 14     ecut=    50.00 Ry     beta= 0.30
     Davidson diagonalization with overlap

---- Real-time Memory Report at c_bands before calling an iterative solver
           169 MiB given to the printing process from OS
           140 MiB allocation reported by mallinfo(arena+hblkhd)
         99042 MiB available memory on the node where the printing process lives
------------------
     ethr =  8.45E-09,  avg # of iterations =  6.9

     total cpu time spent up to now is      914.7 secs

     total energy              =   -2169.60028455 Ry
     estimated scf accuracy    <       0.00000165 Ry

     iteration # 15     ecut=    50.00 Ry     beta= 0.30
     Davidson diagonalization with overlap

---- Real-time Memory Report at c_bands before calling an iterative solver
           169 MiB given to the printing process from OS
           142 MiB allocation reported by mallinfo(arena+hblkhd)
         99045 MiB available memory on the node where the printing process lives
------------------
     ethr =  7.62E-10,  avg # of iterations =  5.6

     total cpu time spent up to now is      970.5 secs

     total energy              =   -2169.60028525 Ry
     estimated scf accuracy    <       0.00000006 Ry

     iteration # 16     ecut=    50.00 Ry     beta= 0.30
     Davidson diagonalization with overlap

---- Real-time Memory Report at c_bands before calling an iterative solver
           169 MiB given to the printing process from OS
           142 MiB allocation reported by mallinfo(arena+hblkhd)
         99040 MiB available memory on the node where the printing process lives
------------------
     ethr =  2.90E-11,  avg # of iterations =  9.5

     total cpu time spent up to now is     1061.0 secs

     total energy              =   -2169.60028547 Ry
     estimated scf accuracy    <       0.00000030 Ry

     iteration # 17     ecut=    50.00 Ry     beta= 0.30
     Davidson diagonalization with overlap

---- Real-time Memory Report at c_bands before calling an iterative solver
           169 MiB given to the printing process from OS
           142 MiB allocation reported by mallinfo(arena+hblkhd)
         99040 MiB available memory on the node where the printing process lives
------------------
     ethr =  2.90E-11,  avg # of iterations =  2.1

     total cpu time spent up to now is     1093.7 secs

     total energy              =   -2169.60028536 Ry
     estimated scf accuracy    <       0.00000044 Ry

     iteration # 18     ecut=    50.00 Ry     beta= 0.30
     Davidson diagonalization with overlap

---- Real-time Memory Report at c_bands before calling an iterative solver
           169 MiB given to the printing process from OS
           142 MiB allocation reported by mallinfo(arena+hblkhd)
         99040 MiB available memory on the node where the printing process lives
------------------
     ethr =  2.90E-11,  avg # of iterations =  2.0

     total cpu time spent up to now is     1126.6 secs

     total energy              =   -2169.60028530 Ry
     estimated scf accuracy    <       0.00000024 Ry

     iteration # 19     ecut=    50.00 Ry     beta= 0.30
     Davidson diagonalization with overlap

---- Real-time Memory Report at c_bands before calling an iterative solver
           169 MiB given to the printing process from OS
           142 MiB allocation reported by mallinfo(arena+hblkhd)
         99041 MiB available memory on the node where the printing process lives
------------------
     ethr =  2.90E-11,  avg # of iterations =  5.2

     total cpu time spent up to now is     1186.4 secs

     total energy              =   -2169.60028533 Ry
     estimated scf accuracy    <       0.00000002 Ry

     iteration # 20     ecut=    50.00 Ry     beta= 0.30
     Davidson diagonalization with overlap

---- Real-time Memory Report at c_bands before calling an iterative solver
           169 MiB given to the printing process from OS
           142 MiB allocation reported by mallinfo(arena+hblkhd)
         99040 MiB available memory on the node where the printing process lives
------------------
     ethr =  1.04E-11,  avg # of iterations =  2.4

     total cpu time spent up to now is     1222.5 secs

     total energy              =   -2169.60028532 Ry
     estimated scf accuracy    <       0.00000002 Ry

     iteration # 21     ecut=    50.00 Ry     beta= 0.30
     Davidson diagonalization with overlap

---- Real-time Memory Report at c_bands before calling an iterative solver
           169 MiB given to the printing process from OS
           142 MiB allocation reported by mallinfo(arena+hblkhd)
         99040 MiB available memory on the node where the printing process lives
------------------
     ethr =  1.04E-11,  avg # of iterations =  6.6

     total cpu time spent up to now is     1290.2 secs

     End of self-consistent calculation

          k = 0.0000 0.0000 0.0000 ( 10425 PWs)   bands (ev):

   -10.1310  -9.8930  -9.8930  -9.3971  -9.3971  -9.3302  -9.2385  -9.2385
    -9.1399  -9.0838  -9.0838  -9.0230   1.9990   1.9990   2.0265   2.0265
     2.1942   2.1942   2.2512   2.3615   2.3615   2.4330   2.5025   2.6180
     2.6181   2.6426   2.6468   2.6468   2.6470   2.6470   2.7762   2.7762
     2.7763   2.7763   2.8709   2.8830   2.8831   2.9990   2.9990   3.0583
     3.0583   3.1097   3.1676   3.1676   3.3348   3.3423   3.3423   3.5844
     4.0498   4.0498   4.1025   4.1620   4.1620   4.1621   4.1621   4.2794
     4.2965   4.2965   4.3224   4.3224   4.3225   4.3225   4.3311   4.3311
     4.3511   4.3511   4.3621   4.3622   4.4261   4.4756   4.4756   4.4888
     4.6301   4.9194   4.9194   4.9838   4.9838   5.0318   5.0461   5.7180
     5.7942   5.7942   5.9772   6.5453   6.5453   6.8285   6.8285   7.4300
     7.4672   7.4672   7.4830   7.4830   7.6721   7.6723   7.7139   7.7139
     7.8855   7.9486   7.9486   7.9488   7.9488   8.4898   8.4899   8.4901
     8.4901   8.7510   8.7513   8.7705

     occupation numbers 
     1.0000   1.0000   1.0000   1.0000   1.0000   1.0000   1.0000   1.0000
     1.0000   1.0000   1.0000   1.0000   1.0000   1.0000   1.0000   1.0000
     1.0000   1.0000   1.0000   1.0000   1.0000   1.0000   1.0000   1.0000
     1.0000   1.0000   1.0000   1.0000   1.0000   1.0000   1.0000   1.0000
     1.0000   1.0000   1.0000   1.0000   1.0000   1.0000   1.0000   1.0000
     1.0000   1.0000   1.0000   1.0000   1.0000   1.0000   1.0000   1.0000
     1.0000   1.0000   1.0000   1.0000   1.0000   1.0000   1.0000   1.0000
     1.0000   1.0000   1.0000   1.0000   1.0000   1.0000   1.0000   1.0000
     1.0000   1.0000   1.0000   1.0000   1.0000   1.0000   1.0000   1.0000
     1.0000   1.0000   1.0000   1.0000   1.0000   1.0000   1.0000   1.0000
     1.0000   1.0000   1.0000   1.0000   1.0000   1.0000   1.0000   1.0000
     1.0000   1.0000   1.0000   1.0000   1.0000   1.0000   1.0000   1.0000
     1.0000   1.0000   1.0000   1.0000   1.0000   1.0000   1.0000   1.0000
     1.0000   1.0000   1.0000   1.0000

          k = 0.0000 0.0000 0.0366 ( 10448 PWs)   bands (ev):

   -10.1239  -9.9616  -9.8164  -9.4771  -9.3273  -9.3242  -9.2638  -9.2114
    -9.1478  -9.1054  -9.0653  -9.0247   1.9533   1.9664   2.0546   2.1047
     2.1744   2.2354   2.2411   2.2968   2.4142   2.4302   2.4832   2.6184
     2.6186   2.6324   2.6362   2.6363   2.6609   2.6610   2.7490   2.7491
     2.8033   2.8034   2.8746   2.8791   2.8792   2.9601   3.0443   3.0589
     3.0632   3.1041   3.1366   3.2022   3.2775   3.3271   3.4052   3.5760
     4.0533   4.0533   4.1149   4.1321   4.1321   4.1934   4.1934   4.2798
     4.2881   4.2914   4.3024   4.3036   4.3036   4.3371   4.3371   4.3382
     4.3613   4.3614   4.3655   4.3688   4.4220   4.4641   4.4830   4.4890
     4.6754   4.9214   4.9245   4.9684   4.9988   5.0190   5.0436   5.5080
     5.7668   5.9968   6.0871   6.3956   6.5740   6.7035   7.0721   7.2188
     7.3309   7.4479   7.5884   7.6805   7.6807   7.6873   7.6931   7.7415
     7.8699   7.8701   7.8731   8.0354   8.0357   8.4059   8.4061   8.5652
     8.5654   8.6825   8.7431   8.7434

     occupation numbers 
     1.0000   1.0000   1.0000   1.0000   1.0000   1.0000   1.0000   1.0000
     1.0000   1.0000   1.0000   1.0000   1.0000   1.0000   1.0000   1.0000
     1.0000   1.0000   1.0000   1.0000   1.0000   1.0000   1.0000   1.0000
     1.0000   1.0000   1.0000   1.0000   1.0000   1.0000   1.0000   1.0000
     1.0000   1.0000   1.0000   1.0000   1.0000   1.0000   1.0000   1.0000
     1.0000   1.0000   1.0000   1.0000   1.0000   1.0000   1.0000   1.0000
     1.0000   1.0000   1.0000   1.0000   1.0000   1.0000   1.0000   1.0000
     1.0000   1.0000   1.0000   1.0000   1.0000   1.0000   1.0000   1.0000
     1.0000   1.0000   1.0000   1.0000   1.0000   1.0000   1.0000   1.0000
     1.0000   1.0000   1.0000   1.0000   1.0000   1.0000   1.0000   1.0000
     1.0000   1.0000   1.0000   1.0000   1.0000   1.0000   1.0000   1.0000
     1.0000   1.0000   1.0000   1.0000   1.0000   1.0000   1.0000   1.0000
     1.0000   1.0000   1.0000   1.0000   1.0000   1.0000   1.0000   1.0000
     1.0000   1.0000   1.0000   1.0000

          k = 0.0000 0.0000 0.0732 ( 10456 PWs)   bands (ev):

   -10.1027 -10.0205  -9.7340  -9.5617  -9.3187  -9.2862  -9.2610  -9.1835
    -9.1713  -9.1297  -9.0500  -9.0297   1.9236   1.9285   2.1135   2.1767
     2.1939   2.2126   2.2413   2.2943   2.3613   2.4317   2.4967   2.6027
     2.6200   2.6202   2.6284   2.6286   2.6783   2.6785   2.7229   2.7231
     2.8288   2.8289   2.8681   2.8682   2.8855   2.9282   3.0651   3.0734
     3.0910   3.0957   3.1101   3.2136   3.2392   3.3061   3.4634   3.5519
     4.0641   4.0642   4.1047   4.1047   4.1481   4.2241   4.2241   4.2413
     4.2804   4.2804   4.2815   4.2872   4.3094   4.3270   4.3477   4.3477
     4.3587   4.3587   4.3812   4.4007   4.4118   4.4480   4.4874   4.4895
     4.8037   4.9287   4.9382   4.9534   4.9903   5.0133   5.0366   5.2385
     5.9001   6.0539   6.2597   6.3235   6.3796   6.8653   6.9471   7.1829
     7.2910   7.4976   7.6068   7.6383   7.6919   7.7055   7.7057   7.8017
     7.8019   7.8360   7.9957   8.1275   8.1277   8.3156   8.3159   8.4832
     8.6297   8.6300   8.7199   8.7201

     occupation numbers 
     1.0000   1.0000   1.0000   1.0000   1.0000   1.0000   1.0000   1.0000
     1.0000   1.0000   1.0000   1.0000   1.0000   1.0000   1.0000   1.0000
     1.0000   1.0000   1.0000   1.0000   1.0000   1.0000   1.0000   1.0000
     1.0000   1.0000   1.0000   1.0000   1.0000   1.0000   1.0000   1.0000
     1.0000   1.0000   1.0000   1.0000   1.0000   1.0000   1.0000   1.0000
     1.0000   1.0000   1.0000   1.0000   1.0000   1.0000   1.0000   1.0000
     1.0000   1.0000   1.0000   1.0000   1.0000   1.0000   1.0000   1.0000
     1.0000   1.0000   1.0000   1.0000   1.0000   1.0000   1.0000   1.0000
     1.0000   1.0000   1.0000   1.0000   1.0000   1.0000   1.0000   1.0000
     1.0000   1.0000   1.0000   1.0000   1.0000   1.0000   1.0000   1.0000
     1.0000   1.0000   1.0000   1.0000   1.0000   1.0000   1.0000   1.0000
     1.0000   1.0000   1.0000   1.0000   1.0000   1.0000   1.0000   1.0000
     1.0000   1.0000   1.0000   1.0000   1.0000   1.0000   1.0000   1.0000
     1.0000   1.0000   1.0000   1.0000

          k = 0.0000 0.0000-0.1098 ( 10474 PWs)   bands (ev):

   -10.0679 -10.0679  -9.6483  -9.6483  -9.3048  -9.3048  -9.2094  -9.2094
    -9.1560  -9.1560  -9.0381  -9.0381   1.9145   1.9145   2.1683   2.1683
     2.1999   2.1999   2.2837   2.2837   2.3635   2.3635   2.5557   2.5557
     2.6232   2.6232   2.6234   2.6234   2.6991   2.6991   2.6993   2.6993
     2.8509   2.8509   2.8510   2.8510   2.9034   2.9034   3.0764   3.0764
     3.0891   3.0891   3.1525   3.1525   3.2751   3.2751   3.5134   3.5134
     4.0816   4.0816   4.0816   4.0816   4.1929   4.1929   4.2535   4.2535
     4.2535   4.2535   4.2839   4.2840   4.3177   4.3177   4.3544   4.3544
     4.3544   4.3544   4.3976   4.3976   4.4270   4.4270   4.4891   4.4892
     4.9399   4.9399   4.9608   4.9608   4.9977   4.9977   5.0261   5.0261
     6.0929   6.0929   6.1436   6.1436   6.6672   6.6672   7.0264   7.0264
     7.4726   7.4726   7.5667   7.5667   7.7463   7.7463   7.7465   7.7465
     7.7750   7.7751   8.2219   8.2219   8.2221   8.2221   8.2453   8.2453
     8.6817   8.6817   8.6820   8.6820

     occupation numbers 
     1.0000   1.0000   1.0000   1.0000   1.0000   1.0000   1.0000   1.0000
     1.0000   1.0000   1.0000   1.0000   1.0000   1.0000   1.0000   1.0000
     1.0000   1.0000   1.0000   1.0000   1.0000   1.0000   1.0000   1.0000
     1.0000   1.0000   1.0000   1.0000   1.0000   1.0000   1.0000   1.0000
     1.0000   1.0000   1.0000   1.0000   1.0000   1.0000   1.0000   1.0000
     1.0000   1.0000   1.0000   1.0000   1.0000   1.0000   1.0000   1.0000
     1.0000   1.0000   1.0000   1.0000   1.0000   1.0000   1.0000   1.0000
     1.0000   1.0000   1.0000   1.0000   1.0000   1.0000   1.0000   1.0000
     1.0000   1.0000   1.0000   1.0000   1.0000   1.0000   1.0000   1.0000
     1.0000   1.0000   1.0000   1.0000   1.0000   1.0000   1.0000   1.0000
     1.0000   1.0000   1.0000   1.0000   1.0000   1.0000   1.0000   1.0000
     1.0000   1.0000   1.0000   1.0000   1.0000   1.0000   1.0000   1.0000
     1.0000   1.0000   1.0000   1.0000   1.0000   1.0000   1.0000   1.0000
     1.0000   1.0000   1.0000   1.0000

          k = 0.0000 0.0962 0.0000 ( 10437 PWs)   bands (ev):

   -10.0875  -9.8551  -9.8551  -9.4074  -9.3733  -9.3733  -9.2951  -9.2951
    -9.1250  -9.0954  -9.0954  -9.0105   1.9789   1.9789   2.0680   2.0680
     2.1924   2.1924   2.1985   2.3211   2.3211   2.5110   2.5283   2.5715
     2.6409   2.6667   2.6667   2.6729   2.6730   2.6877   2.7873   2.7873
     2.8076   2.8076   2.8618   2.8818   2.9171   2.9796   2.9796   3.0093
     3.0093   3.0614   3.1407   3.1407   3.2958   3.2958   3.3711   3.5173
     4.0306   4.0476   4.0854   4.1547   4.1547   4.1595   4.1595   4.2371
     4.2506   4.2506   4.2677   4.2677   4.3235   4.3235   4.3303   4.3303
     4.3483   4.3483   4.3683   4.3741   4.4227   4.4706   4.4706   4.5805
     4.6261   4.6354   4.9681   4.9681   5.3257   5.3257   5.3269   5.8092
     5.8092   5.9088   6.1140   6.6495   6.6495   6.7657   6.7657   7.3793
     7.3793   7.4209   7.5431   7.5431   7.5655   7.5786   7.7329   7.7329
     7.7866   7.7866   7.8580   7.8580   7.9519   8.3022   8.3847   8.3847
     8.4272   8.4272   8.7013   8.7166

     occupation numbers 
     1.0000   1.0000   1.0000   1.0000   1.0000   1.0000   1.0000   1.0000
     1.0000   1.0000   1.0000   1.0000   1.0000   1.0000   1.0000   1.0000
     1.0000   1.0000   1.0000   1.0000   1.0000   1.0000   1.0000   1.0000
     1.0000   1.0000   1.0000   1.0000   1.0000   1.0000   1.0000   1.0000
     1.0000   1.0000   1.0000   1.0000   1.0000   1.0000   1.0000   1.0000
     1.0000   1.0000   1.0000   1.0000   1.0000   1.0000   1.0000   1.0000
     1.0000   1.0000   1.0000   1.0000   1.0000   1.0000   1.0000   1.0000
     1.0000   1.0000   1.0000   1.0000   1.0000   1.0000   1.0000   1.0000
     1.0000   1.0000   1.0000   1.0000   1.0000   1.0000   1.0000   1.0000
     1.0000   1.0000   1.0000   1.0000   1.0000   1.0000   1.0000   1.0000
     1.0000   1.0000   1.0000   1.0000   1.0000   1.0000   1.0000   1.0000
     1.0000   1.0000   1.0000   1.0000   1.0000   1.0000   1.0000   1.0000
     1.0000   1.0000   1.0000   1.0000   1.0000   1.0000   1.0000   1.0000
     1.0000   1.0000   1.0000   1.0000

          k = 0.0000 0.0962 0.0366 ( 10443 PWs)   bands (ev):

   -10.0805  -9.9220  -9.7804  -9.4508  -9.4039  -9.3265  -9.3028  -9.2612
    -9.1326  -9.1244  -9.0700  -9.0129   1.9427   1.9981   2.0260   2.1553
     2.1647   2.1899   2.2422   2.2619   2.3835   2.4911   2.5145   2.5567
     2.6415   2.6603   2.6615   2.6779   2.6836   2.6878   2.7610   2.7795
     2.8134   2.8355   2.8653   2.8794   2.9132   2.9437   3.0096   3.0154
     3.0215   3.0562   3.1035   3.1829   3.2365   3.3534   3.3581   3.5097
     4.0348   4.0511   4.0911   4.1218   4.1296   4.1888   4.1909   4.2095
     4.2381   4.2585   4.2784   4.2916   4.3034   4.3091   4.3323   4.3395
     4.3469   4.3647   4.3672   4.3737   4.4195   4.4394   4.4992   4.5780
     4.6444   4.6814   4.9003   5.0339   5.2745   5.3431   5.3686   5.5249
     5.9229   6.0965   6.1321   6.5065   6.5110   6.8015   7.0205   7.1521
     7.4103   7.4298   7.5724   7.5744   7.5953   7.6615   7.6678   7.7321
     7.7749   7.7911   7.8296   7.9398   7.9496   8.2607   8.2773   8.3390
     8.4824   8.5063   8.6931   8.7082

     occupation numbers 
     1.0000   1.0000   1.0000   1.0000   1.0000   1.0000   1.0000   1.0000
     1.0000   1.0000   1.0000   1.0000   1.0000   1.0000   1.0000   1.0000
     1.0000   1.0000   1.0000   1.0000   1.0000   1.0000   1.0000   1.0000
     1.0000   1.0000   1.0000   1.0000   1.0000   1.0000   1.0000   1.0000
     1.0000   1.0000   1.0000   1.0000   1.0000   1.0000   1.0000   1.0000
     1.0000   1.0000   1.0000   1.0000   1.0000   1.0000   1.0000   1.0000
     1.0000   1.0000   1.0000   1.0000   1.0000   1.0000   1.0000   1.0000
     1.0000   1.0000   1.0000   1.0000   1.0000   1.0000   1.0000   1.0000
     1.0000   1.0000   1.0000   1.0000   1.0000   1.0000   1.0000   1.0000
     1.0000   1.0000   1.0000   1.0000   1.0000   1.0000   1.0000   1.0000
     1.0000   1.0000   1.0000   1.0000   1.0000   1.0000   1.0000   1.0000
     1.0000   1.0000   1.0000   1.0000   1.0000   1.0000   1.0000   1.0000
     1.0000   1.0000   1.0000   1.0000   1.0000   1.0000   1.0000   1.0000
     1.0000   1.0000   1.0000   1.0000

          k = 0.0000 0.0962 0.0732 ( 10454 PWs)   bands (ev):

   -10.0598  -9.9795  -9.7002  -9.5329  -9.3935  -9.3540  -9.2417  -9.2260
    -9.1565  -9.1552  -9.0488  -9.0201   1.9234   1.9499   2.0772   2.1598
     2.1645   2.2119   2.2531   2.3102   2.4346   2.4425   2.4644   2.5285
     2.6435   2.6530   2.6593   2.6737   2.6935   2.7061   2.7358   2.7526
     2.8372   2.8616   2.8715   2.8751   2.9020   2.9143   3.0162   3.0279
     3.0431   3.0690   3.0721   3.1777   3.2295   3.3237   3.4066   3.4875
     4.0471   4.0620   4.0919   4.1023   4.1082   4.1703   4.2221   4.2225
     4.2407   4.2509   4.2793   4.2837   4.2902   4.3173   4.3317   4.3512
     4.3590   4.3644   4.3721   4.3812   4.4058   4.4104   4.5253   4.5669
     4.6946   4.8128   4.8308   5.0976   5.2186   5.2541   5.3779   5.3971
     5.9768   6.1849   6.2784   6.3776   6.3789   6.9089   6.9578   7.2577
     7.2661   7.4562   7.5559   7.6009   7.6234   7.6404   7.7028   7.7569
     7.7625   7.8113   7.9034   7.9364   8.0465   8.1492   8.1640   8.2443
     8.5664   8.5740   8.6686   8.6810

     occupation numbers 
     1.0000   1.0000   1.0000   1.0000   1.0000   1.0000   1.0000   1.0000
     1.0000   1.0000   1.0000   1.0000   1.0000   1.0000   1.0000   1.0000
     1.0000   1.0000   1.0000   1.0000   1.0000   1.0000   1.0000   1.0000
     1.0000   1.0000   1.0000   1.0000   1.0000   1.0000   1.0000   1.0000
     1.0000   1.0000   1.0000   1.0000   1.0000   1.0000   1.0000   1.0000
     1.0000   1.0000   1.0000   1.0000   1.0000   1.0000   1.0000   1.0000
     1.0000   1.0000   1.0000   1.0000   1.0000   1.0000   1.0000   1.0000
     1.0000   1.0000   1.0000   1.0000   1.0000   1.0000   1.0000   1.0000
     1.0000   1.0000   1.0000   1.0000   1.0000   1.0000   1.0000   1.0000
     1.0000   1.0000   1.0000   1.0000   1.0000   1.0000   1.0000   1.0000
     1.0000   1.0000   1.0000   1.0000   1.0000   1.0000   1.0000   1.0000
     1.0000   1.0000   1.0000   1.0000   1.0000   1.0000   1.0000   1.0000
     1.0000   1.0000   1.0000   1.0000   1.0000   1.0000   1.0000   1.0000
     1.0000   1.0000   1.0000   1.0000

          k = 0.0000 0.0962-0.1098 ( 10468 PWs)   bands (ev):

   -10.0258 -10.0258  -9.6169  -9.6169  -9.3767  -9.3766  -9.1920  -9.1919
    -9.1907  -9.1907  -9.0321  -9.0321   1.9251   1.9251   2.1254   2.1254
     2.1766   2.1766   2.3506   2.3506   2.3889   2.3889   2.4919   2.4919
     2.6472   2.6472   2.6640   2.6640   2.7130   2.7130   2.7279   2.7279
     2.8572   2.8572   2.8844   2.8844   2.8913   2.8913   3.0281   3.0281
     3.0469   3.0469   3.1214   3.1214   3.2780   3.2780   3.4522   3.4522
     4.0666   4.0666   4.0794   4.0794   4.1355   4.1355   4.2450   4.2450
     4.2519   4.2519   4.2546   4.2546   4.3032   4.3032   4.3593   4.3593
     4.3674   4.3674   4.3697   4.3697   4.3969   4.3969   4.5484   4.5484
     4.7607   4.7607   5.0106   5.0106   5.1593   5.1593   5.4016   5.4016
     6.0937   6.0937   6.2684   6.2684   6.6507   6.6507   7.1140   7.1140
     7.4626   7.4626   7.4993   7.4993   7.6442   7.6442   7.7003   7.7003
     7.8438   7.8439   7.9925   7.9925   8.0491   8.0491   8.1458   8.1458
     8.6286   8.6286   8.6334   8.6334

     occupation numbers 
     1.0000   1.0000   1.0000   1.0000   1.0000   1.0000   1.0000   1.0000
     1.0000   1.0000   1.0000   1.0000   1.0000   1.0000   1.0000   1.0000
     1.0000   1.0000   1.0000   1.0000   1.0000   1.0000   1.0000   1.0000
     1.0000   1.0000   1.0000   1.0000   1.0000   1.0000   1.0000   1.0000
     1.0000   1.0000   1.0000   1.0000   1.0000   1.0000   1.0000   1.0000
     1.0000   1.0000   1.0000   1.0000   1.0000   1.0000   1.0000   1.0000
     1.0000   1.0000   1.0000   1.0000   1.0000   1.0000   1.0000   1.0000
     1.0000   1.0000   1.0000   1.0000   1.0000   1.0000   1.0000   1.0000
     1.0000   1.0000   1.0000   1.0000   1.0000   1.0000   1.0000   1.0000
     1.0000   1.0000   1.0000   1.0000   1.0000   1.0000   1.0000   1.0000
     1.0000   1.0000   1.0000   1.0000   1.0000   1.0000   1.0000   1.0000
     1.0000   1.0000   1.0000   1.0000   1.0000   1.0000   1.0000   1.0000
     1.0000   1.0000   1.0000   1.0000   1.0000   1.0000   1.0000   1.0000
     1.0000   1.0000   1.0000   1.0000

          k = 0.0000 0.1925 0.0000 ( 10448 PWs)   bands (ev):

    -9.9644  -9.7488  -9.7488  -9.5822  -9.4309  -9.4309  -9.3088  -9.3088
    -9.1433  -9.1433  -9.0862  -9.0100   1.9996   1.9996   2.1204   2.1204
     2.1690   2.1690   2.1835   2.2287   2.2287   2.4009   2.6096   2.6785
     2.7008   2.7233   2.7233   2.7382   2.7432   2.7432   2.8306   2.8338
     2.8338   2.8966   2.8966   2.9090   2.9090   2.9225   2.9225   2.9419
     2.9534   3.0163   3.0511   3.0511   3.1762   3.1762   3.3546   3.3748
     3.9647   3.9793   4.0518   4.1385   4.1385   4.1531   4.1585   4.1585
     4.1595   4.1595   4.2139   4.2139   4.3260   4.3260   4.3389   4.3389
     4.3526   4.3526   4.3635   4.3829   4.3869   4.4129   4.4248   4.4248
     4.6751   4.8401   5.3670   5.3670   5.4551   5.8319   5.8319   5.8440
     5.8440   6.4430   6.4542   6.6884   6.6884   6.7829   6.9208   6.9208
     6.9930   6.9930   7.2686   7.2686   7.2758   7.6111   7.6111   7.6662
     7.7434   7.7434   7.9127   7.9317   7.9317   8.1262   8.2095   8.2095
     8.2518   8.2518   8.5457   8.5584

     occupation numbers 
     1.0000   1.0000   1.0000   1.0000   1.0000   1.0000   1.0000   1.0000
     1.0000   1.0000   1.0000   1.0000   1.0000   1.0000   1.0000   1.0000
     1.0000   1.0000   1.0000   1.0000   1.0000   1.0000   1.0000   1.0000
     1.0000   1.0000   1.0000   1.0000   1.0000   1.0000   1.0000   1.0000
     1.0000   1.0000   1.0000   1.0000   1.0000   1.0000   1.0000   1.0000
     1.0000   1.0000   1.0000   1.0000   1.0000   1.0000   1.0000   1.0000
     1.0000   1.0000   1.0000   1.0000   1.0000   1.0000   1.0000   1.0000
     1.0000   1.0000   1.0000   1.0000   1.0000   1.0000   1.0000   1.0000
     1.0000   1.0000   1.0000   1.0000   1.0000   1.0000   1.0000   1.0000
     1.0000   1.0000   1.0000   1.0000   1.0000   1.0000   1.0000   1.0000
     1.0000   1.0000   1.0000   1.0000   1.0000   1.0000   1.0000   1.0000
     1.0000   1.0000   1.0000   1.0000   1.0000   1.0000   1.0000   1.0000
     1.0000   1.0000   1.0000   1.0000   1.0000   1.0000   1.0000   1.0000
     1.0000   1.0000   1.0000   1.0000

          k = 0.0000 0.1925 0.0366 ( 10439 PWs)   bands (ev):

    -9.9579  -9.8107  -9.6800  -9.5775  -9.4737  -9.3840  -9.3789  -9.2453
    -9.1870  -9.1043  -9.0930  -9.0139   1.9700   2.0392   2.0448   2.1281
     2.1758   2.1763   2.2155   2.2266   2.2932   2.3941   2.5877   2.6436
     2.7018   2.7219   2.7290   2.7305   2.7417   2.7612   2.8071   2.8331
     2.8609   2.8656   2.8942   2.9091   2.9156   2.9274   2.9380   2.9493
     2.9559   3.0107   3.0120   3.0985   3.1284   3.2226   3.3484   3.3486
     3.9709   3.9853   4.0554   4.0985   4.1098   4.1297   4.1549   4.1798
     4.1892   4.1965   4.2098   4.2332   4.3038   4.3182   4.3263   4.3446
     4.3582   4.3735   4.3815   4.3893   4.3905   4.3916   4.4104   4.4518
     4.7196   4.8618   5.2655   5.4621   5.4772   5.5637   5.7920   5.8501
     6.0886   6.4317   6.4693   6.4843   6.7931   6.7931   6.8769   6.9425
     7.0037   7.0583   7.2794   7.2861   7.3739   7.5165   7.6195   7.6428
     7.7149   7.8195   7.8541   7.9248   7.9919   8.0532   8.1148   8.1531
     8.3394   8.3403   8.5437   8.5492

     occupation numbers 
     1.0000   1.0000   1.0000   1.0000   1.0000   1.0000   1.0000   1.0000
     1.0000   1.0000   1.0000   1.0000   1.0000   1.0000   1.0000   1.0000
     1.0000   1.0000   1.0000   1.0000   1.0000   1.0000   1.0000   1.0000
     1.0000   1.0000   1.0000   1.0000   1.0000   1.0000   1.0000   1.0000
     1.0000   1.0000   1.0000   1.0000   1.0000   1.0000   1.0000   1.0000
     1.0000   1.0000   1.0000   1.0000   1.0000   1.0000   1.0000   1.0000
     1.0000   1.0000   1.0000   1.0000   1.0000   1.0000   1.0000   1.0000
     1.0000   1.0000   1.0000   1.0000   1.0000   1.0000   1.0000   1.0000
     1.0000   1.0000   1.0000   1.0000   1.0000   1.0000   1.0000   1.0000
     1.0000   1.0000   1.0000   1.0000   1.0000   1.0000   1.0000   1.0000
     1.0000   1.0000   1.0000   1.0000   1.0000   1.0000   1.0000   1.0000
     1.0000   1.0000   1.0000   1.0000   1.0000   1.0000   1.0000   1.0000
     1.0000   1.0000   1.0000   1.0000   1.0000   1.0000   1.0000   1.0000
     1.0000   1.0000   1.0000   1.0000

          k = 0.0000 0.1925 0.0732 ( 10432 PWs)   bands (ev):

    -9.9386  -9.8640  -9.6063  -9.5637  -9.5109  -9.4534  -9.3345  -9.2344
    -9.1904  -9.1131  -9.0713  -9.0256   1.9562   1.9918   2.0824   2.1091
     2.1357   2.1554   2.2876   2.3230   2.3721   2.3733   2.5249   2.5640
     2.7048   2.7180   2.7257   2.7402   2.7431   2.7823   2.7828   2.8356
     2.8406   2.8711   2.8866   2.9152   2.9267   2.9291   2.9387   2.9559
     2.9769   2.9938   2.9999   3.0811   3.1537   3.2654   3.2871   3.3305
     3.9905   4.0025   4.0611   4.0633   4.0656   4.1037   4.1605   4.1815
     4.2201   4.2206   4.2537   4.2593   4.2783   4.2951   4.2968   4.3507
     4.3592   4.3760   4.3771   4.3885   4.3979   4.4030   4.4369   4.4675
     4.8511   4.9305   5.1549   5.2979   5.5444   5.5526   5.7202   5.7770
     6.3243   6.3831   6.4032   6.5138   6.6797   6.7187   6.8236   6.9389
     7.2009   7.2036   7.3168   7.3774   7.4340   7.4854   7.5264   7.5782
     7.6558   7.8244   7.8794   7.9487   7.9551   8.0066   8.0469   8.0807
     8.4160   8.4367   8.5219   8.5323

     occupation numbers 
     1.0000   1.0000   1.0000   1.0000   1.0000   1.0000   1.0000   1.0000
     1.0000   1.0000   1.0000   1.0000   1.0000   1.0000   1.0000   1.0000
     1.0000   1.0000   1.0000   1.0000   1.0000   1.0000   1.0000   1.0000
     1.0000   1.0000   1.0000   1.0000   1.0000   1.0000   1.0000   1.0000
     1.0000   1.0000   1.0000   1.0000   1.0000   1.0000   1.0000   1.0000
     1.0000   1.0000   1.0000   1.0000   1.0000   1.0000   1.0000   1.0000
     1.0000   1.0000   1.0000   1.0000   1.0000   1.0000   1.0000   1.0000
     1.0000   1.0000   1.0000   1.0000   1.0000   1.0000   1.0000   1.0000
     1.0000   1.0000   1.0000   1.0000   1.0000   1.0000   1.0000   1.0000
     1.0000   1.0000   1.0000   1.0000   1.0000   1.0000   1.0000   1.0000
     1.0000   1.0000   1.0000   1.0000   1.0000   1.0000   1.0000   1.0000
     1.0000   1.0000   1.0000   1.0000   1.0000   1.0000   1.0000   1.0000
     1.0000   1.0000   1.0000   1.0000   1.0000   1.0000   1.0000   1.0000
     1.0000   1.0000   1.0000   1.0000

          k = 0.0000 0.1925-0.1098 ( 10426 PWs)   bands (ev):

    -9.9070  -9.9070  -9.5413  -9.5413  -9.5300  -9.5300  -9.2841  -9.2841
    -9.1459  -9.1459  -9.0449  -9.0448   1.9626   1.9626   2.1123   2.1123
     2.1229   2.1229   2.3379   2.3379   2.4313   2.4314   2.4666   2.4666
     2.7101   2.7101   2.7330   2.7330   2.7607   2.7607   2.8077   2.8077
     2.8533   2.8533   2.9091   2.9091   2.9259   2.9259   2.9497   2.9497
     2.9806   2.9806   3.0358   3.0358   3.2176   3.2176   3.3021   3.3022
     4.0223   4.0223   4.0285   4.0285   4.0819   4.0819   4.1694   4.1694
     4.2503   4.2503   4.2594   4.2594   4.2752   4.2752   4.3066   4.3066
     4.3700   4.3700   4.3910   4.3910   4.3968   4.3968   4.4653   4.4653
     5.0374   5.0374   5.0526   5.0527   5.6391   5.6391   5.6535   5.6535
     6.3749   6.3750   6.5344   6.5344   6.5851   6.5851   6.8734   6.8734
     7.3447   7.3447   7.3667   7.3667   7.4468   7.4468   7.4849   7.4849
     7.6996   7.6996   7.9362   7.9362   7.9885   7.9886   8.0249   8.0249
     8.4771   8.4771   8.4998   8.4998

     occupation numbers 
     1.0000   1.0000   1.0000   1.0000   1.0000   1.0000   1.0000   1.0000
     1.0000   1.0000   1.0000   1.0000   1.0000   1.0000   1.0000   1.0000
     1.0000   1.0000   1.0000   1.0000   1.0000   1.0000   1.0000   1.0000
     1.0000   1.0000   1.0000   1.0000   1.0000   1.0000   1.0000   1.0000
     1.0000   1.0000   1.0000   1.0000   1.0000   1.0000   1.0000   1.0000
     1.0000   1.0000   1.0000   1.0000   1.0000   1.0000   1.0000   1.0000
     1.0000   1.0000   1.0000   1.0000   1.0000   1.0000   1.0000   1.0000
     1.0000   1.0000   1.0000   1.0000   1.0000   1.0000   1.0000   1.0000
     1.0000   1.0000   1.0000   1.0000   1.0000   1.0000   1.0000   1.0000
     1.0000   1.0000   1.0000   1.0000   1.0000   1.0000   1.0000   1.0000
     1.0000   1.0000   1.0000   1.0000   1.0000   1.0000   1.0000   1.0000
     1.0000   1.0000   1.0000   1.0000   1.0000   1.0000   1.0000   1.0000
     1.0000   1.0000   1.0000   1.0000   1.0000   1.0000   1.0000   1.0000
     1.0000   1.0000   1.0000   1.0000

          k = 0.0000-0.2887 0.0000 ( 10476 PWs)   bands (ev):

    -9.7841  -9.7841  -9.5962  -9.5962  -9.5962  -9.5962  -9.2230  -9.2230
    -9.2230  -9.2229  -9.0404  -9.0404   2.0788   2.0788   2.0788   2.0789
     2.1691   2.1691   2.1691   2.1691   2.2622   2.2622   2.6786   2.6786
     2.7730   2.7730   2.8072   2.8072   2.8072   2.8072   2.8326   2.8326
     2.8362   2.8362   2.8362   2.8362   2.9303   2.9303   2.9303   2.9303
     3.0288   3.0288   3.0288   3.0288   3.1687   3.1687   3.1699   3.1699
     3.9225   3.9225   4.0839   4.0839   4.1302   4.1302   4.1302   4.1302
     4.1735   4.1735   4.1735   4.1735   4.3306   4.3306   4.3306   4.3306
     4.3674   4.3674   4.3853   4.3853   4.3853   4.3853   4.3989   4.3989
     4.7773   4.7773   5.7451   5.7451   5.7451   5.7451   6.0292   6.0292
     6.4040   6.4040   6.4040   6.4040   6.8392   6.8392   6.8392   6.8392
     6.8757   6.8757   7.0481   7.0481   7.2716   7.2716   7.2716   7.2716
     8.0035   8.0035   8.0035   8.0035   8.0712   8.0712   8.0712   8.0712
     8.2663   8.2663   8.3498   8.3498

     occupation numbers 
     1.0000   1.0000   1.0000   1.0000   1.0000   1.0000   1.0000   1.0000
     1.0000   1.0000   1.0000   1.0000   1.0000   1.0000   1.0000   1.0000
     1.0000   1.0000   1.0000   1.0000   1.0000   1.0000   1.0000   1.0000
     1.0000   1.0000   1.0000   1.0000   1.0000   1.0000   1.0000   1.0000
     1.0000   1.0000   1.0000   1.0000   1.0000   1.0000   1.0000   1.0000
     1.0000   1.0000   1.0000   1.0000   1.0000   1.0000   1.0000   1.0000
     1.0000   1.0000   1.0000   1.0000   1.0000   1.0000   1.0000   1.0000
     1.0000   1.0000   1.0000   1.0000   1.0000   1.0000   1.0000   1.0000
     1.0000   1.0000   1.0000   1.0000   1.0000   1.0000   1.0000   1.0000
     1.0000   1.0000   1.0000   1.0000   1.0000   1.0000   1.0000   1.0000
     1.0000   1.0000   1.0000   1.0000   1.0000   1.0000   1.0000   1.0000
     1.0000   1.0000   1.0000   1.0000   1.0000   1.0000   1.0000   1.0000
     1.0000   1.0000   1.0000   1.0000   1.0000   1.0000   1.0000   1.0000
     1.0000   1.0000   1.0000   1.0000

          k = 0.0000-0.2887 0.0366 ( 10464 PWs)   bands (ev):

    -9.7783  -9.7783  -9.6498  -9.6498  -9.5368  -9.5368  -9.2814  -9.2814
    -9.1704  -9.1704  -9.0459  -9.0459   2.0459   2.0459   2.1006   2.1006
     2.1209   2.1209   2.2555   2.2555   2.2583   2.2583   2.6518   2.6518
     2.7747   2.7747   2.8070   2.8070   2.8133   2.8133   2.8161   2.8161
     2.8315   2.8315   2.8603   2.8603   2.8970   2.8970   2.9676   2.9676
     2.9914   2.9914   3.0653   3.0653   3.1492   3.1492   3.1650   3.1650
     3.9325   3.9325   4.0817   4.0817   4.0869   4.0869   4.1487   4.1487
     4.1796   4.1796   4.2003   4.2003   4.3077   4.3077   4.3508   4.3508
     4.3535   4.3535   4.3842   4.3842   4.3970   4.3970   4.4098   4.4098
     4.8143   4.8143   5.5504   5.5504   5.9096   5.9096   6.0423   6.0423
     6.3486   6.3486   6.3655   6.3655   6.7951   6.7951   6.8881   6.8881
     7.0097   7.0097   7.0306   7.0306   7.1612   7.1612   7.3917   7.3917
     7.8918   7.8918   7.9125   7.9125   8.1035   8.1035   8.1841   8.1841
     8.2713   8.2713   8.3394   8.3394

     occupation numbers 
     1.0000   1.0000   1.0000   1.0000   1.0000   1.0000   1.0000   1.0000
     1.0000   1.0000   1.0000   1.0000   1.0000   1.0000   1.0000   1.0000
     1.0000   1.0000   1.0000   1.0000   1.0000   1.0000   1.0000   1.0000
     1.0000   1.0000   1.0000   1.0000   1.0000   1.0000   1.0000   1.0000
     1.0000   1.0000   1.0000   1.0000   1.0000   1.0000   1.0000   1.0000
     1.0000   1.0000   1.0000   1.0000   1.0000   1.0000   1.0000   1.0000
     1.0000   1.0000   1.0000   1.0000   1.0000   1.0000   1.0000   1.0000
     1.0000   1.0000   1.0000   1.0000   1.0000   1.0000   1.0000   1.0000
     1.0000   1.0000   1.0000   1.0000   1.0000   1.0000   1.0000   1.0000
     1.0000   1.0000   1.0000   1.0000   1.0000   1.0000   1.0000   1.0000
     1.0000   1.0000   1.0000   1.0000   1.0000   1.0000   1.0000   1.0000
     1.0000   1.0000   1.0000   1.0000   1.0000   1.0000   1.0000   1.0000
     1.0000   1.0000   1.0000   1.0000   1.0000   1.0000   1.0000   1.0000
     1.0000   1.0000   1.0000   1.0000

          k = 0.0000-0.2887 0.0732 ( 10460 PWs)   bands (ev):

    -9.7614  -9.7614  -9.6961  -9.6961  -9.4737  -9.4737  -9.3439  -9.3439
    -9.1253  -9.1253  -9.0622  -9.0622   2.0283   2.0283   2.0544   2.0544
     2.1650   2.1650   2.2360   2.2360   2.3639   2.3639   2.5786   2.5786
     2.7796   2.7796   2.8001   2.8001   2.8119   2.8119   2.8257   2.8257
     2.8272   2.8272   2.8681   2.8681   2.8884   2.8884   2.9548   2.9548
     3.0090   3.0090   3.0991   3.0991   3.1044   3.1044   3.1506   3.1506
     3.9582   3.9582   4.0357   4.0357   4.0952   4.0952   4.1268   4.1268
     4.2278   4.2278   4.2280   4.2280   4.2825   4.2825   4.3160   4.3160
     4.3678   4.3678   4.3912   4.3912   4.4131   4.4131   4.4251   4.4251
     4.9297   4.9297   5.3323   5.3323   6.0495   6.0495   6.0818   6.0818
     6.2430   6.2430   6.2788   6.2788   6.8428   6.8428   6.9249   6.9249
     6.9825   6.9825   7.0642   7.0642   7.2414   7.2414   7.5176   7.5176
     7.7136   7.7136   7.7713   7.7713   8.1891   8.1891   8.2513   8.2513
     8.2806   8.2806   8.3086   8.3086

     occupation numbers 
     1.0000   1.0000   1.0000   1.0000   1.0000   1.0000   1.0000   1.0000
     1.0000   1.0000   1.0000   1.0000   1.0000   1.0000   1.0000   1.0000
     1.0000   1.0000   1.0000   1.0000   1.0000   1.0000   1.0000   1.0000
     1.0000   1.0000   1.0000   1.0000   1.0000   1.0000   1.0000   1.0000
     1.0000   1.0000   1.0000   1.0000   1.0000   1.0000   1.0000   1.0000
     1.0000   1.0000   1.0000   1.0000   1.0000   1.0000   1.0000   1.0000
     1.0000   1.0000   1.0000   1.0000   1.0000   1.0000   1.0000   1.0000
     1.0000   1.0000   1.0000   1.0000   1.0000   1.0000   1.0000   1.0000
     1.0000   1.0000   1.0000   1.0000   1.0000   1.0000   1.0000   1.0000
     1.0000   1.0000   1.0000   1.0000   1.0000   1.0000   1.0000   1.0000
     1.0000   1.0000   1.0000   1.0000   1.0000   1.0000   1.0000   1.0000
     1.0000   1.0000   1.0000   1.0000   1.0000   1.0000   1.0000   1.0000
     1.0000   1.0000   1.0000   1.0000   1.0000   1.0000   1.0000   1.0000
     1.0000   1.0000   1.0000   1.0000

          k = 0.0000-0.2887-0.1098 ( 10444 PWs)   bands (ev):

    -9.7337  -9.7337  -9.7337  -9.7337  -9.4087  -9.4087  -9.4087  -9.4087
    -9.0889  -9.0889  -9.0889  -9.0889   2.0304   2.0304   2.0304   2.0304
     2.2049   2.2049   2.2049   2.2049   2.4759   2.4759   2.4759   2.4759
     2.7881   2.7881   2.7881   2.7881   2.8196   2.8196   2.8196   2.8196
     2.8442   2.8442   2.8442   2.8442   2.9201   2.9201   2.9201   2.9201
     3.0548   3.0548   3.0549   3.0549   3.1282   3.1282   3.1282   3.1282
     3.9938   3.9938   3.9938   3.9938   4.1088   4.1088   4.1088   4.1088
     4.2556   4.2556   4.2556   4.2556   4.2737   4.2737   4.2737   4.2737
     4.3814   4.3814   4.3814   4.3814   4.4277   4.4277   4.4277   4.4277
     5.1138   5.1138   5.1138   5.1138   6.1490   6.1490   6.1490   6.1490
     6.1716   6.1716   6.1716   6.1716   6.9148   6.9148   6.9148   6.9148
     6.9844   6.9844   6.9845   6.9845   7.4846   7.4846   7.4846   7.4846
     7.6454   7.6454   7.6454   7.6454   8.2580   8.2580   8.2581   8.2581
     8.2793   8.2793   8.2793   8.2793

     occupation numbers 
     1.0000   1.0000   1.0000   1.0000   1.0000   1.0000   1.0000   1.0000
     1.0000   1.0000   1.0000   1.0000   1.0000   1.0000   1.0000   1.0000
     1.0000   1.0000   1.0000   1.0000   1.0000   1.0000   1.0000   1.0000
     1.0000   1.0000   1.0000   1.0000   1.0000   1.0000   1.0000   1.0000
     1.0000   1.0000   1.0000   1.0000   1.0000   1.0000   1.0000   1.0000
     1.0000   1.0000   1.0000   1.0000   1.0000   1.0000   1.0000   1.0000
     1.0000   1.0000   1.0000   1.0000   1.0000   1.0000   1.0000   1.0000
     1.0000   1.0000   1.0000   1.0000   1.0000   1.0000   1.0000   1.0000
     1.0000   1.0000   1.0000   1.0000   1.0000   1.0000   1.0000   1.0000
     1.0000   1.0000   1.0000   1.0000   1.0000   1.0000   1.0000   1.0000
     1.0000   1.0000   1.0000   1.0000   1.0000   1.0000   1.0000   1.0000
     1.0000   1.0000   1.0000   1.0000   1.0000   1.0000   1.0000   1.0000
     1.0000   1.0000   1.0000   1.0000   1.0000   1.0000   1.0000   1.0000
     1.0000   1.0000   1.0000   1.0000

          k = 0.1667 0.0962 0.0000 ( 10449 PWs)   bands (ev):

    -9.9644  -9.7488  -9.7488  -9.3406  -9.3088  -9.3088  -9.2451  -9.2451
    -9.0862  -9.0819  -9.0819  -9.0165   2.1245   2.1245   2.1690   2.1690
     2.1995   2.1995   2.2288   2.2288   2.3613   2.4010   2.6208   2.6785
     2.7007   2.7234   2.7234   2.7382   2.7431   2.7431   2.8339   2.8339
     2.8471   2.8471   2.8490   2.8965   2.8965   2.9419   2.9675   2.9675
     3.0162   3.0257   3.2296   3.2296   3.3176   3.3176   3.4538   3.6069
     3.9793   4.0519   4.0519   4.0892   4.1385   4.1385   4.1585   4.1585
     4.1596   4.1596   4.2566   4.2566   4.3260   4.3260   4.3526   4.3526
     4.3828   4.3869   4.4290   4.4290   4.4307   4.5281   4.5711   4.5711
     4.6751   4.7419   4.9531   4.9531   5.2903   5.3422   5.3422   5.6204
     5.8319   5.8319   6.0140   6.0340   6.0340   6.7830   6.8530   6.8530
     6.9931   6.9931   7.1105   7.1105   7.2687   7.2687   7.2756   7.3769
     7.5947   7.6110   7.6110   7.6663   7.7446   7.7446   8.2096   8.2096
     8.2516   8.2516   8.5457   8.5582

     occupation numbers 
     1.0000   1.0000   1.0000   1.0000   1.0000   1.0000   1.0000   1.0000
     1.0000   1.0000   1.0000   1.0000   1.0000   1.0000   1.0000   1.0000
     1.0000   1.0000   1.0000   1.0000   1.0000   1.0000   1.0000   1.0000
     1.0000   1.0000   1.0000   1.0000   1.0000   1.0000   1.0000   1.0000
     1.0000   1.0000   1.0000   1.0000   1.0000   1.0000   1.0000   1.0000
     1.0000   1.0000   1.0000   1.0000   1.0000   1.0000   1.0000   1.0000
     1.0000   1.0000   1.0000   1.0000   1.0000   1.0000   1.0000   1.0000
     1.0000   1.0000   1.0000   1.0000   1.0000   1.0000   1.0000   1.0000
     1.0000   1.0000   1.0000   1.0000   1.0000   1.0000   1.0000   1.0000
     1.0000   1.0000   1.0000   1.0000   1.0000   1.0000   1.0000   1.0000
     1.0000   1.0000   1.0000   1.0000   1.0000   1.0000   1.0000   1.0000
     1.0000   1.0000   1.0000   1.0000   1.0000   1.0000   1.0000   1.0000
     1.0000   1.0000   1.0000   1.0000   1.0000   1.0000   1.0000   1.0000
     1.0000   1.0000   1.0000   1.0000

          k = 0.1667 0.0962 0.0366 ( 10441 PWs)   bands (ev):

    -9.9579  -9.8107  -9.6800  -9.3789  -9.3375  -9.2715  -9.2453  -9.2167
    -9.1049  -9.0930  -9.0621  -9.0183   2.0827   2.1281   2.1283   2.1758
     2.1776   2.2266   2.2888   2.2932   2.3528   2.3942   2.6055   2.6436
     2.7017   2.7219   2.7289   2.7305   2.7417   2.7611   2.8072   2.8305
     2.8432   2.8610   2.8655   2.8689   2.9273   2.9380   2.9540   2.9794
     3.0119   3.0227   3.2110   3.2587   3.2693   3.3736   3.4383   3.5890
     3.9853   4.0340   4.0554   4.0985   4.1246   4.1298   4.1302   4.1798
     4.1892   4.1901   4.2536   4.2539   4.3038   4.3263   4.3446   4.3735
     4.3814   4.3916   4.4198   4.4284   4.4440   4.5412   4.5437   4.5953
     4.7196   4.7406   4.8788   5.0263   5.2871   5.3119   5.3895   5.5637
     5.6207   5.8792   6.0409   6.0886   6.1992   6.6644   6.7932   6.8423
     6.8770   7.0038   7.1980   7.1994   7.2795   7.2860   7.3741   7.3880
     7.5163   7.5880   7.6429   7.7147   7.7193   7.7273   8.0533   8.1529
     8.3394   8.3401   8.5437   8.5490

     occupation numbers 
     1.0000   1.0000   1.0000   1.0000   1.0000   1.0000   1.0000   1.0000
     1.0000   1.0000   1.0000   1.0000   1.0000   1.0000   1.0000   1.0000
     1.0000   1.0000   1.0000   1.0000   1.0000   1.0000   1.0000   1.0000
     1.0000   1.0000   1.0000   1.0000   1.0000   1.0000   1.0000   1.0000
     1.0000   1.0000   1.0000   1.0000   1.0000   1.0000   1.0000   1.0000
     1.0000   1.0000   1.0000   1.0000   1.0000   1.0000   1.0000   1.0000
     1.0000   1.0000   1.0000   1.0000   1.0000   1.0000   1.0000   1.0000
     1.0000   1.0000   1.0000   1.0000   1.0000   1.0000   1.0000   1.0000
     1.0000   1.0000   1.0000   1.0000   1.0000   1.0000   1.0000   1.0000
     1.0000   1.0000   1.0000   1.0000   1.0000   1.0000   1.0000   1.0000
     1.0000   1.0000   1.0000   1.0000   1.0000   1.0000   1.0000   1.0000
     1.0000   1.0000   1.0000   1.0000   1.0000   1.0000   1.0000   1.0000
     1.0000   1.0000   1.0000   1.0000   1.0000   1.0000   1.0000   1.0000
     1.0000   1.0000   1.0000   1.0000

          k = 0.1667 0.0962 0.0732 ( 10430 PWs)   bands (ev):

    -9.9386  -9.8640  -9.6063  -9.4534  -9.3286  -9.2948  -9.1904  -9.1874
    -9.1307  -9.1131  -9.0457  -9.0238   2.0588   2.0801   2.1091   2.1357
     2.2342   2.2876   2.3272   2.3721   2.3734   2.3873   2.5586   2.5640
     2.7047   2.7179   2.7257   2.7402   2.7431   2.7824   2.7827   2.8217
     2.8309   2.8355   2.8867   2.8934   2.9268   2.9376   2.9558   2.9913
     2.9998   3.0145   3.2042   3.2330   3.2981   3.3974   3.4329   3.5456
     4.0025   4.0340   4.0611   4.0656   4.0882   4.1037   4.1837   4.2149
     4.2201   4.2206   4.2432   4.2464   4.2783   4.2951   4.3592   4.3771
     4.3885   4.3979   4.4162   4.4229   4.4644   4.5157   4.5749   4.6112
     4.7408   4.8091   4.8511   5.0967   5.2273   5.2979   5.3660   5.4210
     5.6249   5.7455   6.1245   6.3243   6.3692   6.4519   6.7019   6.7188
     6.8237   6.9391   7.3021   7.3166   7.3774   7.3806   7.4036   7.4339
     7.5265   7.5783   7.5810   7.6599   7.6662   7.8243   7.8795   8.0467
     8.4159   8.4368   8.5217   8.5323

     occupation numbers 
     1.0000   1.0000   1.0000   1.0000   1.0000   1.0000   1.0000   1.0000
     1.0000   1.0000   1.0000   1.0000   1.0000   1.0000   1.0000   1.0000
     1.0000   1.0000   1.0000   1.0000   1.0000   1.0000   1.0000   1.0000
     1.0000   1.0000   1.0000   1.0000   1.0000   1.0000   1.0000   1.0000
     1.0000   1.0000   1.0000   1.0000   1.0000   1.0000   1.0000   1.0000
     1.0000   1.0000   1.0000   1.0000   1.0000   1.0000   1.0000   1.0000
     1.0000   1.0000   1.0000   1.0000   1.0000   1.0000   1.0000   1.0000
     1.0000   1.0000   1.0000   1.0000   1.0000   1.0000   1.0000   1.0000
     1.0000   1.0000   1.0000   1.0000   1.0000   1.0000   1.0000   1.0000
     1.0000   1.0000   1.0000   1.0000   1.0000   1.0000   1.0000   1.0000
     1.0000   1.0000   1.0000   1.0000   1.0000   1.0000   1.0000   1.0000
     1.0000   1.0000   1.0000   1.0000   1.0000   1.0000   1.0000   1.0000
     1.0000   1.0000   1.0000   1.0000   1.0000   1.0000   1.0000   1.0000
     1.0000   1.0000   1.0000   1.0000

          k = 0.1667 0.0962-0.1098 ( 10428 PWs)   bands (ev):

    -9.9070  -9.9070  -9.5300  -9.5300  -9.3142  -9.3142  -9.1585  -9.1585
    -9.1459  -9.1459  -9.0329  -9.0329   2.0570   2.0570   2.1123   2.1123
     2.2863   2.2863   2.3380   2.3380   2.4666   2.4666   2.4822   2.4822
     2.7099   2.7100   2.7330   2.7330   2.7608   2.7608   2.8076   2.8076
     2.8219   2.8220   2.9092   2.9092   2.9171   2.9171   2.9805   2.9805
     3.0033   3.0033   3.2111   3.2111   3.3462   3.3462   3.4915   3.4915
     4.0285   4.0285   4.0555   4.0555   4.0819   4.0820   4.2215   4.2216
     4.2335   4.2335   4.2503   4.2503   4.2595   4.2595   4.3700   4.3700
     4.3968   4.3969   4.4178   4.4178   4.4887   4.4887   4.6066   4.6066
     4.7586   4.7586   5.0526   5.0527   5.1637   5.1637   5.4162   5.4162
     5.6558   5.6558   6.2649   6.2649   6.5344   6.5344   6.5388   6.5388
     6.8735   6.8735   7.3665   7.3665   7.3779   7.3779   7.4850   7.4850
     7.5419   7.5419   7.6087   7.6087   7.6997   7.6997   7.9361   7.9361
     8.4769   8.4769   8.4999   8.4999

     occupation numbers 
     1.0000   1.0000   1.0000   1.0000   1.0000   1.0000   1.0000   1.0000
     1.0000   1.0000   1.0000   1.0000   1.0000   1.0000   1.0000   1.0000
     1.0000   1.0000   1.0000   1.0000   1.0000   1.0000   1.0000   1.0000
     1.0000   1.0000   1.0000   1.0000   1.0000   1.0000   1.0000   1.0000
     1.0000   1.0000   1.0000   1.0000   1.0000   1.0000   1.0000   1.0000
     1.0000   1.0000   1.0000   1.0000   1.0000   1.0000   1.0000   1.0000
     1.0000   1.0000   1.0000   1.0000   1.0000   1.0000   1.0000   1.0000
     1.0000   1.0000   1.0000   1.0000   1.0000   1.0000   1.0000   1.0000
     1.0000   1.0000   1.0000   1.0000   1.0000   1.0000   1.0000   1.0000
     1.0000   1.0000   1.0000   1.0000   1.0000   1.0000   1.0000   1.0000
     1.0000   1.0000   1.0000   1.0000   1.0000   1.0000   1.0000   1.0000
     1.0000   1.0000   1.0000   1.0000   1.0000   1.0000   1.0000   1.0000
     1.0000   1.0000   1.0000   1.0000   1.0000   1.0000   1.0000   1.0000
     1.0000   1.0000   1.0000   1.0000

          k = 0.1667 0.1925 0.0000 ( 10430 PWs)   bands (ev):

    -9.8522  -9.6534  -9.6534  -9.5035  -9.3683  -9.3683  -9.2539  -9.2539
    -9.1172  -9.1172  -9.0559  -9.0043   2.0953   2.0953   2.1390   2.1390
     2.1764   2.1764   2.1794   2.1794   2.3195   2.3396   2.5541   2.6181
     2.7566   2.7566   2.7729   2.7927   2.7927   2.8217   2.8465   2.8466
     2.8685   2.8862   2.8862   2.8966   2.8966   2.9727   2.9849   2.9849
     3.0594   3.1152   3.1152   3.1156   3.2289   3.2289   3.4172   3.4527
     3.9269   3.9496   4.0571   4.1003   4.1312   4.1312   4.1355   4.1355
     4.1664   4.1664   4.2505   4.2505   4.3291   4.3291   4.3707   4.3707
     4.3745   4.3745   4.3814   4.3920   4.4184   4.4713   4.4731   4.4731
     4.7374   4.8223   5.3048   5.3048   5.5819   5.7889   5.7889   5.8100
     5.8100   5.8723   6.2996   6.3800   6.4100   6.4100   6.6740   6.6740
     6.7176   6.7176   6.8461   6.9486   6.9486   7.3509   7.3509   7.3545
[...]
     xc contribution           =    -658.93611599 Ry
     ewald contribution        =   -1347.16600098 Ry

     convergence has been achieved in  21 iterations

     Forces acting on atoms (cartesian axes, Ry/au):

     atom    1 type  1   force =     0.00000000   -0.00001238   -0.04257946
     atom    2 type  1   force =     0.00000000    0.00001256   -0.04258427
     atom    3 type  2   force =     0.00000000    0.00000133    0.04258054
     atom    4 type  2   force =     0.00000000   -0.00000111    0.04258048
     atom    5 type  1   force =     0.00000000   -0.00001160   -0.04257579
     atom    6 type  1   force =     0.00000000    0.00001329   -0.04256848
     atom    7 type  2   force =     0.00000000    0.00000148    0.04258045
     atom    8 type  2   force =     0.00000000   -0.00000128    0.04258055
     atom    9 type  1   force =     0.00000000   -0.00001363   -0.04258743
     atom   10 type  1   force =     0.00000000    0.00001067   -0.04258787
     atom   11 type  2   force =     0.00000000    0.00000148    0.04258062
     atom   12 type  2   force =     0.00000000   -0.00000115    0.04258057
     atom   13 type  1   force =     0.00000000   -0.00001212   -0.04257771
     atom   14 type  1   force =     0.00000000    0.00001197   -0.04258644
     atom   15 type  2   force =     0.00000000    0.00000143    0.04258056
     atom   16 type  2   force =     0.00000000   -0.00000127    0.04258033
     atom   17 type  1   force =     0.00000000   -0.00001224   -0.04257799
     atom   18 type  1   force =     0.00000000    0.00001032   -0.04256866
     atom   19 type  2   force =     0.00000000    0.00000141    0.04258042
     atom   20 type  2   force =     0.00000000   -0.00000118    0.04258077
     atom   21 type  1   force =     0.00000000   -0.00001113   -0.04258629
     atom   22 type  1   force =     0.00000000    0.00001302   -0.04258605
     atom   23 type  2   force =     0.00000000    0.00000136    0.04258067
     atom   24 type  2   force =     0.00000000   -0.00000122    0.04258048
     The non-local contrib.  to forces
     atom    1 type  1   force =     0.00000000    0.00002165   -0.19587137
     atom    2 type  1   force =     0.00000000   -0.00002183   -0.19587555
     atom    3 type  2   force =     0.00000000    0.00018089   -0.13236840
     atom    4 type  2   force =     0.00000000   -0.00018082   -0.13236394
     atom    5 type  1   force =     0.00000000    0.00002205   -0.19586995
     atom    6 type  1   force =     0.00000000   -0.00002104   -0.19586522
     atom    7 type  2   force =     0.00000000    0.00018214   -0.13236044
     atom    8 type  2   force =     0.00000000   -0.00018145   -0.13236553
     atom    9 type  1   force =     0.00000000    0.00002112   -0.19587726
     atom   10 type  1   force =     0.00000000   -0.00002249   -0.19587750
     atom   11 type  2   force =     0.00000000    0.00018182   -0.13236126
     atom   12 type  2   force =     0.00000000   -0.00018144   -0.13236022
     atom   13 type  1   force =     0.00000000    0.00002185   -0.19587073
     atom   14 type  1   force =     0.00000000   -0.00002164   -0.19587642
     atom   15 type  2   force =     0.00000000    0.00018164   -0.13236887
     atom   16 type  2   force =     0.00000000   -0.00018174   -0.13236385
     atom   17 type  1   force =     0.00000000    0.00002168   -0.19587118
     atom   18 type  1   force =     0.00000000   -0.00002266   -0.19586506
     atom   19 type  2   force =     0.00000000    0.00018081   -0.13236108
     atom   20 type  2   force =     0.00000000   -0.00018108   -0.13236509
     atom   21 type  1   force =     0.00000000    0.00002240   -0.19587633
     atom   22 type  1   force =     0.00000000   -0.00002108   -0.19587674
     atom   23 type  2   force =     0.00000000    0.00018100   -0.13236059
     atom   24 type  2   force =     0.00000000   -0.00018093   -0.13236042
     The ionic contribution  to forces
     atom    1 type  1   force =    -0.00000000   -0.00000002   -1.31409743
     atom    2 type  1   force =     0.00000000   -0.00000002   -1.31409739
     atom    3 type  2   force =    -0.00000000   -0.00000001    1.31409742
     atom    4 type  2   force =     0.00000000   -0.00000001    1.31409740
     atom    5 type  1   force =    -0.00000000   -0.00000002   -1.31409739
     atom    6 type  1   force =     0.00000000   -0.00000002   -1.31409743
     atom    7 type  2   force =    -0.00000000   -0.00000001    1.31409741
     atom    8 type  2   force =     0.00000000   -0.00000001    1.31409743
     atom    9 type  1   force =    -0.00000000   -0.00000002   -1.31409744
     atom   10 type  1   force =     0.00000000   -0.00000002   -1.31409743
     atom   11 type  2   force =    -0.00000000   -0.00000001    1.31409743
     atom   12 type  2   force =     0.00000000   -0.00000001    1.31409742
     atom   13 type  1   force =    -0.00000000    0.00000002   -1.31409743
     atom   14 type  1   force =     0.00000000    0.00000002   -1.31409739
     atom   15 type  2   force =    -0.00000000    0.00000001    1.31409742
     atom   16 type  2   force =     0.00000000    0.00000001    1.31409741
     atom   17 type  1   force =    -0.00000000    0.00000002   -1.31409739
     atom   18 type  1   force =     0.00000000    0.00000002   -1.31409744
     atom   19 type  2   force =    -0.00000000    0.00000001    1.31409740
     atom   20 type  2   force =     0.00000000    0.00000001    1.31409743
     atom   21 type  1   force =    -0.00000000    0.00000002   -1.31409743
     atom   22 type  1   force =     0.00000000    0.00000002   -1.31409743
     atom   23 type  2   force =    -0.00000000    0.00000001    1.31409743
     atom   24 type  2   force =     0.00000000    0.00000001    1.31409742
     The local contribution  to forces
     atom    1 type  1   force =     0.00000000   -0.00003721    1.45085909
     atom    2 type  1   force =     0.00000008    0.00003630    1.45086950
     atom    3 type  2   force =    -0.00000000   -0.00017824   -1.14003078
     atom    4 type  2   force =     0.00000002    0.00017836   -1.14002279
     atom    5 type  1   force =    -0.00000000   -0.00003802    1.45085621
     atom    6 type  1   force =     0.00000008    0.00003530    1.45084391
     atom    7 type  2   force =    -0.00000000   -0.00017704   -1.14001621
     atom    8 type  2   force =     0.00000002    0.00017692   -1.14002426
     atom    9 type  1   force =    -0.00000000   -0.00003484    1.45087405
     atom   10 type  1   force =     0.00000008    0.00003925    1.45087458
     atom   11 type  2   force =    -0.00000000   -0.00017725   -1.14001915
     atom   12 type  2   force =     0.00000002    0.00017778   -1.14001760
     atom   13 type  1   force =    -0.00000008   -0.00003688    1.45085705
     atom   14 type  1   force =    -0.00000000    0.00003780    1.45087243
     atom   15 type  2   force =    -0.00000002   -0.00017733   -1.14003161
     atom   16 type  2   force =     0.00000000    0.00017619   -1.14002296
     atom   17 type  1   force =    -0.00000008   -0.00003665    1.45085927
     atom   18 type  1   force =     0.00000000    0.00003943    1.45084438
     atom   19 type  2   force =    -0.00000002   -0.00017931   -1.14001668
     atom   20 type  2   force =     0.00000000    0.00017886   -1.14002553
     atom   21 type  1   force =    -0.00000008   -0.00003924    1.45087162
     atom   22 type  1   force =     0.00000000    0.00003525    1.45087187
     atom   23 type  2   force =    -0.00000002   -0.00017789   -1.14001788
     atom   24 type  2   force =     0.00000000    0.00017679   -1.14001679
     The core correction contribution to forces
     atom    1 type  1   force =     0.00000000    0.00000350    0.01652033
     atom    2 type  1   force =     0.00000001   -0.00000343    0.01652018
     atom    3 type  2   force =     0.00000000   -0.00000207    0.00086892
     atom    4 type  2   force =    -0.00000000    0.00000207    0.00086888
     atom    5 type  1   force =     0.00000000    0.00000350    0.01652014
     atom    6 type  1   force =     0.00000001   -0.00000346    0.01652029
     atom    7 type  2   force =     0.00000000   -0.00000208    0.00086884
     atom    8 type  2   force =    -0.00000000    0.00000207    0.00086889
     atom    9 type  1   force =     0.00000000    0.00000343    0.01652013
     atom   10 type  1   force =     0.00000001   -0.00000350    0.01652011
     atom   11 type  2   force =     0.00000000   -0.00000208    0.00086885
     atom   12 type  2   force =    -0.00000000    0.00000207    0.00086883
     atom   13 type  1   force =    -0.00000001    0.00000345    0.01652035
     atom   14 type  1   force =    -0.00000000   -0.00000353    0.01652014
     atom   15 type  2   force =     0.00000000   -0.00000208    0.00086892
     atom   16 type  2   force =    -0.00000000    0.00000207    0.00086888
     atom   17 type  1   force =    -0.00000001    0.00000345    0.01652014
     atom   18 type  1   force =    -0.00000000   -0.00000348    0.01652025
     atom   19 type  2   force =     0.00000000   -0.00000207    0.00086885
     atom   20 type  2   force =    -0.00000000    0.00000207    0.00086889
     atom   21 type  1   force =    -0.00000001    0.00000353    0.01652016
     atom   22 type  1   force =    -0.00000000   -0.00000345    0.01652015
     atom   23 type  2   force =     0.00000000   -0.00000207    0.00086884
     atom   24 type  2   force =    -0.00000000    0.00000206    0.00086884
     The Hubbard contrib.    to forces
     atom    1 type  1   force =     0.00000000    0.00000000    0.00000000
     atom    2 type  1   force =     0.00000000    0.00000000    0.00000000
     atom    3 type  2   force =     0.00000000    0.00000000    0.00000000
     atom    4 type  2   force =     0.00000000    0.00000000    0.00000000
     atom    5 type  1   force =     0.00000000    0.00000000    0.00000000
     atom    6 type  1   force =     0.00000000    0.00000000    0.00000000
     atom    7 type  2   force =     0.00000000    0.00000000    0.00000000
     atom    8 type  2   force =     0.00000000    0.00000000    0.00000000
     atom    9 type  1   force =     0.00000000    0.00000000    0.00000000
     atom   10 type  1   force =     0.00000000    0.00000000    0.00000000
     atom   11 type  2   force =     0.00000000    0.00000000    0.00000000
     atom   12 type  2   force =     0.00000000    0.00000000    0.00000000
     atom   13 type  1   force =     0.00000000    0.00000000    0.00000000
     atom   14 type  1   force =     0.00000000    0.00000000    0.00000000
     atom   15 type  2   force =     0.00000000    0.00000000    0.00000000
     atom   16 type  2   force =     0.00000000    0.00000000    0.00000000
     atom   17 type  1   force =     0.00000000    0.00000000    0.00000000
     atom   18 type  1   force =     0.00000000    0.00000000    0.00000000
     atom   19 type  2   force =     0.00000000    0.00000000    0.00000000
     atom   20 type  2   force =     0.00000000    0.00000000    0.00000000
     atom   21 type  1   force =     0.00000000    0.00000000    0.00000000
     atom   22 type  1   force =     0.00000000    0.00000000    0.00000000
     atom   23 type  2   force =     0.00000000    0.00000000    0.00000000
     atom   24 type  2   force =     0.00000000    0.00000000    0.00000000
     The SCF correction term to forces
     atom    1 type  1   force =    -0.00000000   -0.00000037    0.00001274
     atom    2 type  1   force =     0.00000000    0.00000147    0.00000181
     atom    3 type  2   force =    -0.00000000    0.00000070    0.00001621
     atom    4 type  2   force =     0.00000000   -0.00000077    0.00000375
     atom    5 type  1   force =    -0.00000000    0.00000084    0.00001802
     atom    6 type  1   force =     0.00000000    0.00000245    0.00003279
     atom    7 type  2   force =    -0.00000000   -0.00000158   -0.00000634
     atom    8 type  2   force =     0.00000000    0.00000113    0.00000683
     atom    9 type  1   force =    -0.00000000   -0.00000339   -0.00000410
     atom   10 type  1   force =     0.00000000   -0.00000262   -0.00000481
     atom   11 type  2   force =    -0.00000000   -0.00000107   -0.00000244
     atom   12 type  2   force =     0.00000000    0.00000038   -0.00000504
     atom   13 type  1   force =    -0.00000000   -0.00000063    0.00001585
     atom   14 type  1   force =    -0.00000000   -0.00000074   -0.00000238
     atom   15 type  2   force =    -0.00000000   -0.00000088    0.00001751
     atom   16 type  2   force =     0.00000000    0.00000213    0.00000367
     atom   17 type  1   force =    -0.00000000   -0.00000081    0.00001399
     atom   18 type  1   force =    -0.00000000   -0.00000305    0.00003202
     atom   19 type  2   force =    -0.00000000    0.00000190   -0.00000524
     atom   20 type  2   force =     0.00000000   -0.00000111    0.00000789
     atom   21 type  1   force =    -0.00000000    0.00000209   -0.00000149
     atom   22 type  1   force =    -0.00000000    0.00000222   -0.00000108
     atom   23 type  2   force =    -0.00000000    0.00000025   -0.00000431
     atom   24 type  2   force =     0.00000000    0.00000079   -0.00000574

     Total force =     0.208601     Total SCF correction =     0.000063

     init_run     :     20.48s CPU     21.08s WALL (       1 calls)
     electrons    :   1243.02s CPU   1268.68s WALL (       1 calls)
     forces       :      9.02s CPU      9.09s WALL (       1 calls)

     Called by init_run:
     wfcinit      :     13.55s CPU     14.01s WALL (       1 calls)
     wfcinit:atom :      0.07s CPU      0.07s WALL (      10 calls)
     wfcinit:wfcr :     12.81s CPU     13.25s WALL (      10 calls)
     potinit      :      2.23s CPU      2.29s WALL (       1 calls)
     hinit0       :      4.11s CPU      4.14s WALL (       1 calls)

     Called by electrons:
     c_bands      :   1146.35s CPU   1168.54s WALL (      21 calls)
     sum_band     :     85.72s CPU     88.81s WALL (      21 calls)
     v_of_rho     :      6.41s CPU      6.60s WALL (      22 calls)
     v_h          :      0.36s CPU      0.38s WALL (      22 calls)
     v_xc         :      6.32s CPU      6.50s WALL (      23 calls)
     newd         :      3.34s CPU      3.41s WALL (      22 calls)
     mix_rho      :      0.74s CPU      0.78s WALL (      21 calls)

     Called by c_bands:
     init_us_2    :      5.00s CPU      5.04s WALL (     440 calls)
     init_us_2:cp :      4.99s CPU      5.04s WALL (     440 calls)
     cegterg      :    987.33s CPU   1009.27s WALL (     210 calls)

     Called by sum_band:
     sum_band:wei :      0.02s CPU      0.03s WALL (      21 calls)
     sum_band:loo :     80.97s CPU     83.80s WALL (      21 calls)
     sum_band:buf :      0.57s CPU      0.65s WALL (     210 calls)
     sum_band:ini :      1.75s CPU      1.76s WALL (     210 calls)
     sum_band:cal :     23.49s CPU     23.64s WALL (     210 calls)
     sum_band:bec :      0.18s CPU      0.18s WALL (     210 calls)
     addusdens    :      3.17s CPU      3.24s WALL (      21 calls)
     addusd:skk   :      0.07s CPU      0.08s WALL (      42 calls)
     addusd:dgemm :      0.69s CPU      0.69s WALL (      42 calls)
     addusd:qvan2 :      2.04s CPU      2.05s WALL (      42 calls)

     Called by *egterg:
     cdiaghg      :     74.57s CPU     76.17s WALL (    1699 calls)
     cegterg:over :     97.95s CPU     98.18s WALL (    1489 calls)
     cegterg:upda :     56.61s CPU     56.80s WALL (    1489 calls)
     cegterg:last :    123.38s CPU    123.76s WALL (     729 calls)
     cdiaghg:chol :      4.51s CPU      4.53s WALL (    1699 calls)
     cdiaghg:inve :      1.14s CPU      1.15s WALL (    1699 calls)
     cdiaghg:para :     13.79s CPU     15.08s WALL (    3398 calls)
     h_psi        :    543.11s CPU    562.87s WALL (    1709 calls)
     s_psi        :     77.55s CPU     77.59s WALL (    1709 calls)
     g_psi        :      2.04s CPU      2.05s WALL (    1489 calls)

     Called by h_psi:
     h_psi:calbec :     91.94s CPU     92.55s WALL (    1709 calls)
     vloc_psi     :    370.12s CPU    389.21s WALL (    1709 calls)
     add_vuspsi   :     79.08s CPU     79.11s WALL (    1709 calls)

     General routines
     calbec       :    119.96s CPU    120.74s WALL (    1959 calls)
     fft          :      4.55s CPU      4.82s WALL (     295 calls)
     ffts         :      0.38s CPU      0.40s WALL (      43 calls)
     fftw         :    381.93s CPU    402.08s WALL (  187112 calls)
     interpolate  :      0.59s CPU      0.62s WALL (      22 calls)

     Parallel routines

     PWSCF        :  21m13.00s CPU  21m39.38s WALL


   This run was terminated on:  19:24:38  30Aug2025            

=------------------------------------------------------------------------------=
   JOB DONE.
=------------------------------------------------------------------------------=
Note: The following floating-point exceptions are signalling: IEEE_UNDERFLOW_FLAG IEEE_DENORMAL
Note: The following floating-point exceptions are signalling: IEEE_UNDERFLOW_FLAG IEEE_DENORMAL
Note: The following floating-point exceptions are signalling: IEEE_UNDERFLOW_FLAG IEEE_DENORMAL
Note: The following floating-point exceptions are signalling: IEEE_UNDERFLOW_FLAG IEEE_DENORMAL
Note: The following floating-point exceptions are signalling: IEEE_UNDERFLOW_FLAG IEEE_DENORMAL
Note: The following floating-point exceptions are signalling: IEEE_UNDERFLOW_FLAG IEEE_DENORMAL
Note: The following floating-point exceptions are signalling: IEEE_UNDERFLOW_FLAG IEEE_DENORMAL
Note: The following floating-point exceptions are signalling: IEEE_UNDERFLOW_FLAG IEEE_DENORMAL
Note: The following floating-point exceptions are signalling: IEEE_UNDERFLOW_FLAG IEEE_DENORMAL
Note: The following floating-point exceptions are signalling: IEEE_UNDERFLOW_FLAG IEEE_DENORMAL
Note: The following floating-point exceptions are signalling: IEEE_UNDERFLOW_FLAG IEEE_DENORMAL
Note: The following floating-point exceptions are signalling: IEEE_UNDERFLOW_FLAG IEEE_DENORMAL
Note: The following floating-point exceptions are signalling: IEEE_UNDERFLOW_FLAG IEEE_DENORMAL
Note: The following floating-point exceptions are signalling: IEEE_UNDERFLOW_FLAG IEEE_DENORMAL
Note: The following floating-point exceptions are signalling: IEEE_UNDERFLOW_FLAG IEEE_DENORMAL
Note: The following floating-point exceptions are signalling: IEEE_UNDERFLOW_FLAG IEEE_DENORMAL
Note: The following floating-point exceptions are signalling: IEEE_UNDERFLOW_FLAG IEEE_DENORMAL
Note: The following floating-point exceptions are signalling: IEEE_UNDERFLOW_FLAG IEEE_DENORMAL
Note: The following floating-point exceptions are signalling: IEEE_UNDERFLOW_FLAG IEEE_DENORMAL
Note: The following floating-point exceptions are signalling: IEEE_UNDERFLOW_FLAG IEEE_DENORMAL
Note: The following floating-point exceptions are signalling: IEEE_UNDERFLOW_FLAG IEEE_DENORMAL
Note: The following floating-point exceptions are signalling: IEEE_UNDERFLOW_FLAG IEEE_DENORMAL
Note: The following floating-point exceptions are signalling: IEEE_UNDERFLOW_FLAG IEEE_DENORMAL
Note: The following floating-point exceptions are signalling: IEEE_UNDERFLOW_FLAG IEEE_DENORMAL
Note: The following floating-point exceptions are signalling: IEEE_UNDERFLOW_FLAG IEEE_DENORMAL
Note: The following floating-point exceptions are signalling: IEEE_UNDERFLOW_FLAG IEEE_DENORMAL
Note: The following floating-point exceptions are signalling: IEEE_UNDERFLOW_FLAG IEEE_DENORMAL
Note: The following floating-point exceptions are signalling: IEEE_UNDERFLOW_FLAG IEEE_DENORMAL
Note: The following floating-point exceptions are signalling: IEEE_UNDERFLOW_FLAG IEEE_DENORMAL
Note: The following floating-point exceptions are signalling: IEEE_UNDERFLOW_FLAG IEEE_DENORMAL
Note: The following floating-point exceptions are signalling: IEEE_UNDERFLOW_FLAG IEEE_DENORMAL
Note: The following floating-point exceptions are signalling: IEEE_UNDERFLOW_FLAG IEEE_DENORMAL
