
     Program PWSCF v.7.2 starts on  3Sep2025 at  9:24:23 

     This program is part of the open-source Quantum ESPRESSO suite
     for quantum simulation of materials; please cite
         "P. Giannozzi et al., J. Phys.:Condens. Matter 21 395502 (2009);
         "P. Giannozzi et al., J. Phys.:Condens. Matter 29 465901 (2017);
         "P. Giannozzi et al., J. Chem. Phys. 152 154105 (2020);
          URL http://www.quantum-espresso.org", 
     in publications or presentations arising from this work. More details at
     http://www.quantum-espresso.org/quote

     Parallel version (MPI), running on    32 processors

     MPI processes distributed on     1 nodes
     119567 MiB available memory on the printing compute node when the environment starts

     Reading input from /home/jvc/QEspresso7.2/ZnO_database/scripts/cell313.in/ZnO-3.53-1.55-313.in
Warning: card &CELL ignored
Warning: card / ignored
Warning: card &FCP ignored
Warning: card / ignored
Warning: card &RISM ignored
Warning: card / ignored

     Current dimensions of program PWSCF are:
     Max number of different atomic species (ntypx) = 10
     Max number of k-points (npk) =  40000
     Max angular momentum in pseudopotentials (lmaxx) =  4
     file Zn.upf: wavefunction(s)  3D renormalized
     Found identity + (  0.0000  0.0000  0.3333) symmetry
     This is a supercell, fractional translations are disabled
     Message from routine setup:
     using ibrav=0 with symmetry is DISCOURAGED, use correct ibrav instead

     K-points division:     npool     =      16
     R & G space division:  proc/nbgrp/npool/nimage =       2
     Subspace diagonalization in iterative solution of the eigenvalue problem:
     a serial algorithm will be used


     Parallelization info
     --------------------
     sticks:   dense  smooth     PW     G-vecs:    dense   smooth      PW
     Min        1845     922    273               242463    85588   13433
     Max        1846     923    274               242472    85591   13436
     Sum        3691    1845    547               484935   171179   26869

     Using Slab Decomposition



     bravais-lattice index     =            0
     lattice parameter (alat)  =      20.0195  a.u.
     unit-cell volume          =    3589.5448 (a.u.)^3
     number of atoms/cell      =           36
     number of atomic types    =            2
     number of electrons       =       324.00
     number of Kohn-Sham states=          162
     kinetic-energy cutoff     =      50.0000  Ry
     charge density cutoff     =     400.0000  Ry
     scf convergence threshold =      1.0E-08
     mixing beta               =       0.3000
     number of iterations used =            8  plain     mixing
     Exchange-correlation= PBE
                           (   1   4   3   4   0   0   0)

     celldm(1)=  20.019487  celldm(2)=   0.000000  celldm(3)=   0.000000
     celldm(4)=   0.000000  celldm(5)=   0.000000  celldm(6)=   0.000000

     crystal axes: (cart. coord. in units of alat)
               a(1) = (   1.000000   0.000000   0.000000 )  
               a(2) = (  -0.166667   0.288675   0.000000 )  
               a(3) = (   0.000000   0.000000   1.549784 )  

     reciprocal axes: (cart. coord. in units 2 pi/alat)
               b(1) = (  1.000000  0.577350 -0.000000 )  
               b(2) = (  0.000000  3.464102  0.000000 )  
               b(3) = (  0.000000 -0.000000  0.645251 )  


     PseudoPot. # 1 for Zn read from file:
     /home/jvc/QEspresso7.2/ZnO_database/pseudos/Zn.upf
     MD5 check sum: 7f56cabf9682ed8c977c2f7d0c5985c5
     Pseudo is Ultrasoft + core correction, Zval = 12.0
     Generated using &quot;atomic&quot; code by A. Dal Corso  v.6.2.2
     Using radial grid of 1201 points,  6 beta functions with: 
                l(1) =   0
                l(2) =   0
                l(3) =   1
                l(4) =   1
                l(5) =   2
                l(6) =   2
     Q(r) pseudized with 0 coefficients 


     PseudoPot. # 2 for O  read from file:
     /home/jvc/QEspresso7.2/ZnO_database/pseudos/O.upf
     MD5 check sum: 91400c9766925bcf19f520983a725ff0
     Pseudo is Ultrasoft + core correction, Zval =  6.0
     Generated using &quot;atomic&quot; code by A. Dal Corso  v.6.3MaX
     Using radial grid of 1095 points,  4 beta functions with: 
                l(1) =   0
                l(2) =   0
                l(3) =   1
                l(4) =   1
     Q(r) pseudized with 0 coefficients 


     atomic species   valence    mass     pseudopotential
        Zn            12.00    65.38000     Zn( 1.00)
        O              6.00    15.99900     O ( 1.00)

      2 Sym. Ops. (no inversion) found


                                    s                        frac. trans.

      isym =  1     identity                                     

 cryst.   s( 1) = (     1          0          0      )
                  (     0          1          0      )
                  (     0          0          1      )

 cart.    s( 1) = (  1.0000000  0.0000000  0.0000000 )
                  (  0.0000000  1.0000000  0.0000000 )
                  (  0.0000000  0.0000000  1.0000000 )


      isym =  2     inv. 180 deg rotation - cryst. axis [0,1,0]  

 cryst.   s( 2) = (     1          3          0      )
                  (     0         -1          0      )
                  (     0          0          1      )

 cart.    s( 2) = (  0.5000000  0.8660254  0.0000000 )
                  (  0.8660254 -0.5000000  0.0000000 )
                  (  0.0000000  0.0000000  1.0000000 )


   Cartesian axes

     site n.     atom                  positions (alat units)
         1           Zn  tau(   1) = (   0.1666667   0.0962250   0.2586246  )
         2           Zn  tau(   2) = (  -0.0000000   0.1924501   0.0003273  )
         3           O   tau(   3) = (   0.1666667   0.0962250   0.4544362  )
         4           O   tau(   4) = (  -0.0000000   0.1924501   0.1961388  )
         5           Zn  tau(   5) = (   0.1666667   0.0962250   0.7752193  )
         6           Zn  tau(   6) = (  -0.0000000   0.1924501   0.5169220  )
         7           O   tau(   7) = (   0.1666667   0.0962250   0.9710308  )
         8           O   tau(   8) = (  -0.0000000   0.1924501   0.7127335  )
         9           Zn  tau(   9) = (   0.1666667   0.0962250   1.2918140  )
        10           Zn  tau(  10) = (  -0.0000000   0.1924501   1.0335167  )
        11           O   tau(  11) = (   0.1666667   0.0962250   1.4876255  )
        12           O   tau(  12) = (  -0.0000000   0.1924501   1.2293282  )
        13           Zn  tau(  13) = (   0.5000000   0.0962250   0.2586246  )
        14           Zn  tau(  14) = (   0.3333333   0.1924501   0.0003273  )
        15           O   tau(  15) = (   0.5000000   0.0962250   0.4544362  )
        16           O   tau(  16) = (   0.3333333   0.1924501   0.1961388  )
        17           Zn  tau(  17) = (   0.5000000   0.0962250   0.7752193  )
        18           Zn  tau(  18) = (   0.3333333   0.1924501   0.5169220  )
        19           O   tau(  19) = (   0.5000000   0.0962250   0.9710308  )
        20           O   tau(  20) = (   0.3333333   0.1924501   0.7127335  )
        21           Zn  tau(  21) = (   0.5000000   0.0962250   1.2918140  )
        22           Zn  tau(  22) = (   0.3333333   0.1924501   1.0335167  )
        23           O   tau(  23) = (   0.5000000   0.0962250   1.4876255  )
        24           O   tau(  24) = (   0.3333333   0.1924501   1.2293282  )
        25           Zn  tau(  25) = (   0.8333333   0.0962250   0.2586246  )
        26           Zn  tau(  26) = (   0.6666667   0.1924501   0.0003273  )
        27           O   tau(  27) = (   0.8333333   0.0962250   0.4544362  )
        28           O   tau(  28) = (   0.6666667   0.1924501   0.1961388  )
        29           Zn  tau(  29) = (   0.8333333   0.0962250   0.7752193  )
        30           Zn  tau(  30) = (   0.6666667   0.1924501   0.5169220  )
        31           O   tau(  31) = (   0.8333333   0.0962250   0.9710308  )
        32           O   tau(  32) = (   0.6666667   0.1924501   0.7127335  )
        33           Zn  tau(  33) = (   0.8333333   0.0962250   1.2918140  )
        34           Zn  tau(  34) = (   0.6666667   0.1924501   1.0335167  )
        35           O   tau(  35) = (   0.8333333   0.0962250   1.4876255  )
        36           O   tau(  36) = (   0.6666667   0.1924501   1.2293282  )

   Crystallographic axes

     site n.     atom                  positions (cryst. coord.)
         1           Zn  tau(   1) = (  0.2222222  0.3333333  0.1668779  )
         2           Zn  tau(   2) = (  0.1111111  0.6666667  0.0002112  )
         3           O   tau(   3) = (  0.2222222  0.3333333  0.2932255  )
         4           O   tau(   4) = (  0.1111111  0.6666667  0.1265588  )
         5           Zn  tau(   5) = (  0.2222222  0.3333333  0.5002112  )
         6           Zn  tau(   6) = (  0.1111111  0.6666667  0.3335445  )
         7           O   tau(   7) = (  0.2222222  0.3333333  0.6265588  )
         8           O   tau(   8) = (  0.1111111  0.6666667  0.4598921  )
         9           Zn  tau(   9) = (  0.2222222  0.3333333  0.8335445  )
        10           Zn  tau(  10) = (  0.1111111  0.6666667  0.6668779  )
        11           O   tau(  11) = (  0.2222222  0.3333333  0.9598921  )
        12           O   tau(  12) = (  0.1111111  0.6666667  0.7932255  )
        13           Zn  tau(  13) = (  0.5555556  0.3333333  0.1668779  )
        14           Zn  tau(  14) = (  0.4444444  0.6666667  0.0002112  )
        15           O   tau(  15) = (  0.5555556  0.3333333  0.2932255  )
        16           O   tau(  16) = (  0.4444444  0.6666667  0.1265588  )
        17           Zn  tau(  17) = (  0.5555556  0.3333333  0.5002112  )
        18           Zn  tau(  18) = (  0.4444444  0.6666667  0.3335445  )
        19           O   tau(  19) = (  0.5555556  0.3333333  0.6265588  )
        20           O   tau(  20) = (  0.4444444  0.6666667  0.4598921  )
        21           Zn  tau(  21) = (  0.5555556  0.3333333  0.8335445  )
        22           Zn  tau(  22) = (  0.4444444  0.6666667  0.6668779  )
        23           O   tau(  23) = (  0.5555556  0.3333333  0.9598921  )
        24           O   tau(  24) = (  0.4444444  0.6666667  0.7932255  )
        25           Zn  tau(  25) = (  0.8888889  0.3333333  0.1668779  )
        26           Zn  tau(  26) = (  0.7777778  0.6666667  0.0002112  )
        27           O   tau(  27) = (  0.8888889  0.3333333  0.2932255  )
        28           O   tau(  28) = (  0.7777778  0.6666667  0.1265588  )
        29           Zn  tau(  29) = (  0.8888889  0.3333333  0.5002112  )
        30           Zn  tau(  30) = (  0.7777778  0.6666667  0.3335445  )
        31           O   tau(  31) = (  0.8888889  0.3333333  0.6265588  )
        32           O   tau(  32) = (  0.7777778  0.6666667  0.4598921  )
        33           Zn  tau(  33) = (  0.8888889  0.3333333  0.8335445  )
        34           Zn  tau(  34) = (  0.7777778  0.6666667  0.6668779  )
        35           O   tau(  35) = (  0.8888889  0.3333333  0.9598921  )
        36           O   tau(  36) = (  0.7777778  0.6666667  0.7932255  )

     number of k points=    68
                       cart. coord. in units 2pi/alat
        k(    1) = (   0.0000000   0.0000000   0.0000000), wk =   0.0092593
        k(    2) = (   0.0000000   0.0000000   0.1075419), wk =   0.0185185
        k(    3) = (   0.0000000   0.0000000   0.2150837), wk =   0.0185185
        k(    4) = (   0.0000000   0.0000000  -0.3226256), wk =   0.0092593
        k(    5) = (   0.0000000   0.5773503   0.0000000), wk =   0.0370370
        k(    6) = (   0.0000000   0.5773503   0.1075419), wk =   0.0370370
        k(    7) = (   0.0000000   0.5773503   0.2150837), wk =   0.0370370
        k(    8) = (   0.0000000   0.5773503  -0.3226256), wk =   0.0370370
        k(    9) = (   0.0000000   1.1547005   0.0000000), wk =   0.0185185
        k(   10) = (   0.0000000   1.1547005   0.1075419), wk =   0.0370370
        k(   11) = (   0.0000000   1.1547005   0.2150837), wk =   0.0370370
        k(   12) = (   0.0000000   1.1547005  -0.3226256), wk =   0.0185185
        k(   13) = (   0.0000000  -1.7320508   0.0000000), wk =   0.0185185
        k(   14) = (   0.0000000  -1.7320508   0.1075419), wk =   0.0370370
        k(   15) = (   0.0000000  -1.7320508   0.2150837), wk =   0.0370370
        k(   16) = (   0.0000000  -1.7320508  -0.3226256), wk =   0.0185185
        k(   17) = (   0.1666667   0.0962250   0.0000000), wk =   0.0185185
        k(   18) = (   0.1666667   0.0962250   0.1075419), wk =   0.0185185
        k(   19) = (   0.1666667   0.0962250   0.2150837), wk =   0.0185185
        k(   20) = (   0.1666667   0.0962250  -0.3226256), wk =   0.0185185
        k(   21) = (   0.1666667   0.6735753   0.0000000), wk =   0.0370370
        k(   22) = (   0.1666667   0.6735753   0.1075419), wk =   0.0370370
        k(   23) = (   0.1666667   0.6735753   0.2150837), wk =   0.0370370
        k(   24) = (   0.1666667   0.6735753  -0.3226256), wk =   0.0370370
        k(   25) = (   0.1666667   1.2509256   0.0000000), wk =   0.0370370
        k(   26) = (   0.1666667   1.2509256   0.1075419), wk =   0.0370370
        k(   27) = (   0.1666667   1.2509256   0.2150837), wk =   0.0370370
        k(   28) = (   0.1666667   1.2509256  -0.3226256), wk =   0.0370370
        k(   29) = (   0.1666667  -1.6358258   0.0000000), wk =   0.0370370
        k(   30) = (   0.1666667  -1.6358258   0.1075419), wk =   0.0370370
        k(   31) = (   0.1666667  -1.6358258   0.2150837), wk =   0.0370370
        k(   32) = (   0.1666667  -1.6358258  -0.3226256), wk =   0.0370370
        k(   33) = (   0.1666667  -0.4811252   0.0000000), wk =   0.0370370
        k(   34) = (   0.1666667  -0.4811252   0.1075419), wk =   0.0370370
        k(   35) = (   0.1666667  -0.4811252   0.2150837), wk =   0.0370370
        k(   36) = (   0.1666667  -0.4811252  -0.3226256), wk =   0.0370370
        k(   37) = (   0.3333333   0.1924501   0.0000000), wk =   0.0185185
        k(   38) = (   0.3333333   0.1924501   0.1075419), wk =   0.0185185
        k(   39) = (   0.3333333   0.1924501   0.2150837), wk =   0.0185185
        k(   40) = (   0.3333333   0.1924501  -0.3226256), wk =   0.0185185
        k(   41) = (   0.3333333   1.3471506   0.0000000), wk =   0.0370370
        k(   42) = (   0.3333333   1.3471506   0.1075419), wk =   0.0370370
        k(   43) = (   0.3333333   1.3471506   0.2150837), wk =   0.0370370
        k(   44) = (   0.3333333   1.3471506  -0.3226256), wk =   0.0370370
        k(   45) = (  -0.5000000  -0.2886751   0.0000000), wk =   0.0092593
        k(   46) = (  -0.5000000  -0.2886751   0.1075419), wk =   0.0185185
        k(   47) = (  -0.5000000  -0.2886751   0.2150837), wk =   0.0185185
        k(   48) = (  -0.5000000  -0.2886751  -0.3226256), wk =   0.0092593
        k(   49) = (  -0.5000000   0.8660254   0.0000000), wk =   0.0185185
        k(   50) = (  -0.5000000   0.8660254   0.1075419), wk =   0.0370370
        k(   51) = (  -0.5000000   0.8660254   0.2150837), wk =   0.0370370
        k(   52) = (  -0.5000000   0.8660254  -0.3226256), wk =   0.0185185
        k(   53) = (   0.5000000  -0.2886751  -0.1075419), wk =   0.0370370
        k(   54) = (   0.5000000  -0.2886751  -0.2150837), wk =   0.0370370
        k(   55) = (   0.1666667   0.0962250  -0.1075419), wk =   0.0185185
        k(   56) = (   0.1666667   0.0962250  -0.2150837), wk =   0.0185185
        k(   57) = (   0.6666667  -0.1924501  -0.1075419), wk =   0.0370370
        k(   58) = (   0.6666667  -0.1924501  -0.2150837), wk =   0.0370370
        k(   59) = (   1.1666667  -0.4811252  -0.1075419), wk =   0.0370370
        k(   60) = (   1.1666667  -0.4811252  -0.2150837), wk =   0.0370370
        k(   61) = (  -1.3333333   0.9622504  -0.1075419), wk =   0.0370370
        k(   62) = (  -1.3333333   0.9622504  -0.2150837), wk =   0.0370370
        k(   63) = (  -0.3333333   0.3849002  -0.1075419), wk =   0.0370370
        k(   64) = (  -0.3333333   0.3849002  -0.2150837), wk =   0.0370370
        k(   65) = (   0.3333333   0.1924501  -0.1075419), wk =   0.0185185
        k(   66) = (   0.3333333   0.1924501  -0.2150837), wk =   0.0185185
        k(   67) = (   1.3333333  -0.3849002  -0.1075419), wk =   0.0370370
        k(   68) = (   1.3333333  -0.3849002  -0.2150837), wk =   0.0370370

                       cryst. coord.
        k(    1) = (   0.0000000   0.0000000   0.0000000), wk =   0.0092593
        k(    2) = (   0.0000000   0.0000000   0.1666667), wk =   0.0185185
        k(    3) = (   0.0000000   0.0000000   0.3333333), wk =   0.0185185
        k(    4) = (   0.0000000   0.0000000  -0.5000000), wk =   0.0092593
        k(    5) = (   0.0000000   0.1666667   0.0000000), wk =   0.0370370
        k(    6) = (   0.0000000   0.1666667   0.1666667), wk =   0.0370370
        k(    7) = (   0.0000000   0.1666667   0.3333333), wk =   0.0370370
        k(    8) = (   0.0000000   0.1666667  -0.5000000), wk =   0.0370370
        k(    9) = (   0.0000000   0.3333333   0.0000000), wk =   0.0185185
        k(   10) = (   0.0000000   0.3333333   0.1666667), wk =   0.0370370
        k(   11) = (   0.0000000   0.3333333   0.3333333), wk =   0.0370370
        k(   12) = (   0.0000000   0.3333333  -0.5000000), wk =   0.0185185
        k(   13) = (   0.0000000  -0.5000000   0.0000000), wk =   0.0185185
        k(   14) = (   0.0000000  -0.5000000   0.1666667), wk =   0.0370370
        k(   15) = (   0.0000000  -0.5000000   0.3333333), wk =   0.0370370
        k(   16) = (   0.0000000  -0.5000000  -0.5000000), wk =   0.0185185
        k(   17) = (   0.1666667   0.0000000   0.0000000), wk =   0.0185185
        k(   18) = (   0.1666667   0.0000000   0.1666667), wk =   0.0185185
        k(   19) = (   0.1666667   0.0000000   0.3333333), wk =   0.0185185
        k(   20) = (   0.1666667   0.0000000  -0.5000000), wk =   0.0185185
        k(   21) = (   0.1666667   0.1666667   0.0000000), wk =   0.0370370
        k(   22) = (   0.1666667   0.1666667   0.1666667), wk =   0.0370370
        k(   23) = (   0.1666667   0.1666667   0.3333333), wk =   0.0370370
        k(   24) = (   0.1666667   0.1666667  -0.5000000), wk =   0.0370370
        k(   25) = (   0.1666667   0.3333333   0.0000000), wk =   0.0370370
        k(   26) = (   0.1666667   0.3333333   0.1666667), wk =   0.0370370
        k(   27) = (   0.1666667   0.3333333   0.3333333), wk =   0.0370370
        k(   28) = (   0.1666667   0.3333333  -0.5000000), wk =   0.0370370
        k(   29) = (   0.1666667  -0.5000000   0.0000000), wk =   0.0370370
        k(   30) = (   0.1666667  -0.5000000   0.1666667), wk =   0.0370370
        k(   31) = (   0.1666667  -0.5000000   0.3333333), wk =   0.0370370
        k(   32) = (   0.1666667  -0.5000000  -0.5000000), wk =   0.0370370
        k(   33) = (   0.1666667  -0.1666667   0.0000000), wk =   0.0370370
        k(   34) = (   0.1666667  -0.1666667   0.1666667), wk =   0.0370370
        k(   35) = (   0.1666667  -0.1666667   0.3333333), wk =   0.0370370
        k(   36) = (   0.1666667  -0.1666667  -0.5000000), wk =   0.0370370
        k(   37) = (   0.3333333   0.0000000   0.0000000), wk =   0.0185185
        k(   38) = (   0.3333333   0.0000000   0.1666667), wk =   0.0185185
        k(   39) = (   0.3333333   0.0000000   0.3333333), wk =   0.0185185
        k(   40) = (   0.3333333   0.0000000  -0.5000000), wk =   0.0185185
        k(   41) = (   0.3333333   0.3333333   0.0000000), wk =   0.0370370
        k(   42) = (   0.3333333   0.3333333   0.1666667), wk =   0.0370370
        k(   43) = (   0.3333333   0.3333333   0.3333333), wk =   0.0370370
        k(   44) = (   0.3333333   0.3333333  -0.5000000), wk =   0.0370370
        k(   45) = (  -0.5000000  -0.0000000   0.0000000), wk =   0.0092593
        k(   46) = (  -0.5000000  -0.0000000   0.1666667), wk =   0.0185185
        k(   47) = (  -0.5000000  -0.0000000   0.3333333), wk =   0.0185185
        k(   48) = (  -0.5000000  -0.0000000  -0.5000000), wk =   0.0092593
        k(   49) = (  -0.5000000   0.3333333   0.0000000), wk =   0.0185185
        k(   50) = (  -0.5000000   0.3333333   0.1666667), wk =   0.0370370
        k(   51) = (  -0.5000000   0.3333333   0.3333333), wk =   0.0370370
        k(   52) = (  -0.5000000   0.3333333  -0.5000000), wk =   0.0185185
        k(   53) = (   0.5000000  -0.1666667  -0.1666667), wk =   0.0370370
        k(   54) = (   0.5000000  -0.1666667  -0.3333333), wk =   0.0370370
        k(   55) = (   0.1666667   0.0000000  -0.1666667), wk =   0.0185185
        k(   56) = (   0.1666667   0.0000000  -0.3333333), wk =   0.0185185
        k(   57) = (   0.6666667  -0.1666667  -0.1666667), wk =   0.0370370
        k(   58) = (   0.6666667  -0.1666667  -0.3333333), wk =   0.0370370
        k(   59) = (   1.1666667  -0.3333333  -0.1666667), wk =   0.0370370
        k(   60) = (   1.1666667  -0.3333333  -0.3333333), wk =   0.0370370
        k(   61) = (  -1.3333333   0.5000000  -0.1666667), wk =   0.0370370
        k(   62) = (  -1.3333333   0.5000000  -0.3333333), wk =   0.0370370
        k(   63) = (  -0.3333333   0.1666667  -0.1666667), wk =   0.0370370
        k(   64) = (  -0.3333333   0.1666667  -0.3333333), wk =   0.0370370
        k(   65) = (   0.3333333   0.0000000  -0.1666667), wk =   0.0185185
        k(   66) = (   0.3333333   0.0000000  -0.3333333), wk =   0.0185185
        k(   67) = (   1.3333333  -0.3333333  -0.1666667), wk =   0.0370370
        k(   68) = (   1.3333333  -0.3333333  -0.3333333), wk =   0.0370370

     Dense  grid:   484935 G-vectors     FFT dimensions: ( 128,  45, 200)

     Smooth grid:   171179 G-vectors     FFT dimensions: (  96,  32, 144)

     Dynamical RAM for                 wfc:      26.49 MB

     Dynamical RAM for     wfc (w. buffer):     158.92 MB

     Dynamical RAM for           str. fact:       7.40 MB

     Dynamical RAM for           local pot:       0.00 MB

     Dynamical RAM for          nlocal pot:      76.52 MB

     Dynamical RAM for                qrad:       3.21 MB

     Dynamical RAM for          rho,v,vnew:      24.28 MB

     Dynamical RAM for               rhoin:       8.09 MB

     Dynamical RAM for            rho*nmix:      59.20 MB

     Dynamical RAM for           G-vectors:      14.53 MB

     Dynamical RAM for          h,s,v(r/c):       4.81 MB

     Dynamical RAM for          <psi|beta>:       1.16 MB

     Dynamical RAM for                 psi:      52.97 MB

     Dynamical RAM for                hpsi:      52.97 MB

     Dynamical RAM for                spsi:      52.97 MB

     Dynamical RAM for      wfcinit/wfcrot:      77.77 MB

     Dynamical RAM for           addusdens:      50.64 MB

     Dynamical RAM for          addusforce:      56.95 MB

     Estimated static dynamical RAM per process >     326.02 MB

     Estimated max dynamical RAM per process >     550.10 MB

     Estimated total dynamical RAM >      15.46 GB

     Check: negative core charge=   -0.000002

     Initial potential from superposition of free atoms

     starting charge     323.9329, renormalised to     324.0000
     Starting wfcs are  234 randomized atomic wfcs

     total cpu time spent up to now is       47.0 secs

     Self-consistent Calculation

     iteration #  1     ecut=    50.00 Ry     beta= 0.30
     Davidson diagonalization with overlap

---- Real-time Memory Report at c_bands before calling an iterative solver
           446 MiB given to the printing process from OS
             0 MiB allocation reported by mallinfo(arena+hblkhd)
        107892 MiB available memory on the node where the printing process lives
------------------
     ethr =  1.00E-02,  avg # of iterations =  1.8

     total cpu time spent up to now is      118.2 secs

     total energy              =   -3252.66672793 Ry
     estimated scf accuracy    <       7.04701750 Ry

     iteration #  2     ecut=    50.00 Ry     beta= 0.30
     Davidson diagonalization with overlap

---- Real-time Memory Report at c_bands before calling an iterative solver
           557 MiB given to the printing process from OS
             0 MiB allocation reported by mallinfo(arena+hblkhd)
        107111 MiB available memory on the node where the printing process lives
------------------
     ethr =  2.18E-03,  avg # of iterations =  2.6

     total cpu time spent up to now is      206.8 secs

     total energy              =   -3253.75025355 Ry
     estimated scf accuracy    <       0.79313322 Ry

     iteration #  3     ecut=    50.00 Ry     beta= 0.30
     Davidson diagonalization with overlap

---- Real-time Memory Report at c_bands before calling an iterative solver
           570 MiB given to the printing process from OS
             0 MiB allocation reported by mallinfo(arena+hblkhd)
        107075 MiB available memory on the node where the printing process lives
------------------
     ethr =  2.45E-04,  avg # of iterations =  8.1

     total cpu time spent up to now is      354.3 secs

     total energy              =   -3253.82153632 Ry
     estimated scf accuracy    <       1.00855307 Ry

     iteration #  4     ecut=    50.00 Ry     beta= 0.30
     Davidson diagonalization with overlap

---- Real-time Memory Report at c_bands before calling an iterative solver
           573 MiB given to the printing process from OS
             0 MiB allocation reported by mallinfo(arena+hblkhd)
        106678 MiB available memory on the node where the printing process lives
------------------
     ethr =  2.45E-04,  avg # of iterations = 11.8

     total cpu time spent up to now is      571.4 secs

     total energy              =   -3254.68375874 Ry
     estimated scf accuracy    <       4.29139746 Ry

     iteration #  5     ecut=    50.00 Ry     beta= 0.30
     Davidson diagonalization with overlap

---- Real-time Memory Report at c_bands before calling an iterative solver
           576 MiB given to the printing process from OS
             0 MiB allocation reported by mallinfo(arena+hblkhd)
        106991 MiB available memory on the node where the printing process lives
------------------
     ethr =  2.45E-04,  avg # of iterations =  2.0

     total cpu time spent up to now is      645.2 secs

     total energy              =   -3252.83907403 Ry
     estimated scf accuracy    <       2.80529822 Ry

     iteration #  6     ecut=    50.00 Ry     beta= 0.30
     Davidson diagonalization with overlap

---- Real-time Memory Report at c_bands before calling an iterative solver
           578 MiB given to the printing process from OS
             0 MiB allocation reported by mallinfo(arena+hblkhd)
        106817 MiB available memory on the node where the printing process lives
------------------
     ethr =  2.45E-04,  avg # of iterations = 11.8

     total cpu time spent up to now is      823.0 secs

     total energy              =   -3254.29817019 Ry
     estimated scf accuracy    <       3.35876840 Ry

     iteration #  7     ecut=    50.00 Ry     beta= 0.30
     Davidson diagonalization with overlap

---- Real-time Memory Report at c_bands before calling an iterative solver
           581 MiB given to the printing process from OS
             0 MiB allocation reported by mallinfo(arena+hblkhd)
        106915 MiB available memory on the node where the printing process lives
------------------
     ethr =  2.45E-04,  avg # of iterations =  2.4

     total cpu time spent up to now is      907.1 secs

     total energy              =   -3254.34424206 Ry
     estimated scf accuracy    <       1.63412989 Ry

     iteration #  8     ecut=    50.00 Ry     beta= 0.30
     Davidson diagonalization with overlap

---- Real-time Memory Report at c_bands before calling an iterative solver
           584 MiB given to the printing process from OS
             0 MiB allocation reported by mallinfo(arena+hblkhd)
        106938 MiB available memory on the node where the printing process lives
------------------
     ethr =  2.45E-04,  avg # of iterations =  2.0

     total cpu time spent up to now is      983.8 secs

     total energy              =   -3254.38972627 Ry
     estimated scf accuracy    <       1.24126878 Ry

     iteration #  9     ecut=    50.00 Ry     beta= 0.30
     Davidson diagonalization with overlap

---- Real-time Memory Report at c_bands before calling an iterative solver
           586 MiB given to the printing process from OS
             0 MiB allocation reported by mallinfo(arena+hblkhd)
        106966 MiB available memory on the node where the printing process lives
------------------
     ethr =  2.45E-04,  avg # of iterations =  2.0

     total cpu time spent up to now is     1058.7 secs

     total energy              =   -3254.41493514 Ry
     estimated scf accuracy    <       0.98087784 Ry

     iteration # 10     ecut=    50.00 Ry     beta= 0.30
     Davidson diagonalization with overlap

---- Real-time Memory Report at c_bands before calling an iterative solver
           589 MiB given to the printing process from OS
             0 MiB allocation reported by mallinfo(arena+hblkhd)
        106974 MiB available memory on the node where the printing process lives
------------------
     ethr =  2.45E-04,  avg # of iterations =  1.9

     total cpu time spent up to now is     1130.2 secs

     total energy              =   -3254.36505178 Ry
     estimated scf accuracy    <       0.80255122 Ry

     iteration # 11     ecut=    50.00 Ry     beta= 0.30
     Davidson diagonalization with overlap

---- Real-time Memory Report at c_bands before calling an iterative solver
           591 MiB given to the printing process from OS
             0 MiB allocation reported by mallinfo(arena+hblkhd)
        106878 MiB available memory on the node where the printing process lives
------------------
     ethr =  2.45E-04,  avg # of iterations =  2.0

     total cpu time spent up to now is     1202.4 secs

     total energy              =   -3254.30763177 Ry
     estimated scf accuracy    <       0.56310272 Ry

     iteration # 12     ecut=    50.00 Ry     beta= 0.30
     Davidson diagonalization with overlap

---- Real-time Memory Report at c_bands before calling an iterative solver
           591 MiB given to the printing process from OS
             0 MiB allocation reported by mallinfo(arena+hblkhd)
        106843 MiB available memory on the node where the printing process lives
------------------
     ethr =  1.74E-04,  avg # of iterations =  2.8

     total cpu time spent up to now is     1281.5 secs

     total energy              =   -3254.35339912 Ry
     estimated scf accuracy    <       0.30501173 Ry

     iteration # 13     ecut=    50.00 Ry     beta= 0.30
     Davidson diagonalization with overlap

---- Real-time Memory Report at c_bands before calling an iterative solver
           591 MiB given to the printing process from OS
             0 MiB allocation reported by mallinfo(arena+hblkhd)
        106969 MiB available memory on the node where the printing process lives
------------------
     ethr =  9.41E-05,  avg # of iterations =  3.5

     total cpu time spent up to now is     1360.7 secs

     total energy              =   -3254.45076947 Ry
     estimated scf accuracy    <       0.30431724 Ry

     iteration # 14     ecut=    50.00 Ry     beta= 0.30
     Davidson diagonalization with overlap

---- Real-time Memory Report at c_bands before calling an iterative solver
           592 MiB given to the printing process from OS
             0 MiB allocation reported by mallinfo(arena+hblkhd)
        106973 MiB available memory on the node where the printing process lives
------------------
     ethr =  9.39E-05,  avg # of iterations =  1.2

     total cpu time spent up to now is     1430.0 secs

     total energy              =   -3254.48088934 Ry
     estimated scf accuracy    <       0.45900638 Ry

     iteration # 15     ecut=    50.00 Ry     beta= 0.30
     Davidson diagonalization with overlap

---- Real-time Memory Report at c_bands before calling an iterative solver
           592 MiB given to the printing process from OS
             0 MiB allocation reported by mallinfo(arena+hblkhd)
        106972 MiB available memory on the node where the printing process lives
------------------
     ethr =  9.39E-05,  avg # of iterations =  1.0

     total cpu time spent up to now is     1495.9 secs

     total energy              =   -3254.40900505 Ry
     estimated scf accuracy    <       0.53445676 Ry

     iteration # 16     ecut=    50.00 Ry     beta= 0.30
     Davidson diagonalization with overlap

---- Real-time Memory Report at c_bands before calling an iterative solver
           592 MiB given to the printing process from OS
             0 MiB allocation reported by mallinfo(arena+hblkhd)
        106984 MiB available memory on the node where the printing process lives
------------------
     ethr =  9.39E-05,  avg # of iterations =  1.7

     total cpu time spent up to now is     1566.8 secs

     total energy              =   -3254.20473822 Ry
     estimated scf accuracy    <       0.39543603 Ry

     iteration # 17     ecut=    50.00 Ry     beta= 0.30
     Davidson diagonalization with overlap

---- Real-time Memory Report at c_bands before calling an iterative solver
           592 MiB given to the printing process from OS
             0 MiB allocation reported by mallinfo(arena+hblkhd)
        106955 MiB available memory on the node where the printing process lives
------------------
     ethr =  9.39E-05,  avg # of iterations =  7.2

     total cpu time spent up to now is     1687.5 secs

     total energy              =   -3254.30055655 Ry
     estimated scf accuracy    <       0.08962559 Ry

     iteration # 18     ecut=    50.00 Ry     beta= 0.30
     Davidson diagonalization with overlap

---- Real-time Memory Report at c_bands before calling an iterative solver
           592 MiB given to the printing process from OS
             0 MiB allocation reported by mallinfo(arena+hblkhd)
        106820 MiB available memory on the node where the printing process lives
------------------
     ethr =  2.77E-05,  avg # of iterations =  8.8

     total cpu time spent up to now is     1851.1 secs

     total energy              =   -3254.35609887 Ry
     estimated scf accuracy    <       0.44631759 Ry

     iteration # 19     ecut=    50.00 Ry     beta= 0.30
     Davidson diagonalization with overlap

---- Real-time Memory Report at c_bands before calling an iterative solver
           592 MiB given to the printing process from OS
             0 MiB allocation reported by mallinfo(arena+hblkhd)
        106868 MiB available memory on the node where the printing process lives
------------------
     ethr =  2.77E-05,  avg # of iterations =  2.2

     total cpu time spent up to now is     1932.8 secs

     total energy              =   -3254.29214731 Ry
     estimated scf accuracy    <       0.24632637 Ry

     iteration # 20     ecut=    50.00 Ry     beta= 0.30
     Davidson diagonalization with overlap

---- Real-time Memory Report at c_bands before calling an iterative solver
           592 MiB given to the printing process from OS
             0 MiB allocation reported by mallinfo(arena+hblkhd)
        107020 MiB available memory on the node where the printing process lives
------------------
     ethr =  2.77E-05,  avg # of iterations =  6.3

     total cpu time spent up to now is     2056.3 secs

     total energy              =   -3254.34749972 Ry
     estimated scf accuracy    <       0.00075677 Ry

     iteration # 21     ecut=    50.00 Ry     beta= 0.30
     Davidson diagonalization with overlap

---- Real-time Memory Report at c_bands before calling an iterative solver
           592 MiB given to the printing process from OS
             0 MiB allocation reported by mallinfo(arena+hblkhd)
        106953 MiB available memory on the node where the printing process lives
------------------
     ethr =  2.34E-07,  avg # of iterations = 13.5

     total cpu time spent up to now is     2268.0 secs

     total energy              =   -3254.35199977 Ry
     estimated scf accuracy    <       0.00483143 Ry

     iteration # 22     ecut=    50.00 Ry     beta= 0.30
     Davidson diagonalization with overlap

---- Real-time Memory Report at c_bands before calling an iterative solver
           592 MiB given to the printing process from OS
             0 MiB allocation reported by mallinfo(arena+hblkhd)
        106978 MiB available memory on the node where the printing process lives
------------------
     ethr =  2.34E-07,  avg # of iterations =  7.7

     total cpu time spent up to now is     2393.1 secs

     total energy              =   -3254.35759964 Ry
     estimated scf accuracy    <       0.01436941 Ry

     iteration # 23     ecut=    50.00 Ry     beta= 0.30
     Davidson diagonalization with overlap

---- Real-time Memory Report at c_bands before calling an iterative solver
           592 MiB given to the printing process from OS
             0 MiB allocation reported by mallinfo(arena+hblkhd)
        106923 MiB available memory on the node where the printing process lives
------------------
     ethr =  2.34E-07,  avg # of iterations = 11.1

     total cpu time spent up to now is     2580.9 secs

     total energy              =   -3254.39468232 Ry
     estimated scf accuracy    <       0.04166148 Ry

     iteration # 24     ecut=    50.00 Ry     beta= 0.30
     Davidson diagonalization with overlap

---- Real-time Memory Report at c_bands before calling an iterative solver
           592 MiB given to the printing process from OS
             0 MiB allocation reported by mallinfo(arena+hblkhd)
        106877 MiB available memory on the node where the printing process lives
------------------
     c_bands:  1 eigenvalues not converged
     c_bands:  2 eigenvalues not converged
     c_bands:  2 eigenvalues not converged
     ethr =  2.34E-07,  avg # of iterations = 17.2

     total cpu time spent up to now is     2895.9 secs

     total energy              =   -3254.39419317 Ry
     estimated scf accuracy    <       0.26989923 Ry

     iteration # 25     ecut=    50.00 Ry     beta= 0.30
     Davidson diagonalization with overlap

---- Real-time Memory Report at c_bands before calling an iterative solver
           592 MiB given to the printing process from OS
             0 MiB allocation reported by mallinfo(arena+hblkhd)
        106951 MiB available memory on the node where the printing process lives
------------------
     ethr =  2.34E-07,  avg # of iterations =  8.7

     total cpu time spent up to now is     3060.9 secs

     total energy              =   -3254.39206660 Ry
     estimated scf accuracy    <       0.20281498 Ry

     iteration # 26     ecut=    50.00 Ry     beta= 0.30
     Davidson diagonalization with overlap

---- Real-time Memory Report at c_bands before calling an iterative solver
           592 MiB given to the printing process from OS
             0 MiB allocation reported by mallinfo(arena+hblkhd)
        106959 MiB available memory on the node where the printing process lives
------------------
     ethr =  2.34E-07,  avg # of iterations =  2.1

     total cpu time spent up to now is     3134.8 secs

     total energy              =   -3254.38350707 Ry
     estimated scf accuracy    <       0.19488746 Ry

     iteration # 27     ecut=    50.00 Ry     beta= 0.30
     Davidson diagonalization with overlap

---- Real-time Memory Report at c_bands before calling an iterative solver
           592 MiB given to the printing process from OS
             0 MiB allocation reported by mallinfo(arena+hblkhd)
        106974 MiB available memory on the node where the printing process lives
------------------
     ethr =  2.34E-07,  avg # of iterations =  7.7

     total cpu time spent up to now is     3269.6 secs

     total energy              =   -3254.32639203 Ry
     estimated scf accuracy    <       0.15533530 Ry

     iteration # 28     ecut=    50.00 Ry     beta= 0.30
     Davidson diagonalization with overlap

---- Real-time Memory Report at c_bands before calling an iterative solver
           592 MiB given to the printing process from OS
             0 MiB allocation reported by mallinfo(arena+hblkhd)
        107024 MiB available memory on the node where the printing process lives
------------------
     c_bands:  1 eigenvalues not converged
     c_bands:  1 eigenvalues not converged
     c_bands:  2 eigenvalues not converged
     c_bands:  2 eigenvalues not converged
     ethr =  2.34E-07,  avg # of iterations = 17.9

     total cpu time spent up to now is     3588.4 secs

     total energy              =   -3254.34861902 Ry
     estimated scf accuracy    <       0.00088912 Ry

     iteration # 29     ecut=    50.00 Ry     beta= 0.30
     Davidson diagonalization with overlap

---- Real-time Memory Report at c_bands before calling an iterative solver
           592 MiB given to the printing process from OS
             0 MiB allocation reported by mallinfo(arena+hblkhd)
        106642 MiB available memory on the node where the printing process lives
------------------
     ethr =  2.34E-07,  avg # of iterations =  8.1

     total cpu time spent up to now is     3718.5 secs

     total energy              =   -3254.34896234 Ry
     estimated scf accuracy    <       0.00095680 Ry

     iteration # 30     ecut=    50.00 Ry     beta= 0.30
     Davidson diagonalization with overlap

---- Real-time Memory Report at c_bands before calling an iterative solver
           592 MiB given to the printing process from OS
             0 MiB allocation reported by mallinfo(arena+hblkhd)
        106871 MiB available memory on the node where the printing process lives
------------------
     ethr =  2.34E-07,  avg # of iterations =  2.0

     total cpu time spent up to now is     3792.0 secs

     total energy              =   -3254.34880468 Ry
     estimated scf accuracy    <       0.00036295 Ry

     iteration # 31     ecut=    50.00 Ry     beta= 0.30
     Davidson diagonalization with overlap

---- Real-time Memory Report at c_bands before calling an iterative solver
           592 MiB given to the printing process from OS
             0 MiB allocation reported by mallinfo(arena+hblkhd)
        106914 MiB available memory on the node where the printing process lives
------------------
     ethr =  1.12E-07,  avg # of iterations =  8.2

     total cpu time spent up to now is     3928.4 secs

     total energy              =   -3254.34904899 Ry
     estimated scf accuracy    <       0.00024976 Ry

     iteration # 32     ecut=    50.00 Ry     beta= 0.30
     Davidson diagonalization with overlap

---- Real-time Memory Report at c_bands before calling an iterative solver
           592 MiB given to the printing process from OS
             0 MiB allocation reported by mallinfo(arena+hblkhd)
        106798 MiB available memory on the node where the printing process lives
------------------
     ethr =  7.71E-08,  avg # of iterations =  1.4

     total cpu time spent up to now is     3999.2 secs

     total energy              =   -3254.34896591 Ry
     estimated scf accuracy    <       0.00015784 Ry

     iteration # 33     ecut=    50.00 Ry     beta= 0.30
     Davidson diagonalization with overlap

---- Real-time Memory Report at c_bands before calling an iterative solver
           592 MiB given to the printing process from OS
             0 MiB allocation reported by mallinfo(arena+hblkhd)
        106862 MiB available memory on the node where the printing process lives
------------------
     ethr =  4.87E-08,  avg # of iterations =  6.3

     total cpu time spent up to now is     4119.4 secs

     total energy              =   -3254.34903240 Ry
     estimated scf accuracy    <       0.00004558 Ry

     iteration # 34     ecut=    50.00 Ry     beta= 0.30
     Davidson diagonalization with overlap

---- Real-time Memory Report at c_bands before calling an iterative solver
           592 MiB given to the printing process from OS
             0 MiB allocation reported by mallinfo(arena+hblkhd)
        106829 MiB available memory on the node where the printing process lives
------------------
     ethr =  1.41E-08,  avg # of iterations =  1.9

     total cpu time spent up to now is     4191.4 secs

     total energy              =   -3254.34902739 Ry
     estimated scf accuracy    <       0.00002206 Ry

     iteration # 35     ecut=    50.00 Ry     beta= 0.30
     Davidson diagonalization with overlap

---- Real-time Memory Report at c_bands before calling an iterative solver
           592 MiB given to the printing process from OS
             0 MiB allocation reported by mallinfo(arena+hblkhd)
        106993 MiB available memory on the node where the printing process lives
------------------
     ethr =  6.81E-09,  avg # of iterations =  4.5

     total cpu time spent up to now is     4278.7 secs

     total energy              =   -3254.34903106 Ry
     estimated scf accuracy    <       0.00000179 Ry

     iteration # 36     ecut=    50.00 Ry     beta= 0.30
     Davidson diagonalization with overlap

---- Real-time Memory Report at c_bands before calling an iterative solver
           592 MiB given to the printing process from OS
             0 MiB allocation reported by mallinfo(arena+hblkhd)
        107000 MiB available memory on the node where the printing process lives
------------------
     ethr =  5.54E-10,  avg # of iterations =  8.4

     total cpu time spent up to now is     4433.1 secs

     total energy              =   -3254.34903252 Ry
     estimated scf accuracy    <       0.00000051 Ry

     iteration # 37     ecut=    50.00 Ry     beta= 0.30
     Davidson diagonalization with overlap

---- Real-time Memory Report at c_bands before calling an iterative solver
           592 MiB given to the printing process from OS
             0 MiB allocation reported by mallinfo(arena+hblkhd)
        106939 MiB available memory on the node where the printing process lives
------------------
     ethr =  1.58E-10,  avg # of iterations =  9.6

     total cpu time spent up to now is     4595.6 secs

     total energy              =   -3254.34903300 Ry
     estimated scf accuracy    <       0.00000162 Ry

     iteration # 38     ecut=    50.00 Ry     beta= 0.30
     Davidson diagonalization with overlap

---- Real-time Memory Report at c_bands before calling an iterative solver
           592 MiB given to the printing process from OS
             0 MiB allocation reported by mallinfo(arena+hblkhd)
        106968 MiB available memory on the node where the printing process lives
------------------
     ethr =  1.58E-10,  avg # of iterations =  1.0

     total cpu time spent up to now is     4662.4 secs

     total energy              =   -3254.34903245 Ry
     estimated scf accuracy    <       0.00000123 Ry

     iteration # 39     ecut=    50.00 Ry     beta= 0.30
     Davidson diagonalization with overlap

---- Real-time Memory Report at c_bands before calling an iterative solver
           592 MiB given to the printing process from OS
             0 MiB allocation reported by mallinfo(arena+hblkhd)
        106892 MiB available memory on the node where the printing process lives
------------------
     ethr =  1.58E-10,  avg # of iterations =  6.8

     total cpu time spent up to now is     4787.9 secs

     total energy              =   -3254.34903277 Ry
     estimated scf accuracy    <       0.00000004 Ry

     iteration # 40     ecut=    50.00 Ry     beta= 0.30
     Davidson diagonalization with overlap

---- Real-time Memory Report at c_bands before calling an iterative solver
           592 MiB given to the printing process from OS
             0 MiB allocation reported by mallinfo(arena+hblkhd)
        106908 MiB available memory on the node where the printing process lives
------------------
     ethr =  1.37E-11,  avg # of iterations =  5.5

     total cpu time spent up to now is     4877.8 secs

     End of self-consistent calculation

          k = 0.0000 0.0000 0.0000 ( 21437 PWs)   bands (ev):

   -12.2220 -12.1035 -12.1035 -11.9383 -11.9383 -11.8668 -11.8668 -11.8668
   -11.8668 -11.8615 -11.8615 -11.7381 -11.7284 -11.7284 -11.7284 -11.7284
   -11.6620 -11.6620  -0.6524  -0.6524  -0.6524  -0.6524  -0.5993  -0.5993
    -0.5949  -0.5949  -0.5411  -0.5411  -0.5411  -0.5411  -0.5344  -0.5341
    -0.5334  -0.5147  -0.5147  -0.5145  -0.5145  -0.4549  -0.4549  -0.4449
    -0.4449  -0.4448  -0.4448  -0.4121  -0.4121  -0.3997  -0.3997  -0.3924
    -0.3923  -0.3539  -0.3539  -0.3539  -0.3539  -0.2789  -0.2789  -0.2789
    -0.2789  -0.2284  -0.2284  -0.2276  -0.2276  -0.2276  -0.2276  -0.2137
    -0.2137  -0.2137  -0.2137  -0.1310  -0.1310  -0.0360  -0.0360   0.0792
     0.0793   0.0953   0.0953   0.1285   0.1285   0.1285   0.1285   0.1292
     0.1292   0.1443   0.1443   0.1443   0.1443   0.1541   0.1541   0.1541
     0.1541   0.1546   0.2007   0.2007   0.2007   0.2007   0.2094   0.2094
     0.2094   0.2094   0.2227   0.2227   0.2431   0.2431   0.2733   0.2733
     0.2733   0.2733   0.3845   0.3845   0.5319   1.1727   1.1727   1.4142
     1.4142   1.4142   1.4142   1.6651   1.6651   1.7987   1.7988   1.8085
     1.8085   1.8085   1.8085   2.4131   2.4131   2.9071   2.9071   2.9071
     2.9071   2.9720   2.9720   3.0709   3.0709   3.2385   3.2385   3.2385
     3.2385   3.7315   3.7320   3.7437   3.7437   3.7437   3.7437   3.7996
     3.7996   3.7996   3.7996   3.8236   3.8236   3.8982   3.8982   3.8987
     3.8987   3.9883   3.9883   4.2220   4.2220   4.2226   4.2226   4.3789
     4.3794   4.4010

     occupation numbers 
     1.0000   1.0000   1.0000   1.0000   1.0000   1.0000   1.0000   1.0000
     1.0000   1.0000   1.0000   1.0000   1.0000   1.0000   1.0000   1.0000
     1.0000   1.0000   1.0000   1.0000   1.0000   1.0000   1.0000   1.0000
     1.0000   1.0000   1.0000   1.0000   1.0000   1.0000   1.0000   1.0000
     1.0000   1.0000   1.0000   1.0000   1.0000   1.0000   1.0000   1.0000
     1.0000   1.0000   1.0000   1.0000   1.0000   1.0000   1.0000   1.0000
     1.0000   1.0000   1.0000   1.0000   1.0000   1.0000   1.0000   1.0000
     1.0000   1.0000   1.0000   1.0000   1.0000   1.0000   1.0000   1.0000
     1.0000   1.0000   1.0000   1.0000   1.0000   1.0000   1.0000   1.0000
     1.0000   1.0000   1.0000   1.0000   1.0000   1.0000   1.0000   1.0000
     1.0000   1.0000   1.0000   1.0000   1.0000   1.0000   1.0000   1.0000
     1.0000   1.0000   1.0000   1.0000   1.0000   1.0000   1.0000   1.0000
     1.0000   1.0000   1.0000   1.0000   1.0000   1.0000   1.0000   1.0000
     1.0000   1.0000   1.0000   1.0000   1.0000   1.0000   1.0000   1.0000
     1.0000   1.0000   1.0000   1.0000   1.0000   1.0000   1.0000   1.0000
     1.0000   1.0000   1.0000   1.0000   1.0000   1.0000   1.0000   1.0000
     1.0000   1.0000   1.0000   1.0000   1.0000   1.0000   1.0000   1.0000
     1.0000   1.0000   1.0000   1.0000   1.0000   1.0000   1.0000   1.0000
     1.0000   1.0000   1.0000   1.0000   1.0000   1.0000   1.0000   1.0000
     1.0000   1.0000   1.0000   1.0000   1.0000   1.0000   1.0000   1.0000
     1.0000   1.0000

          k = 0.0000 0.0000 0.1075 ( 21470 PWs)   bands (ev):

   -12.2184 -12.1375 -12.0658 -11.9361 -11.9361 -11.9002 -11.8871 -11.8871
   -11.8445 -11.8445 -11.8264 -11.7498 -11.7498 -11.7419 -11.7092 -11.7092
   -11.6639 -11.6639  -0.6563  -0.6563  -0.6430  -0.6430  -0.6016  -0.6016
    -0.6012  -0.5837  -0.5806  -0.5806  -0.5361  -0.5339  -0.5336  -0.5212
    -0.5210  -0.5151  -0.5066  -0.5064  -0.5006  -0.5006  -0.4590  -0.4588
    -0.4312  -0.4311  -0.4104  -0.4104  -0.4039  -0.4039  -0.3942  -0.3940
    -0.3764  -0.3713  -0.3713  -0.3340  -0.3340  -0.2840  -0.2840  -0.2694
    -0.2694  -0.2508  -0.2508  -0.2382  -0.2382  -0.2305  -0.2305  -0.1956
    -0.1956  -0.1910  -0.1910  -0.1336  -0.1336  -0.0429  -0.0429   0.0809
     0.0809   0.0869   0.0924   0.0924   0.1153   0.1154   0.1238   0.1238
     0.1300   0.1300   0.1418   0.1418   0.1469   0.1469   0.1622   0.1622
     0.1660   0.1660   0.1915   0.1915   0.1999   0.1999   0.2083   0.2083
     0.2183   0.2183   0.2222   0.2222   0.2419   0.2419   0.2527   0.2527
     0.2938   0.2938   0.3770   0.3770   0.6152   1.1840   1.1840   1.3568
     1.3568   1.4340   1.4755   1.4755   1.7442   1.7442   1.8158   1.8158
     1.8624   1.8624   1.8987   2.4140   2.4140   2.7265   2.7265   2.8355
     2.9803   2.9803   3.0973   3.0973   3.1637   3.1637   3.3083   3.3204
     3.3204   3.6655   3.6656   3.7169   3.7169   3.7366   3.7371   3.8139
     3.8139   3.8300   3.8300   3.8481   3.8481   3.8509   3.8515   3.9502
     3.9508   3.9809   3.9809   4.1717   4.1723   4.2672   4.2678   4.2708
     4.3742   4.3747

     occupation numbers 
     1.0000   1.0000   1.0000   1.0000   1.0000   1.0000   1.0000   1.0000
     1.0000   1.0000   1.0000   1.0000   1.0000   1.0000   1.0000   1.0000
     1.0000   1.0000   1.0000   1.0000   1.0000   1.0000   1.0000   1.0000
     1.0000   1.0000   1.0000   1.0000   1.0000   1.0000   1.0000   1.0000
     1.0000   1.0000   1.0000   1.0000   1.0000   1.0000   1.0000   1.0000
     1.0000   1.0000   1.0000   1.0000   1.0000   1.0000   1.0000   1.0000
     1.0000   1.0000   1.0000   1.0000   1.0000   1.0000   1.0000   1.0000
     1.0000   1.0000   1.0000   1.0000   1.0000   1.0000   1.0000   1.0000
     1.0000   1.0000   1.0000   1.0000   1.0000   1.0000   1.0000   1.0000
     1.0000   1.0000   1.0000   1.0000   1.0000   1.0000   1.0000   1.0000
     1.0000   1.0000   1.0000   1.0000   1.0000   1.0000   1.0000   1.0000
     1.0000   1.0000   1.0000   1.0000   1.0000   1.0000   1.0000   1.0000
     1.0000   1.0000   1.0000   1.0000   1.0000   1.0000   1.0000   1.0000
     1.0000   1.0000   1.0000   1.0000   1.0000   1.0000   1.0000   1.0000
     1.0000   1.0000   1.0000   1.0000   1.0000   1.0000   1.0000   1.0000
     1.0000   1.0000   1.0000   1.0000   1.0000   1.0000   1.0000   1.0000
     1.0000   1.0000   1.0000   1.0000   1.0000   1.0000   1.0000   1.0000
     1.0000   1.0000   1.0000   1.0000   1.0000   1.0000   1.0000   1.0000
     1.0000   1.0000   1.0000   1.0000   1.0000   1.0000   1.0000   1.0000
     1.0000   1.0000   1.0000   1.0000   1.0000   1.0000   1.0000   1.0000
     1.0000   1.0000

          k = 0.0000 0.0000 0.2151 ( 21482 PWs)   bands (ev):

   -12.2078 -12.1668 -12.0253 -11.9412 -11.9296 -11.9296 -11.9047 -11.9047
   -11.8209 -11.8209 -11.7961 -11.7728 -11.7728 -11.7531 -11.6928 -11.6928
   -11.6699 -11.6699  -0.6521  -0.6521  -0.6309  -0.6309  -0.6140  -0.6140
    -0.6082  -0.6082  -0.5988  -0.5697  -0.5579  -0.5438  -0.5325  -0.5323
    -0.5265  -0.5262  -0.4967  -0.4965  -0.4726  -0.4724  -0.4647  -0.4647
    -0.4186  -0.4184  -0.4161  -0.4161  -0.4054  -0.4054  -0.3994  -0.3993
    -0.3857  -0.3857  -0.3119  -0.3119  -0.2837  -0.2837  -0.2798  -0.2671
    -0.2671  -0.2633  -0.2633  -0.2576  -0.2576  -0.2367  -0.2367  -0.1708
    -0.1708  -0.1538  -0.1538  -0.1414  -0.1414  -0.0666  -0.0666  -0.0391
     0.0857   0.0857   0.0893   0.0893   0.1033   0.1034   0.1061   0.1061
     0.1321   0.1322   0.1408   0.1408   0.1556   0.1556   0.1711   0.1711
     0.1808   0.1808   0.1882   0.1882   0.1901   0.1901   0.2140   0.2140
     0.2207   0.2207   0.2264   0.2264   0.2317   0.2317   0.2385   0.2385
     0.3146   0.3146   0.3585   0.3585   0.7873   1.2078   1.2139   1.2139
     1.3037   1.3037   1.5401   1.5401   1.6760   1.6760   1.8565   1.8565
     1.8947   1.8947   2.1331   2.4256   2.4256   2.5744   2.5744   2.6013
     3.0049   3.0049   3.0983   3.0983   3.2830   3.2830   3.4066   3.4066
     3.5490   3.5817   3.5817   3.6003   3.6003   3.7517   3.7523   3.8099
     3.8104   3.8459   3.8459   3.8662   3.8662   3.8743   3.8743   3.9590
     3.9590   4.0053   4.0059   4.0387   4.1178   4.1183   4.3059   4.3065
     4.3601   4.3607

     occupation numbers 
     1.0000   1.0000   1.0000   1.0000   1.0000   1.0000   1.0000   1.0000
     1.0000   1.0000   1.0000   1.0000   1.0000   1.0000   1.0000   1.0000
     1.0000   1.0000   1.0000   1.0000   1.0000   1.0000   1.0000   1.0000
     1.0000   1.0000   1.0000   1.0000   1.0000   1.0000   1.0000   1.0000
     1.0000   1.0000   1.0000   1.0000   1.0000   1.0000   1.0000   1.0000
     1.0000   1.0000   1.0000   1.0000   1.0000   1.0000   1.0000   1.0000
     1.0000   1.0000   1.0000   1.0000   1.0000   1.0000   1.0000   1.0000
     1.0000   1.0000   1.0000   1.0000   1.0000   1.0000   1.0000   1.0000
     1.0000   1.0000   1.0000   1.0000   1.0000   1.0000   1.0000   1.0000
     1.0000   1.0000   1.0000   1.0000   1.0000   1.0000   1.0000   1.0000
     1.0000   1.0000   1.0000   1.0000   1.0000   1.0000   1.0000   1.0000
     1.0000   1.0000   1.0000   1.0000   1.0000   1.0000   1.0000   1.0000
     1.0000   1.0000   1.0000   1.0000   1.0000   1.0000   1.0000   1.0000
     1.0000   1.0000   1.0000   1.0000   1.0000   1.0000   1.0000   1.0000
     1.0000   1.0000   1.0000   1.0000   1.0000   1.0000   1.0000   1.0000
     1.0000   1.0000   1.0000   1.0000   1.0000   1.0000   1.0000   1.0000
     1.0000   1.0000   1.0000   1.0000   1.0000   1.0000   1.0000   1.0000
     1.0000   1.0000   1.0000   1.0000   1.0000   1.0000   1.0000   1.0000
     1.0000   1.0000   1.0000   1.0000   1.0000   1.0000   1.0000   1.0000
     1.0000   1.0000   1.0000   1.0000   1.0000   1.0000   1.0000   1.0000
     1.0000   1.0000

          k = 0.0000 0.0000-0.3226 ( 21478 PWs)   bands (ev):

   -12.1904 -12.1904 -11.9834 -11.9834 -11.9190 -11.9190 -11.9190 -11.9190
   -11.7968 -11.7967 -11.7967 -11.7967 -11.7714 -11.7713 -11.6796 -11.6796
   -11.6795 -11.6795  -0.6382  -0.6382  -0.6382  -0.6382  -0.6185  -0.6185
    -0.6185  -0.6185  -0.5853  -0.5853  -0.5557  -0.5557  -0.5301  -0.5301
    -0.5298  -0.5298  -0.4852  -0.4852  -0.4850  -0.4850  -0.4362  -0.4362
    -0.4362  -0.4362  -0.4077  -0.4077  -0.4076  -0.4076  -0.3971  -0.3971
    -0.3971  -0.3971  -0.2881  -0.2881  -0.2881  -0.2881  -0.2780  -0.2780
    -0.2780  -0.2780  -0.2460  -0.2460  -0.2460  -0.2460  -0.1661  -0.1661
    -0.1540  -0.1540  -0.1540  -0.1540  -0.1070  -0.1070  -0.1070  -0.1070
     0.0932   0.0932   0.0933   0.0933   0.0937   0.0937   0.0937   0.0937
     0.1358   0.1358   0.1358   0.1358   0.1687   0.1687   0.1687   0.1687
     0.1805   0.1805   0.1805   0.1805   0.2102   0.2102   0.2102   0.2102
     0.2180   0.2180   0.2181   0.2181   0.2333   0.2333   0.2333   0.2333
     0.3364   0.3364   0.3364   0.3364   0.9901   0.9901   1.2554   1.2554
     1.2554   1.2554   1.6073   1.6073   1.6073   1.6073   1.8921   1.8921
     1.8921   1.8921   2.3673   2.3673   2.4721   2.4721   2.4721   2.4722
     3.0447   3.0447   3.0447   3.0447   3.4535   3.4535   3.4535   3.4536
     3.4946   3.4946   3.4946   3.4946   3.7765   3.7765   3.7770   3.7770
     3.7933   3.7933   3.8619   3.8619   3.8619   3.8619   3.9231   3.9231
     3.9231   3.9231   4.0617   4.0618   4.0623   4.0623   4.3372   4.3372
     4.3378   4.3378

     occupation numbers 
     1.0000   1.0000   1.0000   1.0000   1.0000   1.0000   1.0000   1.0000
     1.0000   1.0000   1.0000   1.0000   1.0000   1.0000   1.0000   1.0000
     1.0000   1.0000   1.0000   1.0000   1.0000   1.0000   1.0000   1.0000
     1.0000   1.0000   1.0000   1.0000   1.0000   1.0000   1.0000   1.0000
     1.0000   1.0000   1.0000   1.0000   1.0000   1.0000   1.0000   1.0000
     1.0000   1.0000   1.0000   1.0000   1.0000   1.0000   1.0000   1.0000
     1.0000   1.0000   1.0000   1.0000   1.0000   1.0000   1.0000   1.0000
     1.0000   1.0000   1.0000   1.0000   1.0000   1.0000   1.0000   1.0000
     1.0000   1.0000   1.0000   1.0000   1.0000   1.0000   1.0000   1.0000
     1.0000   1.0000   1.0000   1.0000   1.0000   1.0000   1.0000   1.0000
     1.0000   1.0000   1.0000   1.0000   1.0000   1.0000   1.0000   1.0000
     1.0000   1.0000   1.0000   1.0000   1.0000   1.0000   1.0000   1.0000
     1.0000   1.0000   1.0000   1.0000   1.0000   1.0000   1.0000   1.0000
     1.0000   1.0000   1.0000   1.0000   1.0000   1.0000   1.0000   1.0000
     1.0000   1.0000   1.0000   1.0000   1.0000   1.0000   1.0000   1.0000
     1.0000   1.0000   1.0000   1.0000   1.0000   1.0000   1.0000   1.0000
     1.0000   1.0000   1.0000   1.0000   1.0000   1.0000   1.0000   1.0000
     1.0000   1.0000   1.0000   1.0000   1.0000   1.0000   1.0000   1.0000
     1.0000   1.0000   1.0000   1.0000   1.0000   1.0000   1.0000   1.0000
     1.0000   1.0000   1.0000   1.0000   1.0000   1.0000   1.0000   1.0000
     1.0000   1.0000

          k = 0.0000 0.5774 0.0000 ( 21448 PWs)   bands (ev):

   -12.1344 -12.0286 -12.0286 -11.9917 -11.9097 -11.9097 -11.8173 -11.8150
   -11.8150 -11.7740 -11.7740 -11.7486 -11.7486 -11.7076 -11.6955 -11.6955
   -11.6700 -11.6605  -0.6311  -0.6311  -0.6147  -0.6147  -0.5832  -0.5683
    -0.5683  -0.5481  -0.5327  -0.5272  -0.5272  -0.5210  -0.5210  -0.4853
    -0.4831  -0.4759  -0.4759  -0.4751  -0.4573  -0.4573  -0.4449  -0.4449
    -0.4023  -0.4023  -0.4018  -0.3969  -0.3727  -0.3727  -0.3717  -0.3599
    -0.3599  -0.3515  -0.3515  -0.3389  -0.3389  -0.3138  -0.3109  -0.2854
    -0.2854  -0.2443  -0.2443  -0.2288  -0.2027  -0.2027  -0.1744  -0.1683
    -0.1429  -0.1429  -0.1316  -0.1316  -0.0314   0.0027   0.0261   0.0442
     0.0500   0.0575   0.0808   0.1025   0.1033   0.1211   0.1211   0.1226
     0.1226   0.1268   0.1269   0.1348   0.1451   0.1451   0.1482   0.1482
     0.1775   0.1775   0.2022   0.2022   0.2099   0.2099   0.2232   0.2232
     0.2309   0.2397   0.2580   0.2650   0.2650   0.2688   0.2688   0.3406
     0.3406   0.3638   0.3802   0.3868   0.7191   1.0809   1.1638   1.1752
     1.1752   1.4433   1.4433   1.5996   1.5996   1.6251   1.7024   1.7024
     2.0897   2.0897   2.1923   2.3151   2.3999   2.4654   2.5515   2.5515
     2.6815   2.6815   2.9666   3.0051   3.0051   3.0399   3.1188   3.1188
     3.1839   3.1839   3.2595   3.2595   3.3139   3.3641   3.3641   3.4621
     3.4764   3.5938   3.6772   3.6772   3.6818   3.6818   3.7079   3.7079
     3.8907   3.8907   3.9358   3.9718   4.0010   4.0010   4.0664   4.0664
     4.2536   4.2557

     occupation numbers 
     1.0000   1.0000   1.0000   1.0000   1.0000   1.0000   1.0000   1.0000
     1.0000   1.0000   1.0000   1.0000   1.0000   1.0000   1.0000   1.0000
     1.0000   1.0000   1.0000   1.0000   1.0000   1.0000   1.0000   1.0000
     1.0000   1.0000   1.0000   1.0000   1.0000   1.0000   1.0000   1.0000
     1.0000   1.0000   1.0000   1.0000   1.0000   1.0000   1.0000   1.0000
     1.0000   1.0000   1.0000   1.0000   1.0000   1.0000   1.0000   1.0000
     1.0000   1.0000   1.0000   1.0000   1.0000   1.0000   1.0000   1.0000
     1.0000   1.0000   1.0000   1.0000   1.0000   1.0000   1.0000   1.0000
     1.0000   1.0000   1.0000   1.0000   1.0000   1.0000   1.0000   1.0000
     1.0000   1.0000   1.0000   1.0000   1.0000   1.0000   1.0000   1.0000
     1.0000   1.0000   1.0000   1.0000   1.0000   1.0000   1.0000   1.0000
     1.0000   1.0000   1.0000   1.0000   1.0000   1.0000   1.0000   1.0000
     1.0000   1.0000   1.0000   1.0000   1.0000   1.0000   1.0000   1.0000
     1.0000   1.0000   1.0000   1.0000   1.0000   1.0000   1.0000   1.0000
     1.0000   1.0000   1.0000   1.0000   1.0000   1.0000   1.0000   1.0000
     1.0000   1.0000   1.0000   1.0000   1.0000   1.0000   1.0000   1.0000
     1.0000   1.0000   1.0000   1.0000   1.0000   1.0000   1.0000   1.0000
     1.0000   1.0000   1.0000   1.0000   1.0000   1.0000   1.0000   1.0000
     1.0000   1.0000   1.0000   1.0000   1.0000   1.0000   1.0000   1.0000
     1.0000   1.0000   1.0000   1.0000   1.0000   1.0000   1.0000   1.0000
     1.0000   1.0000

          k = 0.0000 0.5774 0.1075 ( 21477 PWs)   bands (ev):

   -12.1312 -12.0589 -11.9950 -11.9892 -11.9331 -11.8840 -11.8489 -11.8159
   -11.7861 -11.7844 -11.7738 -11.7609 -11.7260 -11.7109 -11.7072 -11.6852
   -11.6724 -11.6615  -0.6351  -0.6220  -0.6216  -0.6020  -0.5851  -0.5750
    -0.5579  -0.5577  -0.5576  -0.5509  -0.5331  -0.5129  -0.5030  -0.4969
    -0.4846  -0.4831  -0.4760  -0.4662  -0.4468  -0.4465  -0.4407  -0.4304
    -0.4057  -0.4031  -0.3982  -0.3962  -0.3915  -0.3888  -0.3740  -0.3572
    -0.3555  -0.3456  -0.3432  -0.3208  -0.3158  -0.3128  -0.3096  -0.3094
    -0.2650  -0.2413  -0.2373  -0.2242  -0.2127  -0.1965  -0.1754  -0.1710
    -0.1628  -0.1556  -0.1239  -0.0974  -0.0371  -0.0008   0.0219   0.0269
     0.0297   0.0560   0.0823   0.0985   0.0988   0.1034   0.1086   0.1143
     0.1320   0.1395   0.1397   0.1402   0.1417   0.1460   0.1562   0.1571
     0.1755   0.1773   0.1918   0.2019   0.2087   0.2111   0.2178   0.2301
     0.2370   0.2386   0.2446   0.2576   0.2622   0.2780   0.2848   0.3280
     0.3353   0.3522   0.3759   0.3791   0.7867   1.1112   1.1532   1.1588
     1.2060   1.3892   1.4968   1.5020   1.5087   1.6226   1.6910   1.8895
     2.0170   2.1562   2.2037   2.3092   2.4183   2.4515   2.4886   2.5437
     2.6605   2.8050   2.8377   2.9698   2.9702   3.0401   3.1107   3.1258
     3.1791   3.2536   3.2863   3.2988   3.3217   3.3361   3.4597   3.4730
     3.4825   3.5869   3.6046   3.6203   3.6885   3.6967   3.7398   3.7535
     3.8006   3.9019   3.9280   3.9508   3.9761   4.0059   4.0861   4.1208
     4.2491   4.2500

     occupation numbers 
     1.0000   1.0000   1.0000   1.0000   1.0000   1.0000   1.0000   1.0000
     1.0000   1.0000   1.0000   1.0000   1.0000   1.0000   1.0000   1.0000
     1.0000   1.0000   1.0000   1.0000   1.0000   1.0000   1.0000   1.0000
     1.0000   1.0000   1.0000   1.0000   1.0000   1.0000   1.0000   1.0000
     1.0000   1.0000   1.0000   1.0000   1.0000   1.0000   1.0000   1.0000
     1.0000   1.0000   1.0000   1.0000   1.0000   1.0000   1.0000   1.0000
     1.0000   1.0000   1.0000   1.0000   1.0000   1.0000   1.0000   1.0000
     1.0000   1.0000   1.0000   1.0000   1.0000   1.0000   1.0000   1.0000
     1.0000   1.0000   1.0000   1.0000   1.0000   1.0000   1.0000   1.0000
     1.0000   1.0000   1.0000   1.0000   1.0000   1.0000   1.0000   1.0000
     1.0000   1.0000   1.0000   1.0000   1.0000   1.0000   1.0000   1.0000
     1.0000   1.0000   1.0000   1.0000   1.0000   1.0000   1.0000   1.0000
     1.0000   1.0000   1.0000   1.0000   1.0000   1.0000   1.0000   1.0000
     1.0000   1.0000   1.0000   1.0000   1.0000   1.0000   1.0000   1.0000
     1.0000   1.0000   1.0000   1.0000   1.0000   1.0000   1.0000   1.0000
     1.0000   1.0000   1.0000   1.0000   1.0000   1.0000   1.0000   1.0000
     1.0000   1.0000   1.0000   1.0000   1.0000   1.0000   1.0000   1.0000
     1.0000   1.0000   1.0000   1.0000   1.0000   1.0000   1.0000   1.0000
     1.0000   1.0000   1.0000   1.0000   1.0000   1.0000   1.0000   1.0000
     1.0000   1.0000   1.0000   1.0000   1.0000   1.0000   1.0000   1.0000
     1.0000   1.0000

          k = 0.0000 0.5774 0.2151 ( 21453 PWs)   bands (ev):

   -12.1217 -12.0850 -11.9818 -11.9591 -11.9532 -11.8849 -11.8567 -11.8119
   -11.8007 -11.7967 -11.7579 -11.7472 -11.7206 -11.7199 -11.7066 -11.6794
   -11.6765 -11.6646  -0.6311  -0.6200  -0.6105  -0.5921  -0.5906  -0.5869
    -0.5865  -0.5744  -0.5588  -0.5471  -0.5435  -0.5349  -0.4895  -0.4871
    -0.4830  -0.4823  -0.4787  -0.4733  -0.4404  -0.4340  -0.4196  -0.4130
    -0.4099  -0.4065  -0.4062  -0.4047  -0.4012  -0.3872  -0.3810  -0.3641
    -0.3429  -0.3363  -0.3256  -0.3215  -0.3181  -0.3125  -0.2950  -0.2847
    -0.2604  -0.2349  -0.2345  -0.2057  -0.1902  -0.1786  -0.1785  -0.1783
    -0.1752  -0.1675  -0.1016  -0.0638  -0.0535  -0.0460  -0.0329  -0.0129
     0.0402   0.0626   0.0763   0.0868   0.0872   0.0972   0.1031   0.1167
     0.1177   0.1318   0.1536   0.1538   0.1580   0.1648   0.1658   0.1663
     0.1710   0.1752   0.1801   0.1930   0.1966   0.2184   0.2240   0.2250
     0.2278   0.2357   0.2513   0.2568   0.2582   0.2892   0.2948   0.3052
     0.3148   0.3521   0.3622   0.3758   0.9368   1.1415   1.1483   1.1891
     1.2442   1.3122   1.3370   1.3980   1.5459   1.6113   1.7775   1.9402
     2.0678   2.2136   2.2373   2.2910   2.3638   2.3950   2.4735   2.5579
     2.6878   2.7751   2.8115   2.9043   2.9745   3.0064   3.0433   3.0826
     3.2363   3.2617   3.3299   3.3426   3.4134   3.4549   3.4917   3.5009
     3.5316   3.5667   3.5710   3.5767   3.6477   3.6502   3.6833   3.7931
     3.8060   3.8160   3.9048   3.9411   3.9823   3.9853   4.1539   4.1675
     4.2330   4.2335

     occupation numbers 
     1.0000   1.0000   1.0000   1.0000   1.0000   1.0000   1.0000   1.0000
     1.0000   1.0000   1.0000   1.0000   1.0000   1.0000   1.0000   1.0000
     1.0000   1.0000   1.0000   1.0000   1.0000   1.0000   1.0000   1.0000
     1.0000   1.0000   1.0000   1.0000   1.0000   1.0000   1.0000   1.0000
     1.0000   1.0000   1.0000   1.0000   1.0000   1.0000   1.0000   1.0000
     1.0000   1.0000   1.0000   1.0000   1.0000   1.0000   1.0000   1.0000
     1.0000   1.0000   1.0000   1.0000   1.0000   1.0000   1.0000   1.0000
     1.0000   1.0000   1.0000   1.0000   1.0000   1.0000   1.0000   1.0000
     1.0000   1.0000   1.0000   1.0000   1.0000   1.0000   1.0000   1.0000
     1.0000   1.0000   1.0000   1.0000   1.0000   1.0000   1.0000   1.0000
     1.0000   1.0000   1.0000   1.0000   1.0000   1.0000   1.0000   1.0000
     1.0000   1.0000   1.0000   1.0000   1.0000   1.0000   1.0000   1.0000
     1.0000   1.0000   1.0000   1.0000   1.0000   1.0000   1.0000   1.0000
     1.0000   1.0000   1.0000   1.0000   1.0000   1.0000   1.0000   1.0000
     1.0000   1.0000   1.0000   1.0000   1.0000   1.0000   1.0000   1.0000
     1.0000   1.0000   1.0000   1.0000   1.0000   1.0000   1.0000   1.0000
     1.0000   1.0000   1.0000   1.0000   1.0000   1.0000   1.0000   1.0000
     1.0000   1.0000   1.0000   1.0000   1.0000   1.0000   1.0000   1.0000
     1.0000   1.0000   1.0000   1.0000   1.0000   1.0000   1.0000   1.0000
     1.0000   1.0000   1.0000   1.0000   1.0000   1.0000   1.0000   1.0000
     1.0000   1.0000

          k = 0.0000 0.5774-0.3226 ( 21448 PWs)   bands (ev):

   -12.1061 -12.1061 -11.9697 -11.9697 -11.9221 -11.9221 -11.8286 -11.8286
   -11.8055 -11.8055 -11.7364 -11.7364 -11.7334 -11.7334 -11.6910 -11.6909
   -11.6696 -11.6696  -0.6171  -0.6171  -0.6085  -0.6085  -0.5995  -0.5995
    -0.5712  -0.5712  -0.5643  -0.5643  -0.5392  -0.5392  -0.4842  -0.4842
    -0.4823  -0.4823  -0.4787  -0.4786  -0.4289  -0.4289  -0.4199  -0.4199
    -0.4113  -0.4113  -0.4045  -0.4045  -0.3929  -0.3929  -0.3761  -0.3761
    -0.3308  -0.3308  -0.3263  -0.3263  -0.3018  -0.3018  -0.2927  -0.2927
    -0.2651  -0.2651  -0.1901  -0.1901  -0.1838  -0.1838  -0.1746  -0.1746
    -0.1414  -0.1414  -0.1047  -0.1047  -0.0769  -0.0769  -0.0346  -0.0346
     0.0562   0.0562   0.0733   0.0733   0.0938   0.0938   0.1048   0.1048
     0.1243   0.1243   0.1637   0.1637   0.1673   0.1673   0.1711   0.1711
     0.1721   0.1721   0.1760   0.1760   0.2047   0.2047   0.2239   0.2239
     0.2311   0.2311   0.2567   0.2567   0.2687   0.2687   0.3017   0.3017
     0.3274   0.3274   0.3702   0.3702   1.1185   1.1185   1.1405   1.1405
     1.2882   1.2882   1.2906   1.2906   1.5856   1.5856   1.8603   1.8603
     2.2363   2.2363   2.2591   2.2591   2.2915   2.2915   2.5644   2.5644
     2.6691   2.6691   2.8918   2.8918   2.9616   2.9616   3.0558   3.0558
     3.2292   3.2292   3.3984   3.3984   3.4719   3.4719   3.5307   3.5307
     3.5539   3.5539   3.5683   3.5683   3.6005   3.6005   3.6796   3.6796
     3.8671   3.8671   3.8737   3.8737   3.9909   3.9909   4.2029   4.2029
     4.2053   4.2053

     occupation numbers 
     1.0000   1.0000   1.0000   1.0000   1.0000   1.0000   1.0000   1.0000
     1.0000   1.0000   1.0000   1.0000   1.0000   1.0000   1.0000   1.0000
     1.0000   1.0000   1.0000   1.0000   1.0000   1.0000   1.0000   1.0000
     1.0000   1.0000   1.0000   1.0000   1.0000   1.0000   1.0000   1.0000
     1.0000   1.0000   1.0000   1.0000   1.0000   1.0000   1.0000   1.0000
     1.0000   1.0000   1.0000   1.0000   1.0000   1.0000   1.0000   1.0000
     1.0000   1.0000   1.0000   1.0000   1.0000   1.0000   1.0000   1.0000
     1.0000   1.0000   1.0000   1.0000   1.0000   1.0000   1.0000   1.0000
     1.0000   1.0000   1.0000   1.0000   1.0000   1.0000   1.0000   1.0000
     1.0000   1.0000   1.0000   1.0000   1.0000   1.0000   1.0000   1.0000
     1.0000   1.0000   1.0000   1.0000   1.0000   1.0000   1.0000   1.0000
     1.0000   1.0000   1.0000   1.0000   1.0000   1.0000   1.0000   1.0000
     1.0000   1.0000   1.0000   1.0000   1.0000   1.0000   1.0000   1.0000
     1.0000   1.0000   1.0000   1.0000   1.0000   1.0000   1.0000   1.0000
     1.0000   1.0000   1.0000   1.0000   1.0000   1.0000   1.0000   1.0000
     1.0000   1.0000   1.0000   1.0000   1.0000   1.0000   1.0000   1.0000
     1.0000   1.0000   1.0000   1.0000   1.0000   1.0000   1.0000   1.0000
     1.0000   1.0000   1.0000   1.0000   1.0000   1.0000   1.0000   1.0000
     1.0000   1.0000   1.0000   1.0000   1.0000   1.0000   1.0000   1.0000
     1.0000   1.0000   1.0000   1.0000   1.0000   1.0000   1.0000   1.0000
     1.0000   1.0000

          k = 0.0000 1.1547 0.0000 ( 21398 PWs)   bands (ev):

   -11.9383 -11.9383 -11.8668 -11.8668 -11.8668 -11.8668 -11.7284 -11.7284
   -11.7284 -11.7284 -11.7084 -11.7084 -11.7036 -11.7036 -11.7036 -11.7035
   -11.6620 -11.6620  -0.6523  -0.6523  -0.6523  -0.6523  -0.5992  -0.5992
    -0.5410  -0.5410  -0.5410  -0.5410  -0.5295  -0.4295  -0.4295  -0.4221
    -0.4221  -0.4221  -0.4221  -0.4123  -0.4123  -0.3997  -0.3997  -0.3541
    -0.3541  -0.3541  -0.3541  -0.2799  -0.2798  -0.2788  -0.2788  -0.2788
    -0.2788  -0.2283  -0.2283  -0.2276  -0.2276  -0.2276  -0.2276  -0.2139
    -0.2139  -0.2139  -0.2139  -0.1494  -0.1494  -0.1311  -0.1311  -0.0360
    -0.0360  -0.0333  -0.0333  -0.0333  -0.0333   0.0324   0.0432   0.0432
     0.0936   0.0936   0.0953   0.0953   0.1210   0.1210   0.1292   0.1292
     0.1363   0.1395   0.1444   0.1444   0.1444   0.1444   0.1542   0.1542
     0.1542   0.1542   0.2095   0.2095   0.2095   0.2095   0.2431   0.2431
     0.2734   0.2734   0.2734   0.2734   0.2995   0.2995   0.3790   0.3790
     0.3790   0.3790   0.3846   0.3846   1.1728   1.1728   1.2558   1.2558
     1.2558   1.2558   1.4144   1.4144   1.4144   1.4144   1.4240   1.4240
     1.4638   1.7990   1.7990   1.8087   1.8087   1.8087   1.8087   1.9578
     1.9578   2.4133   2.4133   2.8025   2.8025   2.9072   2.9072   2.9072
     2.9072   2.9466   2.9466   2.9716   2.9716   3.2215   3.2382   3.2382
     3.2382   3.2382   3.4623   3.4623   3.4624   3.4624   3.7433   3.7433
     3.7433   3.7433   3.7997   3.7997   3.7997   3.7997   3.8236   3.8236
     3.9879   3.9879

     occupation numbers 
     1.0000   1.0000   1.0000   1.0000   1.0000   1.0000   1.0000   1.0000
     1.0000   1.0000   1.0000   1.0000   1.0000   1.0000   1.0000   1.0000
     1.0000   1.0000   1.0000   1.0000   1.0000   1.0000   1.0000   1.0000
     1.0000   1.0000   1.0000   1.0000   1.0000   1.0000   1.0000   1.0000
     1.0000   1.0000   1.0000   1.0000   1.0000   1.0000   1.0000   1.0000
     1.0000   1.0000   1.0000   1.0000   1.0000   1.0000   1.0000   1.0000
     1.0000   1.0000   1.0000   1.0000   1.0000   1.0000   1.0000   1.0000
     1.0000   1.0000   1.0000   1.0000   1.0000   1.0000   1.0000   1.0000
     1.0000   1.0000   1.0000   1.0000   1.0000   1.0000   1.0000   1.0000
     1.0000   1.0000   1.0000   1.0000   1.0000   1.0000   1.0000   1.0000
     1.0000   1.0000   1.0000   1.0000   1.0000   1.0000   1.0000   1.0000
     1.0000   1.0000   1.0000   1.0000   1.0000   1.0000   1.0000   1.0000
     1.0000   1.0000   1.0000   1.0000   1.0000   1.0000   1.0000   1.0000
     1.0000   1.0000   1.0000   1.0000   1.0000   1.0000   1.0000   1.0000
     1.0000   1.0000   1.0000   1.0000   1.0000   1.0000   1.0000   1.0000
     1.0000   1.0000   1.0000   1.0000   1.0000   1.0000   1.0000   1.0000
     1.0000   1.0000   1.0000   1.0000   1.0000   1.0000   1.0000   1.0000
     1.0000   1.0000   1.0000   1.0000   1.0000   1.0000   1.0000   1.0000
     1.0000   1.0000   1.0000   1.0000   1.0000   1.0000   1.0000   1.0000
     1.0000   1.0000   1.0000   1.0000   1.0000   1.0000   1.0000   1.0000
     1.0000   1.0000

          k = 0.0000 1.1547 0.1075 ( 21409 PWs)   bands (ev):

   -11.9361 -11.9361 -11.8871 -11.8871 -11.8445 -11.8445 -11.7498 -11.7498
   -11.7092 -11.7092 -11.7083 -11.7082 -11.7046 -11.7046 -11.7027 -11.7027
   -11.6639 -11.6639  -0.6563  -0.6563  -0.6429  -0.6429  -0.6015  -0.6015
    -0.5806  -0.5806  -0.5268  -0.5006  -0.5006  -0.4598  -0.4479  -0.4479
    -0.4105  -0.4105  -0.4038  -0.4038  -0.3934  -0.3905  -0.3904  -0.3714
    -0.3714  -0.3342  -0.3342  -0.2852  -0.2852  -0.2839  -0.2839  -0.2693
    -0.2693  -0.2507  -0.2507  -0.2383  -0.2383  -0.2304  -0.2304  -0.2042
    -0.1955  -0.1955  -0.1912  -0.1912  -0.1337  -0.1337  -0.0952  -0.0429
    -0.0429  -0.0410  -0.0410  -0.0223  -0.0223   0.0294   0.0381   0.0381
     0.0924   0.0925   0.0925   0.0969   0.1162   0.1238   0.1238   0.1254
     0.1300   0.1300   0.1332   0.1358   0.1469   0.1469   0.1622   0.1622
     0.1660   0.1660   0.1999   0.1999   0.2183   0.2183   0.2419   0.2419
     0.2527   0.2527   0.2939   0.2939   0.3042   0.3042   0.3660   0.3660
     0.3770   0.3770   0.3887   0.3887   1.1841   1.1841   1.2352   1.2353
     1.2838   1.2839   1.3570   1.3570   1.4146   1.4147   1.4756   1.4756
     1.4809   1.7444   1.7444   1.8161   1.8161   1.8270   1.8626   1.8626
     2.0973   2.4142   2.4142   2.6719   2.7266   2.7266   2.9211   2.9698
     2.9698   2.9799   2.9799   3.0974   3.0974   3.1633   3.1633   3.2086
     3.3200   3.3200   3.3577   3.3577   3.5458   3.5458   3.6651   3.6652
     3.7170   3.7170   3.8135   3.8135   3.8300   3.8301   3.8482   3.8482
     3.9805   3.9805

     occupation numbers 
     1.0000   1.0000   1.0000   1.0000   1.0000   1.0000   1.0000   1.0000
     1.0000   1.0000   1.0000   1.0000   1.0000   1.0000   1.0000   1.0000
     1.0000   1.0000   1.0000   1.0000   1.0000   1.0000   1.0000   1.0000
     1.0000   1.0000   1.0000   1.0000   1.0000   1.0000   1.0000   1.0000
     1.0000   1.0000   1.0000   1.0000   1.0000   1.0000   1.0000   1.0000
     1.0000   1.0000   1.0000   1.0000   1.0000   1.0000   1.0000   1.0000
     1.0000   1.0000   1.0000   1.0000   1.0000   1.0000   1.0000   1.0000
     1.0000   1.0000   1.0000   1.0000   1.0000   1.0000   1.0000   1.0000
     1.0000   1.0000   1.0000   1.0000   1.0000   1.0000   1.0000   1.0000
     1.0000   1.0000   1.0000   1.0000   1.0000   1.0000   1.0000   1.0000
     1.0000   1.0000   1.0000   1.0000   1.0000   1.0000   1.0000   1.0000
     1.0000   1.0000   1.0000   1.0000   1.0000   1.0000   1.0000   1.0000
     1.0000   1.0000   1.0000   1.0000   1.0000   1.0000   1.0000   1.0000
     1.0000   1.0000   1.0000   1.0000   1.0000   1.0000   1.0000   1.0000
     1.0000   1.0000   1.0000   1.0000   1.0000   1.0000   1.0000   1.0000
     1.0000   1.0000   1.0000   1.0000   1.0000   1.0000   1.0000   1.0000
     1.0000   1.0000   1.0000   1.0000   1.0000   1.0000   1.0000   1.0000
     1.0000   1.0000   1.0000   1.0000   1.0000   1.0000   1.0000   1.0000
     1.0000   1.0000   1.0000   1.0000   1.0000   1.0000   1.0000   1.0000
     1.0000   1.0000   1.0000   1.0000   1.0000   1.0000   1.0000   1.0000
     1.0000   1.0000

          k = 0.0000 1.1547 0.2151 ( 21427 PWs)   bands (ev):

   -11.9296 -11.9296 -11.9047 -11.9047 -11.8209 -11.8209 -11.7728 -11.7728
   -11.7077 -11.7077 -11.7058 -11.7057 -11.7021 -11.7021 -11.6928 -11.6928
   -11.6699 -11.6699  -0.6520  -0.6520  -0.6308  -0.6308  -0.6139  -0.6139
    -0.6082  -0.6082  -0.5186  -0.4848  -0.4647  -0.4647  -0.4646  -0.4646
    -0.4161  -0.4161  -0.4056  -0.4056  -0.3859  -0.3859  -0.3568  -0.3568
    -0.3526  -0.3120  -0.3120  -0.3010  -0.3010  -0.2836  -0.2836  -0.2671
[...]
     atom   20 type  2   force =     0.00020259    0.00011697   -0.09650233
     atom   21 type  1   force =     0.00001960    0.00001132   -0.11100910
     atom   22 type  1   force =    -0.00001482   -0.00000856   -0.11099916
     atom   23 type  2   force =    -0.00020389   -0.00011772   -0.09650162
     atom   24 type  2   force =     0.00020039    0.00011570   -0.09650127
     atom   25 type  1   force =     0.00001755    0.00001013   -0.11100602
     atom   26 type  1   force =    -0.00001284   -0.00000741   -0.11100440
     atom   27 type  2   force =    -0.00020382   -0.00011767   -0.09650338
     atom   28 type  2   force =     0.00020027    0.00011563   -0.09649863
     atom   29 type  1   force =     0.00001768    0.00001021   -0.11100167
     atom   30 type  1   force =    -0.00001220   -0.00000704   -0.11100677
     atom   31 type  2   force =    -0.00020107   -0.00011609   -0.09650476
     atom   32 type  2   force =     0.00019949    0.00011517   -0.09650180
     atom   33 type  1   force =     0.00001758    0.00001015   -0.11100385
     atom   34 type  1   force =    -0.00001480   -0.00000855   -0.11099630
     atom   35 type  2   force =    -0.00020130   -0.00011622   -0.09649911
     atom   36 type  2   force =     0.00019832    0.00011450   -0.09650568
     The ionic contribution  to forces
     atom    1 type  1   force =     0.00000001    0.00000001   -0.68525368
     atom    2 type  1   force =     0.00000001    0.00000000   -0.68525365
     atom    3 type  2   force =     0.00000000    0.00000000    0.68525367
     atom    4 type  2   force =     0.00000000    0.00000000    0.68525366
     atom    5 type  1   force =     0.00000001    0.00000001   -0.68525365
     atom    6 type  1   force =     0.00000001    0.00000000   -0.68525369
     atom    7 type  2   force =     0.00000000    0.00000000    0.68525366
     atom    8 type  2   force =     0.00000000    0.00000000    0.68525368
     atom    9 type  1   force =     0.00000001    0.00000001   -0.68525368
     atom   10 type  1   force =     0.00000001    0.00000000   -0.68525368
     atom   11 type  2   force =     0.00000000    0.00000000    0.68525368
     atom   12 type  2   force =     0.00000000    0.00000000    0.68525367
     atom   13 type  1   force =    -0.00000001    0.00000000   -0.68525369
     atom   14 type  1   force =     0.00000001   -0.00000000   -0.68525365
     atom   15 type  2   force =    -0.00000001    0.00000000    0.68525368
     atom   16 type  2   force =     0.00000001   -0.00000000    0.68525367
     atom   17 type  1   force =    -0.00000001    0.00000000   -0.68525365
     atom   18 type  1   force =     0.00000001   -0.00000000   -0.68525369
     atom   19 type  2   force =    -0.00000001    0.00000000    0.68525367
     atom   20 type  2   force =     0.00000001   -0.00000000    0.68525369
     atom   21 type  1   force =    -0.00000001    0.00000000   -0.68525369
     atom   22 type  1   force =     0.00000001   -0.00000000   -0.68525369
     atom   23 type  2   force =    -0.00000001    0.00000000    0.68525369
     atom   24 type  2   force =     0.00000001   -0.00000000    0.68525368
     atom   25 type  1   force =    -0.00000001   -0.00000000   -0.68525368
     atom   26 type  1   force =    -0.00000001   -0.00000001   -0.68525365
     atom   27 type  2   force =    -0.00000000   -0.00000000    0.68525367
     atom   28 type  2   force =    -0.00000000   -0.00000000    0.68525366
     atom   29 type  1   force =    -0.00000001   -0.00000000   -0.68525365
     atom   30 type  1   force =    -0.00000001   -0.00000001   -0.68525368
     atom   31 type  2   force =    -0.00000000   -0.00000000    0.68525366
     atom   32 type  2   force =    -0.00000000   -0.00000000    0.68525368
     atom   33 type  1   force =    -0.00000001   -0.00000000   -0.68525369
     atom   34 type  1   force =    -0.00000001   -0.00000001   -0.68525368
     atom   35 type  2   force =    -0.00000000   -0.00000000    0.68525368
     atom   36 type  2   force =    -0.00000000   -0.00000000    0.68525367
     The local contribution  to forces
     atom    1 type  1   force =    -0.00001816   -0.00001048    0.78738334
     atom    2 type  1   force =     0.00002502    0.00001439    0.78738956
     atom    3 type  2   force =     0.00019466    0.00011239   -0.58765022
     atom    4 type  2   force =    -0.00019456   -0.00011234   -0.58765034
     atom    5 type  1   force =    -0.00000774   -0.00000447    0.78738873
     atom    6 type  1   force =     0.00000825    0.00000471    0.78738834
     atom    7 type  2   force =     0.00019494    0.00011255   -0.58765361
     atom    8 type  2   force =    -0.00019420   -0.00011213   -0.58765057
     atom    9 type  1   force =     0.00000385    0.00000223    0.78739393
     atom   10 type  1   force =     0.00001398    0.00000802    0.78737194
     atom   11 type  2   force =     0.00019919    0.00011500   -0.58765051
     atom   12 type  2   force =    -0.00019248   -0.00011114   -0.58765233
     atom   13 type  1   force =     0.00000076    0.00000055    0.78739468
     atom   14 type  1   force =     0.00000786    0.00000443    0.78736830
     atom   15 type  2   force =     0.00019615    0.00011328   -0.58764956
     atom   16 type  2   force =    -0.00019345   -0.00011172   -0.58765149
     atom   17 type  1   force =    -0.00000676   -0.00000379    0.78737808
     atom   18 type  1   force =     0.00002114    0.00001210    0.78739340
     atom   19 type  2   force =     0.00019493    0.00011257   -0.58765513
     atom   20 type  2   force =    -0.00019307   -0.00011150   -0.58765103
     atom   21 type  1   force =    -0.00002136   -0.00001222    0.78739625
     atom   22 type  1   force =     0.00000780    0.00000440    0.78737935
     atom   23 type  2   force =     0.00019224    0.00011102   -0.58764961
     atom   24 type  2   force =    -0.00019611   -0.00011325   -0.58764963
     atom   25 type  1   force =    -0.00001413   -0.00000811    0.78739247
     atom   26 type  1   force =    -0.00000063   -0.00000037    0.78739281
     atom   27 type  2   force =     0.00019321    0.00011157   -0.58765072
     atom   28 type  2   force =    -0.00019574   -0.00011301   -0.58764873
     atom   29 type  1   force =    -0.00001629   -0.00000935    0.78738625
     atom   30 type  1   force =     0.00000197    0.00000114    0.78738811
     atom   31 type  2   force =     0.00019343    0.00011169   -0.58765512
     atom   32 type  2   force =    -0.00019774   -0.00011417   -0.58765095
     atom   33 type  1   force =    -0.00001373   -0.00000787    0.78738091
     atom   34 type  1   force =     0.00000949    0.00000548    0.78736860
     atom   35 type  2   force =     0.00019349    0.00011173   -0.58764808
     atom   36 type  2   force =    -0.00019586   -0.00011308   -0.58765190
     The core correction contribution to forces
     atom    1 type  1   force =    -0.00000532   -0.00000316    0.00695335
     atom    2 type  1   force =     0.00000524    0.00000304    0.00695617
     atom    3 type  2   force =     0.00000224    0.00000129    0.00081828
     atom    4 type  2   force =    -0.00000227   -0.00000130    0.00081958
     atom    5 type  1   force =    -0.00000567   -0.00000337    0.00695607
     atom    6 type  1   force =     0.00000577    0.00000334    0.00695460
     atom    7 type  2   force =     0.00000225    0.00000129    0.00081961
     atom    8 type  2   force =    -0.00000227   -0.00000131    0.00081737
     atom    9 type  1   force =    -0.00000572   -0.00000339    0.00695418
     atom   10 type  1   force =     0.00000561    0.00000324    0.00695362
     atom   11 type  2   force =     0.00000222    0.00000127    0.00081737
     atom   12 type  2   force =    -0.00000231   -0.00000133    0.00081831
     atom   13 type  1   force =    -0.00000560   -0.00000340    0.00695292
     atom   14 type  1   force =     0.00000537    0.00000328    0.00695659
     atom   15 type  2   force =     0.00000225    0.00000130    0.00081825
     atom   16 type  2   force =    -0.00000229   -0.00000132    0.00081960
     atom   17 type  1   force =    -0.00000538   -0.00000328    0.00695622
     atom   18 type  1   force =     0.00000512    0.00000312    0.00695460
     atom   19 type  2   force =     0.00000228    0.00000132    0.00081961
     atom   20 type  2   force =    -0.00000230   -0.00000133    0.00081739
     atom   21 type  1   force =    -0.00000515   -0.00000314    0.00695429
     atom   22 type  1   force =     0.00000545    0.00000331    0.00695326
     atom   23 type  2   force =     0.00000232    0.00000134    0.00081739
     atom   24 type  2   force =    -0.00000227   -0.00000131    0.00081827
     atom   25 type  1   force =    -0.00000563   -0.00000325    0.00695331
     atom   26 type  1   force =     0.00000595    0.00000353    0.00695600
     atom   27 type  2   force =     0.00000231    0.00000133    0.00081830
     atom   28 type  2   force =    -0.00000224   -0.00000129    0.00081955
     atom   29 type  1   force =    -0.00000547   -0.00000317    0.00695616
     atom   30 type  1   force =     0.00000564    0.00000335    0.00695456
     atom   31 type  2   force =     0.00000227    0.00000131    0.00081963
     atom   32 type  2   force =    -0.00000224   -0.00000129    0.00081739
     atom   33 type  1   force =    -0.00000566   -0.00000328    0.00695458
     atom   34 type  1   force =     0.00000549    0.00000326    0.00695360
     atom   35 type  2   force =     0.00000228    0.00000131    0.00081736
     atom   36 type  2   force =    -0.00000222   -0.00000128    0.00081833
     The Hubbard contrib.    to forces
     atom    1 type  1   force =     0.00000000    0.00000000    0.00000000
     atom    2 type  1   force =     0.00000000    0.00000000    0.00000000
     atom    3 type  2   force =     0.00000000    0.00000000    0.00000000
     atom    4 type  2   force =     0.00000000    0.00000000    0.00000000
     atom    5 type  1   force =     0.00000000    0.00000000    0.00000000
     atom    6 type  1   force =     0.00000000    0.00000000    0.00000000
     atom    7 type  2   force =     0.00000000    0.00000000    0.00000000
     atom    8 type  2   force =     0.00000000    0.00000000    0.00000000
     atom    9 type  1   force =     0.00000000    0.00000000    0.00000000
     atom   10 type  1   force =     0.00000000    0.00000000    0.00000000
     atom   11 type  2   force =     0.00000000    0.00000000    0.00000000
     atom   12 type  2   force =     0.00000000    0.00000000    0.00000000
     atom   13 type  1   force =     0.00000000    0.00000000    0.00000000
     atom   14 type  1   force =     0.00000000    0.00000000    0.00000000
     atom   15 type  2   force =     0.00000000    0.00000000    0.00000000
     atom   16 type  2   force =     0.00000000    0.00000000    0.00000000
     atom   17 type  1   force =     0.00000000    0.00000000    0.00000000
     atom   18 type  1   force =     0.00000000    0.00000000    0.00000000
     atom   19 type  2   force =     0.00000000    0.00000000    0.00000000
     atom   20 type  2   force =     0.00000000    0.00000000    0.00000000
     atom   21 type  1   force =     0.00000000    0.00000000    0.00000000
     atom   22 type  1   force =     0.00000000    0.00000000    0.00000000
     atom   23 type  2   force =     0.00000000    0.00000000    0.00000000
     atom   24 type  2   force =     0.00000000    0.00000000    0.00000000
     atom   25 type  1   force =     0.00000000    0.00000000    0.00000000
     atom   26 type  1   force =     0.00000000    0.00000000    0.00000000
     atom   27 type  2   force =     0.00000000    0.00000000    0.00000000
     atom   28 type  2   force =     0.00000000    0.00000000    0.00000000
     atom   29 type  1   force =     0.00000000    0.00000000    0.00000000
     atom   30 type  1   force =     0.00000000    0.00000000    0.00000000
     atom   31 type  2   force =     0.00000000    0.00000000    0.00000000
     atom   32 type  2   force =     0.00000000    0.00000000    0.00000000
     atom   33 type  1   force =     0.00000000    0.00000000    0.00000000
     atom   34 type  1   force =     0.00000000    0.00000000    0.00000000
     atom   35 type  2   force =     0.00000000    0.00000000    0.00000000
     atom   36 type  2   force =     0.00000000    0.00000000    0.00000000
     The SCF correction term to forces
     atom    1 type  1   force =     0.00000828    0.00000478   -0.00000016
     atom    2 type  1   force =    -0.00001490   -0.00000860   -0.00000537
     atom    3 type  2   force =     0.00000006    0.00000003   -0.00000194
     atom    4 type  2   force =     0.00000012    0.00000007   -0.00000139
     atom    5 type  1   force =    -0.00000395   -0.00000228   -0.00000536
     atom    6 type  1   force =     0.00000333    0.00000192   -0.00000246
     atom    7 type  2   force =    -0.00000057   -0.00000033    0.00000197
     atom    8 type  2   force =    -0.00000077   -0.00000045   -0.00000177
     atom    9 type  1   force =    -0.00001716   -0.00000991   -0.00000820
     atom   10 type  1   force =    -0.00000286   -0.00000165    0.00001281
     atom   11 type  2   force =    -0.00000630   -0.00000363   -0.00000047
     atom   12 type  2   force =    -0.00000485   -0.00000280    0.00000191
     atom   13 type  1   force =    -0.00001392   -0.00000804   -0.00001211
     atom   14 type  1   force =     0.00000282    0.00000163    0.00002026
     atom   15 type  2   force =    -0.00000258   -0.00000149   -0.00000472
     atom   16 type  2   force =    -0.00000280   -0.00000162    0.00000072
     atom   17 type  1   force =    -0.00000593   -0.00000342    0.00000598
     atom   18 type  1   force =    -0.00001058   -0.00000611   -0.00000815
     atom   19 type  2   force =     0.00000058    0.00000033    0.00000388
     atom   20 type  2   force =    -0.00000311   -0.00000179    0.00000044
     atom   21 type  1   force =     0.00001108    0.00000640   -0.00001196
     atom   22 type  1   force =     0.00000325    0.00000187    0.00000395
     atom   23 type  2   force =     0.00000549    0.00000317    0.00000037
     atom   24 type  2   force =     0.00000120    0.00000069   -0.00000293
     atom   25 type  1   force =     0.00000342    0.00000197   -0.00000884
     atom   26 type  1   force =     0.00001285    0.00000742   -0.00000877
     atom   27 type  2   force =     0.00000389    0.00000225   -0.00000155
     atom   28 type  2   force =     0.00000111    0.00000064   -0.00000507
     atom   29 type  1   force =     0.00000562    0.00000324   -0.00000327
     atom   30 type  1   force =     0.00001014    0.00000585   -0.00000380
     atom   31 type  2   force =     0.00000227    0.00000131    0.00000482
     atom   32 type  2   force =     0.00000394    0.00000228    0.00000048
     atom   33 type  1   force =     0.00000287    0.00000165    0.00000626
     atom   34 type  1   force =     0.00000203    0.00000117    0.00001697
     atom   35 type  2   force =     0.00000174    0.00000100   -0.00000434
     atom   36 type  2   force =     0.00000279    0.00000161    0.00000200

     Total force =     0.011508     Total SCF correction =     0.000062

     init_run     :     57.84s CPU     46.65s WALL (       1 calls)
     electrons    :   6653.60s CPU   4830.84s WALL (       1 calls)
     forces       :     26.03s CPU     18.08s WALL (       1 calls)

     Called by init_run:
     wfcinit      :     48.02s CPU     36.59s WALL (       1 calls)
     wfcinit:atom :      0.27s CPU      0.46s WALL (       5 calls)
     wfcinit:wfcr :     46.03s CPU     34.25s WALL (       5 calls)
     potinit      :      5.08s CPU      5.23s WALL (       1 calls)
     hinit0       :      4.01s CPU      4.06s WALL (       1 calls)

     Called by electrons:
     c_bands      :   6039.17s CPU   4288.81s WALL (      40 calls)
     sum_band     :    560.55s CPU    484.26s WALL (      40 calls)
     v_of_rho     :     33.74s CPU     37.49s WALL (      41 calls)
     v_h          :      2.32s CPU      2.98s WALL (      41 calls)
     v_xc         :     32.21s CPU     35.39s WALL (      42 calls)
     newd         :     12.30s CPU     12.18s WALL (      41 calls)
     mix_rho      :      4.78s CPU      4.97s WALL (      40 calls)

     Called by c_bands:
     init_us_2    :     21.48s CPU     19.92s WALL (     410 calls)
     init_us_2:cp :     21.47s CPU     19.91s WALL (     410 calls)
     cegterg      :   5702.96s CPU   3955.17s WALL (     200 calls)

     Called by sum_band:
     sum_band:wei :      0.09s CPU      0.10s WALL (      40 calls)
     sum_band:loo :    542.94s CPU    467.11s WALL (      40 calls)
     sum_band:buf :      3.72s CPU      3.33s WALL (     200 calls)
     sum_band:ini :     11.07s CPU      9.73s WALL (     200 calls)
     sum_band:cal :    164.55s CPU     84.52s WALL (     200 calls)
     sum_band:bec :      0.34s CPU      0.31s WALL (     200 calls)
     addusdens    :      9.62s CPU      9.10s WALL (      40 calls)
                                        0.00s GPU  (      40 calls)
     addusd:skk   :      0.30s CPU      0.28s WALL (      80 calls)
                                        0.00s GPU  (      80 calls)

     Called by *egterg:
     cdiaghg      :    255.14s CPU    183.87s WALL (    1745 calls)
     cegterg:over :    557.00s CPU    289.26s WALL (    1545 calls)
     cegterg:upda :    347.95s CPU    183.13s WALL (    1545 calls)
     cegterg:last :    789.99s CPU    410.23s WALL (     621 calls)
     h_psi        :   3035.56s CPU   2498.84s WALL (    1750 calls)
     s_psi        :    596.74s CPU    305.84s WALL (    1750 calls)
     g_psi        :     10.95s CPU      9.22s WALL (    1545 calls)

     Called by h_psi:
     h_psi:calbec :    588.71s CPU    307.74s WALL (    1750 calls)
     vloc_psi     :   1830.66s CPU   1861.21s WALL (    1750 calls)
     add_vuspsi   :    605.18s CPU    310.70s WALL (    1750 calls)

     General routines
     calbec       :    769.55s CPU    400.74s WALL (    1970 calls)
     fft          :     20.21s CPU     22.17s WALL (     542 calls)
     ffts         :      1.31s CPU      1.29s WALL (      81 calls)
     fftw         :   1562.85s CPU   1600.02s WALL (  253154 calls)
     interpolate  :      2.66s CPU      2.77s WALL (      41 calls)

     Parallel routines

     PWSCF        :      1h52m CPU      1h21m WALL


   This run was terminated on:  10:46: 0   3Sep2025            

=------------------------------------------------------------------------------=
   JOB DONE.
=------------------------------------------------------------------------------=
Note: The following floating-point exceptions are signalling: IEEE_INVALID_FLAG
Note: The following floating-point exceptions are signalling: IEEE_INVALID_FLAG
Note: The following floating-point exceptions are signalling: IEEE_INVALID_FLAG
Note: The following floating-point exceptions are signalling: IEEE_INVALID_FLAG
Note: The following floating-point exceptions are signalling: IEEE_INVALID_FLAG
Note: The following floating-point exceptions are signalling: IEEE_INVALID_FLAG
Note: The following floating-point exceptions are signalling: IEEE_INVALID_FLAG
Note: The following floating-point exceptions are signalling: IEEE_INVALID_FLAG
Note: The following floating-point exceptions are signalling: IEEE_INVALID_FLAG
Note: The following floating-point exceptions are signalling: IEEE_INVALID_FLAG
Note: The following floating-point exceptions are signalling: IEEE_INVALID_FLAG
Note: The following floating-point exceptions are signalling: IEEE_INVALID_FLAG
Note: The following floating-point exceptions are signalling: IEEE_INVALID_FLAG
Note: The following floating-point exceptions are signalling: IEEE_INVALID_FLAG
Note: The following floating-point exceptions are signalling: IEEE_INVALID_FLAG
Note: The following floating-point exceptions are signalling: IEEE_INVALID_FLAG
