
     Program PWSCF v.7.0 starts on 26Aug2025 at 10:45:15 

     This program is part of the open-source Quantum ESPRESSO suite
     for quantum simulation of materials; please cite
         "P. Giannozzi et al., J. Phys.:Condens. Matter 21 395502 (2009);
         "P. Giannozzi et al., J. Phys.:Condens. Matter 29 465901 (2017);
         "P. Giannozzi et al., J. Chem. Phys. 152 154105 (2020);
          URL http://www.quantum-espresso.org", 
     in publications or presentations arising from this work. More details at
     http://www.quantum-espresso.org/quote

     Parallel version (MPI & OpenMP), running on       8 processor cores
     Number of MPI processes:                 8
     Threads/MPI process:                     1

     MPI processes distributed on     1 nodes
     K-points division:     npool     =       4
     R & G space division:  proc/nbgrp/npool/nimage =       2
     111635 MiB available memory on the printing compute node when the environment starts

     Reading input from /home/jvc/QEspresso7.2/ZnO_database/scripts/cell111.in/ZnO-3.47-1.65-111.in
Warning: card &CELL ignored
Warning: card / ignored
Warning: card &FCP ignored
Warning: card / ignored
Warning: card &RISM ignored
Warning: card / ignored

     Current dimensions of program PWSCF are:
     Max number of different atomic species (ntypx) = 10
     Max number of k-points (npk) =  40000
     Max angular momentum in pseudopotentials (lmaxx) =  4
     file Zn.upf: wavefunction(s)  3D renormalized
     Message from routine setup:
     using ibrav=0 with symmetry is DISCOURAGED, use correct ibrav instead

     Subspace diagonalization in iterative solution of the eigenvalue problem:
     a serial algorithm will be used


     Parallelization info
     --------------------
     sticks:   dense  smooth     PW     G-vecs:    dense   smooth      PW
     Min         588     291     93                26997     9581    1576
     Max         589     292     94                27000     9590    1577
     Sum        1177     583    187                53997    19171    3153

     Using Slab Decomposition



     bravais-lattice index     =            0
     lattice parameter (alat)  =       6.5496  a.u.
     unit-cell volume          =     400.6565 (a.u.)^3
     number of atoms/cell      =            4
     number of atomic types    =            2
     number of electrons       =        36.00
     number of Kohn-Sham states=           18
     kinetic-energy cutoff     =      50.0000  Ry
     charge density cutoff     =     400.0000  Ry
     scf convergence threshold =      1.0E-08
     mixing beta               =       0.3000
     number of iterations used =            8  plain     mixing
     Exchange-correlation= PBE
                           (   1   4   3   4   0   0   0)

     celldm(1)=   6.549585  celldm(2)=   0.000000  celldm(3)=   0.000000
     celldm(4)=   0.000000  celldm(5)=   0.000000  celldm(6)=   0.000000

     crystal axes: (cart. coord. in units of alat)
               a(1) = (   1.000000   0.000000   0.000000 )  
               a(2) = (  -0.500000   0.866025   0.000000 )  
               a(3) = (   0.000000   0.000000   1.646646 )  

     reciprocal axes: (cart. coord. in units 2 pi/alat)
               b(1) = (  1.000000  0.577350 -0.000000 )  
               b(2) = (  0.000000  1.154701  0.000000 )  
               b(3) = (  0.000000 -0.000000  0.607295 )  


     PseudoPot. # 1 for Zn read from file:
     /home/jvc/QEspresso7.2/ZnO_database/pseudos/Zn.upf
     MD5 check sum: 7f56cabf9682ed8c977c2f7d0c5985c5
     Pseudo is Ultrasoft + core correction, Zval = 12.0
     Generated using &quot;atomic&quot; code by A. Dal Corso  v.6.2.2
     Using radial grid of 1201 points,  6 beta functions with: 
                l(1) =   0
                l(2) =   0
                l(3) =   1
                l(4) =   1
                l(5) =   2
                l(6) =   2
     Q(r) pseudized with 0 coefficients 


     PseudoPot. # 2 for O  read from file:
     /home/jvc/QEspresso7.2/ZnO_database/pseudos/O.upf
     MD5 check sum: 91400c9766925bcf19f520983a725ff0
     Pseudo is Ultrasoft + core correction, Zval =  6.0
     Generated using &quot;atomic&quot; code by A. Dal Corso  v.6.3MaX
     Using radial grid of 1095 points,  4 beta functions with: 
                l(1) =   0
                l(2) =   0
                l(3) =   1
                l(4) =   1
     Q(r) pseudized with 0 coefficients 


     atomic species   valence    mass     pseudopotential
        Zn            12.00    65.38000     Zn( 1.00)
        O              6.00    15.99900     O ( 1.00)

     12 Sym. Ops. (no inversion) found ( 6 have fractional translation)


                                    s                        frac. trans.

      isym =  1     identity                                     

 cryst.   s( 1) = (     1          0          0      )
                  (     0          1          0      )
                  (     0          0          1      )

 cart.    s( 1) = (  1.0000000  0.0000000  0.0000000 )
                  (  0.0000000  1.0000000  0.0000000 )
                  (  0.0000000  0.0000000  1.0000000 )


      isym =  2     180 deg rotation - cart. axis [0,0,1]        

 cryst.   s( 2) = (    -1          0          0      )    f =(  0.0000000 )
                  (     0         -1          0      )       (  0.0000000 )
                  (     0          0          1      )       (  0.5000000 )

 cart.    s( 2) = ( -1.0000000  0.0000000  0.0000000 )    f =(  0.0000000 )
                  (  0.0000000 -1.0000000  0.0000000 )       (  0.0000000 )
                  (  0.0000000  0.0000000  1.0000000 )       (  0.8233228 )


      isym =  3      60 deg rotation - cryst. axis [0,0,1]       

 cryst.   s( 3) = (     1          1          0      )    f =( -0.0000000 )
                  (    -1          0          0      )       (  0.0000000 )
                  (     0          0          1      )       (  0.5000000 )

 cart.    s( 3) = (  0.5000000 -0.8660254  0.0000000 )    f =( -0.0000000 )
                  (  0.8660254  0.5000000  0.0000000 )       (  0.0000000 )
                  (  0.0000000  0.0000000  1.0000000 )       (  0.8233228 )


      isym =  4      60 deg rotation - cryst. axis [0,0,-1]      

 cryst.   s( 4) = (     0         -1          0      )    f =(  0.0000000 )
                  (     1          1          0      )       (  0.0000000 )
                  (     0          0          1      )       (  0.5000000 )

 cart.    s( 4) = (  0.5000000  0.8660254  0.0000000 )    f =( -0.0000000 )
                  ( -0.8660254  0.5000000  0.0000000 )       (  0.0000000 )
                  (  0.0000000  0.0000000  1.0000000 )       (  0.8233228 )


      isym =  5     120 deg rotation - cryst. axis [0,0,1]       

 cryst.   s( 5) = (     0          1          0      )
                  (    -1         -1          0      )
                  (     0          0          1      )

 cart.    s( 5) = ( -0.5000000 -0.8660254  0.0000000 )
                  (  0.8660254 -0.5000000  0.0000000 )
                  (  0.0000000  0.0000000  1.0000000 )


      isym =  6     120 deg rotation - cryst. axis [0,0,-1]      

 cryst.   s( 6) = (    -1         -1          0      )
                  (     1          0          0      )
                  (     0          0          1      )

 cart.    s( 6) = ( -0.5000000  0.8660254  0.0000000 )
                  ( -0.8660254 -0.5000000  0.0000000 )
                  (  0.0000000  0.0000000  1.0000000 )


      isym =  7     inv. 180 deg rotation - cart. axis [0,1,0]   

 cryst.   s( 7) = (     1          0          0      )    f =( -0.0000000 )
                  (    -1         -1          0      )       (  0.0000000 )
                  (     0          0          1      )       (  0.5000000 )

 cart.    s( 7) = (  1.0000000  0.0000000  0.0000000 )    f =( -0.0000000 )
                  (  0.0000000 -1.0000000  0.0000000 )       (  0.0000000 )
                  (  0.0000000  0.0000000  1.0000000 )       (  0.8233228 )


      isym =  8     inv. 180 deg rotation - cart. axis [1,0,0]   

 cryst.   s( 8) = (    -1          0          0      )
                  (     1          1          0      )
                  (     0          0          1      )

 cart.    s( 8) = ( -1.0000000  0.0000000  0.0000000 )
                  (  0.0000000  1.0000000  0.0000000 )
                  (  0.0000000  0.0000000  1.0000000 )


      isym =  9     inv. 180 deg rotation - cryst. axis [1,-1,0] 

 cryst.   s( 9) = (     0          1          0      )    f =(  0.0000000 )
                  (     1          0          0      )       (  0.0000000 )
                  (     0          0          1      )       (  0.5000000 )

 cart.    s( 9) = ( -0.5000000  0.8660254  0.0000000 )    f =(  0.0000000 )
                  (  0.8660254  0.5000000  0.0000000 )       (  0.0000000 )
                  (  0.0000000  0.0000000  1.0000000 )       (  0.8233228 )


      isym = 10     inv. 180 deg rotation - cryst. axis [2,1,0]  

 cryst.   s(10) = (    -1         -1          0      )    f =(  0.0000000 )
                  (     0          1          0      )       (  0.0000000 )
                  (     0          0          1      )       (  0.5000000 )

 cart.    s(10) = ( -0.5000000 -0.8660254  0.0000000 )    f =( -0.0000000 )
                  ( -0.8660254  0.5000000  0.0000000 )       (  0.0000000 )
                  (  0.0000000  0.0000000  1.0000000 )       (  0.8233228 )


      isym = 11     inv. 180 deg rotation - cryst. axis [0,1,0]  

 cryst.   s(11) = (     1          1          0      )
                  (     0         -1          0      )
                  (     0          0          1      )

 cart.    s(11) = (  0.5000000  0.8660254  0.0000000 )
                  (  0.8660254 -0.5000000  0.0000000 )
                  (  0.0000000  0.0000000  1.0000000 )


      isym = 12     inv. 180 deg rotation - cryst. axis [1,1,0]  

 cryst.   s(12) = (     0         -1          0      )
                  (    -1          0          0      )
                  (     0          0          1      )

 cart.    s(12) = (  0.5000000 -0.8660254  0.0000000 )
                  ( -0.8660254 -0.5000000  0.0000000 )
                  (  0.0000000  0.0000000  1.0000000 )


   Cartesian axes

     site n.     atom                  positions (alat units)
         1           Zn  tau(   1) = (   0.5000000   0.2886751   0.8243661  )
         2           Zn  tau(   2) = (  -0.0000000   0.5773503   0.0010433  )
         3           O   tau(   3) = (   0.5000000   0.2886751   1.4485152  )
         4           O   tau(   4) = (  -0.0000000   0.5773503   0.6251925  )

   Crystallographic axes

     site n.     atom                  positions (cryst. coord.)
         1           Zn  tau(   1) = (  0.6666667  0.3333333  0.5006336  )
         2           Zn  tau(   2) = (  0.3333333  0.6666667  0.0006336  )
         3           O   tau(   3) = (  0.6666667  0.3333333  0.8796764  )
         4           O   tau(   4) = (  0.3333333  0.6666667  0.3796764  )

     number of k points=    28
                       cart. coord. in units 2pi/alat
        k(    1) = (   0.0000000   0.0000000   0.0000000), wk =   0.0092593
        k(    2) = (   0.0000000   0.0000000   0.1012159), wk =   0.0185185
        k(    3) = (   0.0000000   0.0000000   0.2024317), wk =   0.0185185
        k(    4) = (   0.0000000   0.0000000  -0.3036476), wk =   0.0092593
        k(    5) = (   0.0000000   0.1924501   0.0000000), wk =   0.0555556
        k(    6) = (   0.0000000   0.1924501   0.1012159), wk =   0.1111111
        k(    7) = (   0.0000000   0.1924501   0.2024317), wk =   0.1111111
        k(    8) = (   0.0000000   0.1924501  -0.3036476), wk =   0.0555556
        k(    9) = (   0.0000000   0.3849002   0.0000000), wk =   0.0555556
        k(   10) = (   0.0000000   0.3849002   0.1012159), wk =   0.1111111
        k(   11) = (   0.0000000   0.3849002   0.2024317), wk =   0.1111111
        k(   12) = (   0.0000000   0.3849002  -0.3036476), wk =   0.0555556
        k(   13) = (   0.0000000  -0.5773503   0.0000000), wk =   0.0277778
        k(   14) = (   0.0000000  -0.5773503   0.1012159), wk =   0.0555556
        k(   15) = (   0.0000000  -0.5773503   0.2024317), wk =   0.0555556
        k(   16) = (   0.0000000  -0.5773503  -0.3036476), wk =   0.0277778
        k(   17) = (   0.1666667   0.2886751   0.0000000), wk =   0.0555556
        k(   18) = (   0.1666667   0.2886751   0.1012159), wk =   0.1111111
        k(   19) = (   0.1666667   0.2886751   0.2024317), wk =   0.1111111
        k(   20) = (   0.1666667   0.2886751  -0.3036476), wk =   0.0555556
        k(   21) = (   0.1666667   0.4811252   0.0000000), wk =   0.1111111
        k(   22) = (   0.1666667   0.4811252   0.1012159), wk =   0.2222222
        k(   23) = (   0.1666667   0.4811252   0.2024317), wk =   0.2222222
        k(   24) = (   0.1666667   0.4811252  -0.3036476), wk =   0.1111111
        k(   25) = (   0.3333333   0.5773503   0.0000000), wk =   0.0185185
        k(   26) = (   0.3333333   0.5773503   0.1012159), wk =   0.0370370
        k(   27) = (   0.3333333   0.5773503   0.2024317), wk =   0.0370370
        k(   28) = (   0.3333333   0.5773503  -0.3036476), wk =   0.0185185

                       cryst. coord.
        k(    1) = (   0.0000000   0.0000000   0.0000000), wk =   0.0092593
        k(    2) = (   0.0000000   0.0000000   0.1666667), wk =   0.0185185
        k(    3) = (   0.0000000   0.0000000   0.3333333), wk =   0.0185185
        k(    4) = (   0.0000000   0.0000000  -0.5000000), wk =   0.0092593
        k(    5) = (   0.0000000   0.1666667   0.0000000), wk =   0.0555556
        k(    6) = (   0.0000000   0.1666667   0.1666667), wk =   0.1111111
        k(    7) = (   0.0000000   0.1666667   0.3333333), wk =   0.1111111
        k(    8) = (   0.0000000   0.1666667  -0.5000000), wk =   0.0555556
        k(    9) = (   0.0000000   0.3333333   0.0000000), wk =   0.0555556
        k(   10) = (   0.0000000   0.3333333   0.1666667), wk =   0.1111111
        k(   11) = (   0.0000000   0.3333333   0.3333333), wk =   0.1111111
        k(   12) = (   0.0000000   0.3333333  -0.5000000), wk =   0.0555556
        k(   13) = (   0.0000000  -0.5000000   0.0000000), wk =   0.0277778
        k(   14) = (   0.0000000  -0.5000000   0.1666667), wk =   0.0555556
        k(   15) = (   0.0000000  -0.5000000   0.3333333), wk =   0.0555556
        k(   16) = (   0.0000000  -0.5000000  -0.5000000), wk =   0.0277778
        k(   17) = (   0.1666667   0.1666667   0.0000000), wk =   0.0555556
        k(   18) = (   0.1666667   0.1666667   0.1666667), wk =   0.1111111
        k(   19) = (   0.1666667   0.1666667   0.3333333), wk =   0.1111111
        k(   20) = (   0.1666667   0.1666667  -0.5000000), wk =   0.0555556
        k(   21) = (   0.1666667   0.3333333   0.0000000), wk =   0.1111111
        k(   22) = (   0.1666667   0.3333333   0.1666667), wk =   0.2222222
        k(   23) = (   0.1666667   0.3333333   0.3333333), wk =   0.2222222
        k(   24) = (   0.1666667   0.3333333  -0.5000000), wk =   0.1111111
        k(   25) = (   0.3333333   0.3333333   0.0000000), wk =   0.0185185
        k(   26) = (   0.3333333   0.3333333   0.1666667), wk =   0.0370370
        k(   27) = (   0.3333333   0.3333333   0.3333333), wk =   0.0370370
        k(   28) = (   0.3333333   0.3333333  -0.5000000), wk =   0.0185185

     Dense  grid:    53997 G-vectors     FFT dimensions: (  45,  45,  72)

     Smooth grid:    19171 G-vectors     FFT dimensions: (  30,  30,  50)

     Dynamical RAM for                 wfc:       0.33 MB

     Dynamical RAM for     wfc (w. buffer):       2.63 MB

     Dynamical RAM for           str. fact:       0.82 MB

     Dynamical RAM for           local pot:       0.00 MB

     Dynamical RAM for          nlocal pot:       0.95 MB

     Dynamical RAM for                qrad:       3.21 MB

     Dynamical RAM for          rho,v,vnew:       2.90 MB

     Dynamical RAM for               rhoin:       0.97 MB

     Dynamical RAM for            rho*nmix:       6.59 MB

     Dynamical RAM for           G-vectors:       1.62 MB

     Dynamical RAM for          h,s,v(r/c):       0.06 MB

     Dynamical RAM for          <psi|beta>:       0.01 MB

     Dynamical RAM for                 psi:       0.66 MB

     Dynamical RAM for                hpsi:       0.66 MB

     Dynamical RAM for                spsi:       0.66 MB

     Dynamical RAM for      wfcinit/wfcrot:       0.96 MB

     Dynamical RAM for           addusdens:      19.67 MB

     Dynamical RAM for          addusforce:      19.78 MB

     Estimated static dynamical RAM per process >      17.12 MB

     Estimated max dynamical RAM per process >      43.49 MB

     Estimated total dynamical RAM >     308.40 MB

     Check: negative core charge=   -0.000002

     Initial potential from superposition of free atoms

     starting charge      35.9925, renormalised to      36.0000
     Starting wfcs are   26 randomized atomic wfcs

     total cpu time spent up to now is        2.3 secs

     per-process dynamical memory:    30.9 Mb

     Self-consistent Calculation

     iteration #  1     ecut=    50.00 Ry     beta= 0.30
     Davidson diagonalization with overlap

---- Real-time Memory Report at c_bands before calling an iterative solver
            73 MiB given to the printing process from OS
            30 MiB allocation reported by mallinfo(arena+hblkhd)
        111257 MiB available memory on the node where the printing process lives
------------------
     ethr =  1.00E-02,  avg # of iterations =  1.3

     total cpu time spent up to now is        3.1 secs

     total energy              =    -361.40640553 Ry
     estimated scf accuracy    <       0.78391332 Ry

     iteration #  2     ecut=    50.00 Ry     beta= 0.30
     Davidson diagonalization with overlap

---- Real-time Memory Report at c_bands before calling an iterative solver
            79 MiB given to the printing process from OS
            48 MiB allocation reported by mallinfo(arena+hblkhd)
        111258 MiB available memory on the node where the printing process lives
------------------
     ethr =  2.18E-03,  avg # of iterations =  2.2

     total cpu time spent up to now is        4.0 secs

     total energy              =    -361.52559693 Ry
     estimated scf accuracy    <       0.08930530 Ry

     iteration #  3     ecut=    50.00 Ry     beta= 0.30
     Davidson diagonalization with overlap

---- Real-time Memory Report at c_bands before calling an iterative solver
            79 MiB given to the printing process from OS
            48 MiB allocation reported by mallinfo(arena+hblkhd)
        111258 MiB available memory on the node where the printing process lives
------------------
     ethr =  2.48E-04,  avg # of iterations =  6.1

     total cpu time spent up to now is        5.3 secs

     total energy              =    -361.53264047 Ry
     estimated scf accuracy    <       0.11595402 Ry

     iteration #  4     ecut=    50.00 Ry     beta= 0.30
     Davidson diagonalization with overlap

---- Real-time Memory Report at c_bands before calling an iterative solver
            79 MiB given to the printing process from OS
            49 MiB allocation reported by mallinfo(arena+hblkhd)
        111258 MiB available memory on the node where the printing process lives
------------------
     ethr =  2.48E-04,  avg # of iterations =  9.7

     total cpu time spent up to now is        7.2 secs

     total energy              =    -361.63751695 Ry
     estimated scf accuracy    <       0.54964644 Ry

     iteration #  5     ecut=    50.00 Ry     beta= 0.30
     Davidson diagonalization with overlap

---- Real-time Memory Report at c_bands before calling an iterative solver
            80 MiB given to the printing process from OS
            49 MiB allocation reported by mallinfo(arena+hblkhd)
        111258 MiB available memory on the node where the printing process lives
------------------
     ethr =  2.48E-04,  avg # of iterations =  2.0

     total cpu time spent up to now is        8.0 secs

     total energy              =    -361.41401282 Ry
     estimated scf accuracy    <       0.36434788 Ry

     iteration #  6     ecut=    50.00 Ry     beta= 0.30
     Davidson diagonalization with overlap

---- Real-time Memory Report at c_bands before calling an iterative solver
            80 MiB given to the printing process from OS
            49 MiB allocation reported by mallinfo(arena+hblkhd)
        111258 MiB available memory on the node where the printing process lives
------------------
     ethr =  2.48E-04,  avg # of iterations =  7.6

     total cpu time spent up to now is        9.5 secs

     total energy              =    -361.59852274 Ry
     estimated scf accuracy    <       0.29370256 Ry

     iteration #  7     ecut=    50.00 Ry     beta= 0.30
     Davidson diagonalization with overlap

---- Real-time Memory Report at c_bands before calling an iterative solver
            80 MiB given to the printing process from OS
            49 MiB allocation reported by mallinfo(arena+hblkhd)
        111257 MiB available memory on the node where the printing process lives
------------------
     ethr =  2.48E-04,  avg # of iterations =  2.0

     total cpu time spent up to now is       10.3 secs

     total energy              =    -361.60182275 Ry
     estimated scf accuracy    <       0.15569197 Ry

     iteration #  8     ecut=    50.00 Ry     beta= 0.30
     Davidson diagonalization with overlap

---- Real-time Memory Report at c_bands before calling an iterative solver
            81 MiB given to the printing process from OS
            50 MiB allocation reported by mallinfo(arena+hblkhd)
        111257 MiB available memory on the node where the printing process lives
------------------
     ethr =  2.48E-04,  avg # of iterations =  1.8

     total cpu time spent up to now is       11.1 secs

     total energy              =    -361.60758490 Ry
     estimated scf accuracy    <       0.12234784 Ry

     iteration #  9     ecut=    50.00 Ry     beta= 0.30
     Davidson diagonalization with overlap

---- Real-time Memory Report at c_bands before calling an iterative solver
            81 MiB given to the printing process from OS
            50 MiB allocation reported by mallinfo(arena+hblkhd)
        111257 MiB available memory on the node where the printing process lives
------------------
     ethr =  2.48E-04,  avg # of iterations =  1.1

     total cpu time spent up to now is       11.9 secs

     total energy              =    -361.60861944 Ry
     estimated scf accuracy    <       0.11240864 Ry

     iteration # 10     ecut=    50.00 Ry     beta= 0.30
     Davidson diagonalization with overlap

---- Real-time Memory Report at c_bands before calling an iterative solver
            81 MiB given to the printing process from OS
            50 MiB allocation reported by mallinfo(arena+hblkhd)
        111255 MiB available memory on the node where the printing process lives
------------------
     ethr =  2.48E-04,  avg # of iterations =  1.0

     total cpu time spent up to now is       12.6 secs

     total energy              =    -361.59329992 Ry
     estimated scf accuracy    <       0.09661536 Ry

     iteration # 11     ecut=    50.00 Ry     beta= 0.30
     Davidson diagonalization with overlap

---- Real-time Memory Report at c_bands before calling an iterative solver
            81 MiB given to the printing process from OS
            50 MiB allocation reported by mallinfo(arena+hblkhd)
        111255 MiB available memory on the node where the printing process lives
------------------
     ethr =  2.48E-04,  avg # of iterations =  1.2

     total cpu time spent up to now is       13.4 secs

     total energy              =    -361.59872656 Ry
     estimated scf accuracy    <       0.05465264 Ry

     iteration # 12     ecut=    50.00 Ry     beta= 0.30
     Davidson diagonalization with overlap

---- Real-time Memory Report at c_bands before calling an iterative solver
            81 MiB given to the printing process from OS
            50 MiB allocation reported by mallinfo(arena+hblkhd)
        111255 MiB available memory on the node where the printing process lives
------------------
     ethr =  1.52E-04,  avg # of iterations =  1.0

     total cpu time spent up to now is       14.1 secs

     total energy              =    -361.60885279 Ry
     estimated scf accuracy    <       0.05854649 Ry

     iteration # 13     ecut=    50.00 Ry     beta= 0.30
     Davidson diagonalization with overlap

---- Real-time Memory Report at c_bands before calling an iterative solver
            81 MiB given to the printing process from OS
            50 MiB allocation reported by mallinfo(arena+hblkhd)
        111255 MiB available memory on the node where the printing process lives
------------------
     ethr =  1.52E-04,  avg # of iterations =  1.0

     total cpu time spent up to now is       14.8 secs

     total energy              =    -361.60114390 Ry
     estimated scf accuracy    <       0.07351761 Ry

     iteration # 14     ecut=    50.00 Ry     beta= 0.30
     Davidson diagonalization with overlap

---- Real-time Memory Report at c_bands before calling an iterative solver
            81 MiB given to the printing process from OS
            50 MiB allocation reported by mallinfo(arena+hblkhd)
        111255 MiB available memory on the node where the printing process lives
------------------
     ethr =  1.52E-04,  avg # of iterations =  1.0

     total cpu time spent up to now is       15.6 secs

     total energy              =    -361.63729690 Ry
     estimated scf accuracy    <       0.05692690 Ry

     iteration # 15     ecut=    50.00 Ry     beta= 0.30
     Davidson diagonalization with overlap

---- Real-time Memory Report at c_bands before calling an iterative solver
            81 MiB given to the printing process from OS
            50 MiB allocation reported by mallinfo(arena+hblkhd)
        111255 MiB available memory on the node where the printing process lives
------------------
     ethr =  1.52E-04,  avg # of iterations =  2.0

     total cpu time spent up to now is       16.3 secs

     total energy              =    -361.65179305 Ry
     estimated scf accuracy    <       0.12654837 Ry

     iteration # 16     ecut=    50.00 Ry     beta= 0.30
     Davidson diagonalization with overlap

---- Real-time Memory Report at c_bands before calling an iterative solver
            81 MiB given to the printing process from OS
            50 MiB allocation reported by mallinfo(arena+hblkhd)
        111256 MiB available memory on the node where the printing process lives
------------------
     ethr =  1.52E-04,  avg # of iterations =  2.2

     total cpu time spent up to now is       17.2 secs

     total energy              =    -361.63702105 Ry
     estimated scf accuracy    <       0.22869685 Ry

     iteration # 17     ecut=    50.00 Ry     beta= 0.30
     Davidson diagonalization with overlap

---- Real-time Memory Report at c_bands before calling an iterative solver
            81 MiB given to the printing process from OS
            50 MiB allocation reported by mallinfo(arena+hblkhd)
        111256 MiB available memory on the node where the printing process lives
------------------
     ethr =  1.52E-04,  avg # of iterations =  1.0

     total cpu time spent up to now is       17.9 secs

     total energy              =    -361.68292184 Ry
     estimated scf accuracy    <       0.19485147 Ry

     iteration # 18     ecut=    50.00 Ry     beta= 0.30
     Davidson diagonalization with overlap

---- Real-time Memory Report at c_bands before calling an iterative solver
            81 MiB given to the printing process from OS
            50 MiB allocation reported by mallinfo(arena+hblkhd)
        111256 MiB available memory on the node where the printing process lives
------------------
     ethr =  1.52E-04,  avg # of iterations =  2.5

     total cpu time spent up to now is       18.8 secs

     total energy              =    -361.55937691 Ry
     estimated scf accuracy    <       0.29784994 Ry

     iteration # 19     ecut=    50.00 Ry     beta= 0.30
     Davidson diagonalization with overlap

---- Real-time Memory Report at c_bands before calling an iterative solver
            81 MiB given to the printing process from OS
            50 MiB allocation reported by mallinfo(arena+hblkhd)
        111256 MiB available memory on the node where the printing process lives
------------------
     ethr =  1.52E-04,  avg # of iterations =  4.9

     total cpu time spent up to now is       19.9 secs

     total energy              =    -361.60873400 Ry
     estimated scf accuracy    <       0.00920181 Ry

     iteration # 20     ecut=    50.00 Ry     beta= 0.30
     Davidson diagonalization with overlap

---- Real-time Memory Report at c_bands before calling an iterative solver
            81 MiB given to the printing process from OS
            50 MiB allocation reported by mallinfo(arena+hblkhd)
        111256 MiB available memory on the node where the printing process lives
------------------
     ethr =  2.56E-05,  avg # of iterations =  5.4

     total cpu time spent up to now is       21.1 secs

     total energy              =    -361.57589552 Ry
     estimated scf accuracy    <       0.09531123 Ry

     iteration # 21     ecut=    50.00 Ry     beta= 0.30
     Davidson diagonalization with overlap

---- Real-time Memory Report at c_bands before calling an iterative solver
            81 MiB given to the printing process from OS
            50 MiB allocation reported by mallinfo(arena+hblkhd)
        111256 MiB available memory on the node where the printing process lives
------------------
     ethr =  2.56E-05,  avg # of iterations =  7.8

     total cpu time spent up to now is       22.7 secs

     total energy              =    -361.59356142 Ry
     estimated scf accuracy    <       0.00013760 Ry

     iteration # 22     ecut=    50.00 Ry     beta= 0.30
     Davidson diagonalization with overlap

---- Real-time Memory Report at c_bands before calling an iterative solver
            81 MiB given to the printing process from OS
            50 MiB allocation reported by mallinfo(arena+hblkhd)
        111256 MiB available memory on the node where the printing process lives
------------------
     c_bands:  2 eigenvalues not converged
     ethr =  3.82E-07,  avg # of iterations =  8.9

     total cpu time spent up to now is       24.1 secs

     total energy              =    -361.59369545 Ry
     estimated scf accuracy    <       0.00062659 Ry

     iteration # 23     ecut=    50.00 Ry     beta= 0.30
     Davidson diagonalization with overlap

---- Real-time Memory Report at c_bands before calling an iterative solver
            81 MiB given to the printing process from OS
            50 MiB allocation reported by mallinfo(arena+hblkhd)
        111256 MiB available memory on the node where the printing process lives
------------------
     ethr =  3.82E-07,  avg # of iterations =  1.1

     total cpu time spent up to now is       24.8 secs

     total energy              =    -361.59380038 Ry
     estimated scf accuracy    <       0.00047137 Ry

     iteration # 24     ecut=    50.00 Ry     beta= 0.30
     Davidson diagonalization with overlap

---- Real-time Memory Report at c_bands before calling an iterative solver
            81 MiB given to the printing process from OS
            50 MiB allocation reported by mallinfo(arena+hblkhd)
        111256 MiB available memory on the node where the printing process lives
------------------
     ethr =  3.82E-07,  avg # of iterations =  1.0

     total cpu time spent up to now is       25.5 secs

     total energy              =    -361.59375064 Ry
     estimated scf accuracy    <       0.00065676 Ry

     iteration # 25     ecut=    50.00 Ry     beta= 0.30
     Davidson diagonalization with overlap

---- Real-time Memory Report at c_bands before calling an iterative solver
            81 MiB given to the printing process from OS
            50 MiB allocation reported by mallinfo(arena+hblkhd)
        111256 MiB available memory on the node where the printing process lives
------------------
     ethr =  3.82E-07,  avg # of iterations =  1.0

     total cpu time spent up to now is       26.3 secs

     total energy              =    -361.59365587 Ry
     estimated scf accuracy    <       0.00057329 Ry

     iteration # 26     ecut=    50.00 Ry     beta= 0.30
     Davidson diagonalization with overlap

---- Real-time Memory Report at c_bands before calling an iterative solver
            81 MiB given to the printing process from OS
            50 MiB allocation reported by mallinfo(arena+hblkhd)
        111256 MiB available memory on the node where the printing process lives
------------------
     ethr =  3.82E-07,  avg # of iterations =  1.0

     total cpu time spent up to now is       27.0 secs

     total energy              =    -361.59362819 Ry
     estimated scf accuracy    <       0.00038428 Ry

     iteration # 27     ecut=    50.00 Ry     beta= 0.30
     Davidson diagonalization with overlap

---- Real-time Memory Report at c_bands before calling an iterative solver
            81 MiB given to the printing process from OS
            50 MiB allocation reported by mallinfo(arena+hblkhd)
        111256 MiB available memory on the node where the printing process lives
------------------
     ethr =  3.82E-07,  avg # of iterations =  2.0

     total cpu time spent up to now is       27.8 secs

     total energy              =    -361.59363355 Ry
     estimated scf accuracy    <       0.00026942 Ry

     iteration # 28     ecut=    50.00 Ry     beta= 0.30
     Davidson diagonalization with overlap

---- Real-time Memory Report at c_bands before calling an iterative solver
            81 MiB given to the printing process from OS
            50 MiB allocation reported by mallinfo(arena+hblkhd)
        111256 MiB available memory on the node where the printing process lives
------------------
     ethr =  3.82E-07,  avg # of iterations =  2.0

     total cpu time spent up to now is       28.6 secs

     total energy              =    -361.59368989 Ry
     estimated scf accuracy    <       0.00018967 Ry

     iteration # 29     ecut=    50.00 Ry     beta= 0.30
     Davidson diagonalization with overlap

---- Real-time Memory Report at c_bands before calling an iterative solver
            81 MiB given to the printing process from OS
            50 MiB allocation reported by mallinfo(arena+hblkhd)
        111257 MiB available memory on the node where the printing process lives
------------------
     ethr =  3.82E-07,  avg # of iterations =  1.0

     total cpu time spent up to now is       29.4 secs

     total energy              =    -361.59363892 Ry
     estimated scf accuracy    <       0.00027562 Ry

     iteration # 30     ecut=    50.00 Ry     beta= 0.30
     Davidson diagonalization with overlap

---- Real-time Memory Report at c_bands before calling an iterative solver
            81 MiB given to the printing process from OS
            50 MiB allocation reported by mallinfo(arena+hblkhd)
        111257 MiB available memory on the node where the printing process lives
------------------
     ethr =  3.82E-07,  avg # of iterations =  1.2

     total cpu time spent up to now is       30.1 secs

     total energy              =    -361.59370333 Ry
     estimated scf accuracy    <       0.00017984 Ry

     iteration # 31     ecut=    50.00 Ry     beta= 0.30
     Davidson diagonalization with overlap

---- Real-time Memory Report at c_bands before calling an iterative solver
            81 MiB given to the printing process from OS
            50 MiB allocation reported by mallinfo(arena+hblkhd)
        111257 MiB available memory on the node where the printing process lives
------------------
     ethr =  3.82E-07,  avg # of iterations =  1.0

     total cpu time spent up to now is       30.8 secs

     total energy              =    -361.59365575 Ry
     estimated scf accuracy    <       0.00028673 Ry

     iteration # 32     ecut=    50.00 Ry     beta= 0.30
     Davidson diagonalization with overlap

---- Real-time Memory Report at c_bands before calling an iterative solver
            81 MiB given to the printing process from OS
            50 MiB allocation reported by mallinfo(arena+hblkhd)
        111257 MiB available memory on the node where the printing process lives
------------------
     ethr =  3.82E-07,  avg # of iterations =  1.0

     total cpu time spent up to now is       31.6 secs

     total energy              =    -361.59363715 Ry
     estimated scf accuracy    <       0.00020657 Ry

     iteration # 33     ecut=    50.00 Ry     beta= 0.30
     Davidson diagonalization with overlap

---- Real-time Memory Report at c_bands before calling an iterative solver
            81 MiB given to the printing process from OS
            50 MiB allocation reported by mallinfo(arena+hblkhd)
        111257 MiB available memory on the node where the printing process lives
------------------
     ethr =  3.82E-07,  avg # of iterations =  1.5

     total cpu time spent up to now is       32.3 secs

     total energy              =    -361.59365507 Ry
     estimated scf accuracy    <       0.00013295 Ry

     iteration # 34     ecut=    50.00 Ry     beta= 0.30
     Davidson diagonalization with overlap

---- Real-time Memory Report at c_bands before calling an iterative solver
            81 MiB given to the printing process from OS
            50 MiB allocation reported by mallinfo(arena+hblkhd)
        111257 MiB available memory on the node where the printing process lives
------------------
     ethr =  3.69E-07,  avg # of iterations =  1.0

     total cpu time spent up to now is       33.1 secs

     total energy              =    -361.59364039 Ry
     estimated scf accuracy    <       0.00015719 Ry

     iteration # 35     ecut=    50.00 Ry     beta= 0.30
     Davidson diagonalization with overlap

---- Real-time Memory Report at c_bands before calling an iterative solver
            81 MiB given to the printing process from OS
            50 MiB allocation reported by mallinfo(arena+hblkhd)
        111257 MiB available memory on the node where the printing process lives
------------------
     ethr =  3.69E-07,  avg # of iterations =  1.1

     total cpu time spent up to now is       33.8 secs

     total energy              =    -361.59363573 Ry
     estimated scf accuracy    <       0.00012586 Ry

     iteration # 36     ecut=    50.00 Ry     beta= 0.30
     Davidson diagonalization with overlap

---- Real-time Memory Report at c_bands before calling an iterative solver
            81 MiB given to the printing process from OS
            50 MiB allocation reported by mallinfo(arena+hblkhd)
        111257 MiB available memory on the node where the printing process lives
------------------
     ethr =  3.50E-07,  avg # of iterations =  1.0

     total cpu time spent up to now is       34.5 secs

     total energy              =    -361.59356329 Ry
     estimated scf accuracy    <       0.00010575 Ry

     iteration # 37     ecut=    50.00 Ry     beta= 0.30
     Davidson diagonalization with overlap

---- Real-time Memory Report at c_bands before calling an iterative solver
            81 MiB given to the printing process from OS
            50 MiB allocation reported by mallinfo(arena+hblkhd)
        111257 MiB available memory on the node where the printing process lives
------------------
     ethr =  2.94E-07,  avg # of iterations =  5.6

     total cpu time spent up to now is       35.8 secs

     total energy              =    -361.59359881 Ry
     estimated scf accuracy    <       0.00015508 Ry

     iteration # 38     ecut=    50.00 Ry     beta= 0.30
     Davidson diagonalization with overlap

---- Real-time Memory Report at c_bands before calling an iterative solver
            81 MiB given to the printing process from OS
            50 MiB allocation reported by mallinfo(arena+hblkhd)
        111257 MiB available memory on the node where the printing process lives
------------------
     ethr =  2.94E-07,  avg # of iterations =  2.0

     total cpu time spent up to now is       36.6 secs

     total energy              =    -361.59360768 Ry
     estimated scf accuracy    <       0.00004382 Ry

     iteration # 39     ecut=    50.00 Ry     beta= 0.30
     Davidson diagonalization with overlap

---- Real-time Memory Report at c_bands before calling an iterative solver
            81 MiB given to the printing process from OS
            50 MiB allocation reported by mallinfo(arena+hblkhd)
        111257 MiB available memory on the node where the printing process lives
------------------
     ethr =  1.22E-07,  avg # of iterations =  4.8

     total cpu time spent up to now is       37.6 secs

     total energy              =    -361.59361993 Ry
     estimated scf accuracy    <       0.00000371 Ry

     iteration # 40     ecut=    50.00 Ry     beta= 0.30
     Davidson diagonalization with overlap

---- Real-time Memory Report at c_bands before calling an iterative solver
            81 MiB given to the printing process from OS
            50 MiB allocation reported by mallinfo(arena+hblkhd)
        111257 MiB available memory on the node where the printing process lives
------------------
     ethr =  1.03E-08,  avg # of iterations =  6.2

     total cpu time spent up to now is       38.9 secs

     total energy              =    -361.59362255 Ry
     estimated scf accuracy    <       0.00000015 Ry

     iteration # 41     ecut=    50.00 Ry     beta= 0.30
     Davidson diagonalization with overlap

---- Real-time Memory Report at c_bands before calling an iterative solver
            81 MiB given to the printing process from OS
            50 MiB allocation reported by mallinfo(arena+hblkhd)
        111257 MiB available memory on the node where the printing process lives
------------------
     ethr =  4.30E-10,  avg # of iterations = 10.1

     total cpu time spent up to now is       40.8 secs

     total energy              =    -361.59362401 Ry
     estimated scf accuracy    <       0.00000272 Ry

     iteration # 42     ecut=    50.00 Ry     beta= 0.30
     Davidson diagonalization with overlap

---- Real-time Memory Report at c_bands before calling an iterative solver
            81 MiB given to the printing process from OS
            50 MiB allocation reported by mallinfo(arena+hblkhd)
        111258 MiB available memory on the node where the printing process lives
------------------
     ethr =  4.30E-10,  avg # of iterations =  7.0

     total cpu time spent up to now is       42.1 secs

     total energy              =    -361.59362241 Ry
     estimated scf accuracy    <       0.00000747 Ry

     iteration # 43     ecut=    50.00 Ry     beta= 0.30
     Davidson diagonalization with overlap

---- Real-time Memory Report at c_bands before calling an iterative solver
            81 MiB given to the printing process from OS
            50 MiB allocation reported by mallinfo(arena+hblkhd)
        111258 MiB available memory on the node where the printing process lives
------------------
     ethr =  4.30E-10,  avg # of iterations =  8.8

     total cpu time spent up to now is       43.8 secs

     total energy              =    -361.59362256 Ry
     estimated scf accuracy    <       0.00000164 Ry

     iteration # 44     ecut=    50.00 Ry     beta= 0.30
     Davidson diagonalization with overlap

---- Real-time Memory Report at c_bands before calling an iterative solver
            81 MiB given to the printing process from OS
            50 MiB allocation reported by mallinfo(arena+hblkhd)
        111258 MiB available memory on the node where the printing process lives
------------------
     ethr =  4.30E-10,  avg # of iterations =  4.0

     total cpu time spent up to now is       44.8 secs

     total energy              =    -361.59362264 Ry
     estimated scf accuracy    <       0.00000098 Ry

     iteration # 45     ecut=    50.00 Ry     beta= 0.30
     Davidson diagonalization with overlap

---- Real-time Memory Report at c_bands before calling an iterative solver
            81 MiB given to the printing process from OS
            50 MiB allocation reported by mallinfo(arena+hblkhd)
        111258 MiB available memory on the node where the printing process lives
------------------
     ethr =  4.30E-10,  avg # of iterations =  1.4

     total cpu time spent up to now is       45.6 secs

     total energy              =    -361.59362261 Ry
     estimated scf accuracy    <       0.00000102 Ry

     iteration # 46     ecut=    50.00 Ry     beta= 0.30
     Davidson diagonalization with overlap

---- Real-time Memory Report at c_bands before calling an iterative solver
            81 MiB given to the printing process from OS
            50 MiB allocation reported by mallinfo(arena+hblkhd)
        111258 MiB available memory on the node where the printing process lives
------------------
     ethr =  4.30E-10,  avg # of iterations =  1.8

     total cpu time spent up to now is       46.4 secs

     total energy              =    -361.59362248 Ry
     estimated scf accuracy    <       0.00000089 Ry

     iteration # 47     ecut=    50.00 Ry     beta= 0.30
     Davidson diagonalization with overlap

---- Real-time Memory Report at c_bands before calling an iterative solver
            81 MiB given to the printing process from OS
            50 MiB allocation reported by mallinfo(arena+hblkhd)
        111258 MiB available memory on the node where the printing process lives
------------------
     ethr =  4.30E-10,  avg # of iterations =  4.4

     total cpu time spent up to now is       47.4 secs

     total energy              =    -361.59362236 Ry
     estimated scf accuracy    <       0.00000040 Ry

     iteration # 48     ecut=    50.00 Ry     beta= 0.30
     Davidson diagonalization with overlap

---- Real-time Memory Report at c_bands before calling an iterative solver
            81 MiB given to the printing process from OS
            50 MiB allocation reported by mallinfo(arena+hblkhd)
        111259 MiB available memory on the node where the printing process lives
------------------
     ethr =  4.30E-10,  avg # of iterations =  5.2

     total cpu time spent up to now is       48.5 secs

     End of self-consistent calculation

          k = 0.0000 0.0000 0.0000 (  2407 PWs)   bands (ev):

   -12.2466 -11.8313  -0.6009  -0.6009  -0.5736  -0.4837  -0.4837  -0.0336
     0.0427   0.0427   0.1582   0.1582   0.5868   3.8389   3.8389   4.2936
     4.3662   4.3662

     occupation numbers 
     1.0000   1.0000   1.0000   1.0000   1.0000   1.0000   1.0000   1.0000
     1.0000   1.0000   1.0000   1.0000   1.0000   1.0000   1.0000   1.0000
     1.0000   1.0000

          k = 0.0000 0.0000 0.1012 (  2400 PWs)   bands (ev):

   -12.2197 -11.8600  -0.5961  -0.5961  -0.5869  -0.4948  -0.4948  -0.2397
     0.0527   0.0527   0.1532   0.1532   0.9286   3.6948   3.8749   3.8749
     4.3316   4.3316

     occupation numbers 
     1.0000   1.0000   1.0000   1.0000   1.0000   1.0000   1.0000   1.0000
     1.0000   1.0000   1.0000   1.0000   1.0000   1.0000   1.0000   1.0000
     1.0000   1.0000

          k = 0.0000 0.0000 0.2024 (  2430 PWs)   bands (ev):

   -12.1456 -11.9379  -0.6080  -0.5809  -0.5809  -0.5228  -0.5228  -0.4719
     0.0784   0.0784   0.1368   0.1368   1.5445   2.9535   3.9727   3.9727
     4.2364   4.2364

     occupation numbers 
     1.0000   1.0000   1.0000   1.0000   1.0000   1.0000   1.0000   1.0000
     1.0000   1.0000   1.0000   1.0000   1.0000   1.0000   1.0000   1.0000
     1.0000   1.0000

          k = 0.0000 0.0000-0.3036 (  2436 PWs)   bands (ev):

   -12.0427 -12.0427  -0.5872  -0.5872  -0.5550  -0.5550  -0.5550  -0.5550
     0.1101   0.1101   0.1101   0.1101   2.2343   2.2343   4.1052   4.1052
     4.1052   4.1052

     occupation numbers 
     1.0000   1.0000   1.0000   1.0000   1.0000   1.0000   1.0000   1.0000
     1.0000   1.0000   1.0000   1.0000   1.0000   1.0000   1.0000   1.0000
     1.0000   1.0000

          k = 0.0000 0.1925 0.0000 (  2401 PWs)   bands (ev):

   -12.1540 -11.7881  -0.6459  -0.5452  -0.5253  -0.4527  -0.4010  -0.0579
     0.0100   0.0425   0.1638   0.2738   0.7388   2.9961   3.2925   3.5854
     4.1692   4.2237

     occupation numbers 
     1.0000   1.0000   1.0000   1.0000   1.0000   1.0000   1.0000   1.0000
     1.0000   1.0000   1.0000   1.0000   1.0000   1.0000   1.0000   1.0000
     1.0000   1.0000

          k = 0.0000 0.1925 0.1012 (  2389 PWs)   bands (ev):

   -12.1300 -11.8131  -0.6538  -0.5383  -0.5328  -0.4664  -0.4136  -0.2017
     0.0274   0.0522   0.1574   0.2054   1.0621   2.9516   3.2414   3.6291
     4.0944   4.1817

     occupation numbers 
     1.0000   1.0000   1.0000   1.0000   1.0000   1.0000   1.0000   1.0000
     1.0000   1.0000   1.0000   1.0000   1.0000   1.0000   1.0000   1.0000
     1.0000   1.0000

          k = 0.0000 0.1925 0.2024 (  2401 PWs)   bands (ev):

   -12.0640 -11.8810  -0.6659  -0.5726  -0.5176  -0.4866  -0.4460  -0.3882
     0.0666   0.0772   0.1381   0.1575   1.6150   2.6413   3.3534   3.7476
     3.8844   4.0665

     occupation numbers 
     1.0000   1.0000   1.0000   1.0000   1.0000   1.0000   1.0000   1.0000
     1.0000   1.0000   1.0000   1.0000   1.0000   1.0000   1.0000   1.0000
     1.0000   1.0000

          k = 0.0000 0.1925-0.3036 (  2406 PWs)   bands (ev):

   -11.9730 -11.9730  -0.6436  -0.6436  -0.4846  -0.4846  -0.4652  -0.4652
     0.1090   0.1090   0.1133   0.1133   2.1665   2.1665   3.6050   3.6050
     3.9079   3.9079

     occupation numbers 
     1.0000   1.0000   1.0000   1.0000   1.0000   1.0000   1.0000   1.0000
     1.0000   1.0000   1.0000   1.0000   1.0000   1.0000   1.0000   1.0000
     1.0000   1.0000

          k = 0.0000 0.3849 0.0000 (  2395 PWs)   bands (ev):

   -11.9496 -11.7136  -0.6580  -0.4769  -0.4579  -0.2634  -0.2150  -0.0808
     0.0237   0.0894   0.1759   0.3242   1.1652   1.7302   2.3557   3.0802
     3.7713   3.9202

     occupation numbers 
     1.0000   1.0000   1.0000   1.0000   1.0000   1.0000   1.0000   1.0000
     1.0000   1.0000   1.0000   1.0000   1.0000   1.0000   1.0000   1.0000
     1.0000   1.0000

          k = 0.0000 0.3849 0.1012 (  2387 PWs)   bands (ev):

   -11.9335 -11.7290  -0.6689  -0.5055  -0.4440  -0.2739  -0.2336  -0.1381
     0.0309   0.0945   0.1687   0.2772   1.2432   1.8020   2.4141   3.1389
     3.7696   3.8654

     occupation numbers 
     1.0000   1.0000   1.0000   1.0000   1.0000   1.0000   1.0000   1.0000
     1.0000   1.0000   1.0000   1.0000   1.0000   1.0000   1.0000   1.0000
     1.0000   1.0000

          k = 0.0000 0.3849 0.2024 (  2391 PWs)   bands (ev):

   -11.8896 -11.7715  -0.6837  -0.5836  -0.4043  -0.2932  -0.2831  -0.2438
     0.0797   0.1086   0.1506   0.2092   1.3943   1.7489   2.7813   3.2966
     3.6466   3.7150

     occupation numbers 
     1.0000   1.0000   1.0000   1.0000   1.0000   1.0000   1.0000   1.0000
     1.0000   1.0000   1.0000   1.0000   1.0000   1.0000   1.0000   1.0000
     1.0000   1.0000

          k = 0.0000 0.3849-0.3036 (  2404 PWs)   bands (ev):

   -11.8302 -11.8302  -0.6608  -0.6608  -0.3463  -0.3463  -0.2916  -0.2916
     0.1286   0.1286   0.1439   0.1439   1.5735   1.5735   3.2857   3.2857
     3.5075   3.5075

     occupation numbers 
     1.0000   1.0000   1.0000   1.0000   1.0000   1.0000   1.0000   1.0000
     1.0000   1.0000   1.0000   1.0000   1.0000   1.0000   1.0000   1.0000
     1.0000   1.0000

          k = 0.0000-0.5774 0.0000 (  2384 PWs)   bands (ev):

   -11.8238 -11.6963  -0.6261  -0.4312  -0.3745  -0.1800  -0.1131  -0.0269
     0.1305   0.1465   0.1878   0.2389   0.9349   1.4324   2.2033   2.8176
     3.4056   3.7602

     occupation numbers 
     1.0000   1.0000   1.0000   1.0000   1.0000   1.0000   1.0000   1.0000
     1.0000   1.0000   1.0000   1.0000   1.0000   1.0000   1.0000   1.0000
     1.0000   1.0000

          k = 0.0000-0.5774 0.1012 (  2380 PWs)   bands (ev):

   -11.8145 -11.7040  -0.6406  -0.4396  -0.4129  -0.1783  -0.1371  -0.0400
     0.1463   0.1477   0.1814   0.2387   0.9124   1.3503   2.4188   2.8847
     3.4717   3.6992

     occupation numbers 
     1.0000   1.0000   1.0000   1.0000   1.0000   1.0000   1.0000   1.0000
     1.0000   1.0000   1.0000   1.0000   1.0000   1.0000   1.0000   1.0000
     1.0000   1.0000

          k = 0.0000-0.5774 0.2024 (  2382 PWs)   bands (ev):

   -11.7896 -11.7258  -0.6630  -0.5623  -0.3610  -0.2017  -0.1669  -0.0878
     0.1517   0.1689   0.1858   0.2344   0.9263   1.1802   2.8814   3.0638
     3.5130   3.5320

     occupation numbers 
     1.0000   1.0000   1.0000   1.0000   1.0000   1.0000   1.0000   1.0000
     1.0000   1.0000   1.0000   1.0000   1.0000   1.0000   1.0000   1.0000
     1.0000   1.0000

          k = 0.0000-0.5774-0.3036 (  2392 PWs)   bands (ev):

   -11.7569 -11.7569  -0.6469  -0.6469  -0.2847  -0.2847  -0.1371  -0.1371
     0.1584   0.1584   0.2185   0.2185   1.0227   1.0227   3.3008   3.3008
     3.3124   3.3124

     occupation numbers 
     1.0000   1.0000   1.0000   1.0000   1.0000   1.0000   1.0000   1.0000
     1.0000   1.0000   1.0000   1.0000   1.0000   1.0000   1.0000   1.0000
     1.0000   1.0000

          k = 0.1667 0.2887 0.0000 (  2399 PWs)   bands (ev):

   -12.0047 -11.7295  -0.6033  -0.5395  -0.4440  -0.3812  -0.2497  -0.0436
    -0.0193   0.0607   0.1716   0.3232   1.0765   2.2824   2.3942   3.0971
     3.8630   3.9180

     occupation numbers 
     1.0000   1.0000   1.0000   1.0000   1.0000   1.0000   1.0000   1.0000
     1.0000   1.0000   1.0000   1.0000   1.0000   1.0000   1.0000   1.0000
     1.0000   1.0000

          k = 0.1667 0.2887 0.1012 (  2396 PWs)   bands (ev):

   -11.9862 -11.7478  -0.6172  -0.5398  -0.4477  -0.3926  -0.2655  -0.1538
     0.0061   0.0772   0.1648   0.2683   1.2643   2.2256   2.5246   3.1201
     3.8050   3.8970

     occupation numbers 
     1.0000   1.0000   1.0000   1.0000   1.0000   1.0000   1.0000   1.0000
     1.0000   1.0000   1.0000   1.0000   1.0000   1.0000   1.0000   1.0000
     1.0000   1.0000

          k = 0.1667 0.2887 0.2024 (  2398 PWs)   bands (ev):

   -11.9356 -11.7979  -0.6397  -0.5663  -0.4446  -0.4129  -0.3053  -0.3048
     0.0649   0.0981   0.1472   0.2012   1.5731   2.0644   2.8900   3.2281
     3.6499   3.7416

     occupation numbers 
     1.0000   1.0000   1.0000   1.0000   1.0000   1.0000   1.0000   1.0000
     1.0000   1.0000   1.0000   1.0000   1.0000   1.0000   1.0000   1.0000
     1.0000   1.0000

          k = 0.1667 0.2887-0.3036 (  2406 PWs)   bands (ev):

   -11.8666 -11.8666  -0.6248  -0.6248  -0.4268  -0.4268  -0.3411  -0.3411
     0.1169   0.1169   0.1403   0.1403   1.8400   1.8400   3.3184   3.3184
     3.4788   3.4788

     occupation numbers 
     1.0000   1.0000   1.0000   1.0000   1.0000   1.0000   1.0000   1.0000
     1.0000   1.0000   1.0000   1.0000   1.0000   1.0000   1.0000   1.0000
     1.0000   1.0000

          k = 0.1667 0.4811 0.0000 (  2390 PWs)   bands (ev):

   -11.8276 -11.6942  -0.5819  -0.4272  -0.2993  -0.1951  -0.1012  -0.0769
     0.0434   0.0929   0.2042   0.3372   1.1116   1.5363   2.2004   2.4864
     3.3990   3.5039

     occupation numbers 
     1.0000   1.0000   1.0000   1.0000   1.0000   1.0000   1.0000   1.0000
     1.0000   1.0000   1.0000   1.0000   1.0000   1.0000   1.0000   1.0000
     1.0000   1.0000

          k = 0.1667 0.4811 0.1012 (  2387 PWs)   bands (ev):

   -11.8179 -11.7024  -0.5807  -0.4375  -0.3440  -0.2018  -0.1271  -0.1146
     0.0496   0.1168   0.2048   0.3242   1.0956   1.4980   2.3146   2.6318
     3.3627   3.5281

     occupation numbers 
     1.0000   1.0000   1.0000   1.0000   1.0000   1.0000   1.0000   1.0000
     1.0000   1.0000   1.0000   1.0000   1.0000   1.0000   1.0000   1.0000
     1.0000   1.0000

          k = 0.1667 0.4811 0.2024 (  2393 PWs)   bands (ev):

   -11.7920 -11.7253  -0.5844  -0.4928  -0.3744  -0.2244  -0.1983  -0.1694
     0.0936   0.1319   0.2152   0.2888   1.1274   1.3732   2.5609   2.9926
     3.1847   3.5701

     occupation numbers 
     1.0000   1.0000   1.0000   1.0000   1.0000   1.0000   1.0000   1.0000
     1.0000   1.0000   1.0000   1.0000   1.0000   1.0000   1.0000   1.0000
     1.0000   1.0000

          k = 0.1667 0.4811-0.3036 (  2384 PWs)   bands (ev):

   -11.7579 -11.7579  -0.5655  -0.5655  -0.3127  -0.3127  -0.1984  -0.1984
     0.1252   0.1252   0.2462   0.2462   1.2314   1.2314   2.8550   2.8550
     3.4105   3.4105

     occupation numbers 
     1.0000   1.0000   1.0000   1.0000   1.0000   1.0000   1.0000   1.0000
     1.0000   1.0000   1.0000   1.0000   1.0000   1.0000   1.0000   1.0000
     1.0000   1.0000

          k = 0.3333 0.5774 0.0000 (  2394 PWs)   bands (ev):

   -11.7258 -11.7258  -0.5832  -0.2841  -0.2841  -0.0699   0.0098   0.0098
     0.0422   0.0776   0.2604   0.2604   1.3204   1.3204   1.5381   2.9310
     2.9310   3.0434

     occupation numbers 
     1.0000   1.0000   1.0000   1.0000   1.0000   1.0000   1.0000   1.0000
     1.0000   1.0000   1.0000   1.0000   1.0000   1.0000   1.0000   1.0000
     1.0000   1.0000

          k = 0.3333 0.5774 0.1012 (  2370 PWs)   bands (ev):

   -11.7248 -11.7248  -0.5597  -0.3208  -0.3208  -0.1212  -0.0129  -0.0129
     0.0391   0.0746   0.2900   0.2900   1.2680   1.2680   1.6528   2.9436
     3.0707   3.0707

     occupation numbers 
     1.0000   1.0000   1.0000   1.0000   1.0000   1.0000   1.0000   1.0000
     1.0000   1.0000   1.0000   1.0000   1.0000   1.0000   1.0000   1.0000
     1.0000   1.0000

          k = 0.3333 0.5774 0.2024 (  2376 PWs)   bands (ev):

   -11.7230 -11.7230  -0.4912  -0.3957  -0.3957  -0.2461  -0.0414  -0.0414
     0.0432   0.0658   0.3340   0.3340   1.1848   1.1848   1.9432   2.6754
     3.3314   3.3314

     occupation numbers 
     1.0000   1.0000   1.0000   1.0000   1.0000   1.0000   1.0000   1.0000
     1.0000   1.0000   1.0000   1.0000   1.0000   1.0000   1.0000   1.0000
     1.0000   1.0000

          k = 0.3333 0.5774-0.3036 (  2370 PWs)   bands (ev):

   -11.7220 -11.7220  -0.4327  -0.4327  -0.3818  -0.3818  -0.0511  -0.0511
     0.0539   0.0539   0.3519   0.3519   1.1509   1.1509   2.3134   2.3134
     3.4561   3.4561

     occupation numbers 
     1.0000   1.0000   1.0000   1.0000   1.0000   1.0000   1.0000   1.0000
     1.0000   1.0000   1.0000   1.0000   1.0000   1.0000   1.0000   1.0000
     1.0000   1.0000

     highest occupied level (ev):     4.3662

!    total energy              =    -361.59362246 Ry
     estimated scf accuracy    <          4.3E-10 Ry

     The total energy is the sum of the following terms:
     one-electron contribution =    -176.26800736 Ry
     hartree contribution      =     126.16622841 Ry
     xc contribution           =    -109.18937178 Ry
     ewald contribution        =    -202.30247173 Ry

     convergence has been achieved in  48 iterations

     Forces acting on atoms (cartesian axes, Ry/au):

     atom    1 type  1   force =     0.00000000    0.00000000   -0.00036122
     atom    2 type  1   force =     0.00000000    0.00000000   -0.00036122
     atom    3 type  2   force =     0.00000000    0.00000000    0.00036122
     atom    4 type  2   force =     0.00000000    0.00000000    0.00036122
     The non-local contrib.  to forces
     atom    1 type  1   force =     0.00000000   -0.00000000    0.04594362
     atom    2 type  1   force =    -0.00000000    0.00000000    0.04594362
     atom    3 type  2   force =     0.00000000    0.00000000    0.05813787
     atom    4 type  2   force =     0.00000000    0.00000000    0.05813787
     The ionic contribution  to forces
     atom    1 type  1   force =    -0.00000000    0.00000000    0.41388422
     atom    2 type  1   force =     0.00000000   -0.00000000    0.41388422
     atom    3 type  2   force =    -0.00000000    0.00000000   -0.41388422
     atom    4 type  2   force =     0.00000000   -0.00000000   -0.41388422
     The local contribution  to forces
     atom    1 type  1   force =    -0.00000002    0.00000001   -0.45738007
     atom    2 type  1   force =     0.00000007   -0.00000004   -0.45738007
     atom    3 type  2   force =    -0.00000001    0.00000000    0.35666340
     atom    4 type  2   force =     0.00000002   -0.00000001    0.35666340
     The core correction contribution to forces
     atom    1 type  1   force =    -0.00000000    0.00000000   -0.00280817
     atom    2 type  1   force =     0.00000001   -0.00000001   -0.00280817
     atom    3 type  2   force =     0.00000000   -0.00000000   -0.00053111
     atom    4 type  2   force =    -0.00000000    0.00000000   -0.00053111
     The Hubbard contrib.    to forces
     atom    1 type  1   force =     0.00000000    0.00000000    0.00000000
     atom    2 type  1   force =     0.00000000    0.00000000    0.00000000
     atom    3 type  2   force =     0.00000000    0.00000000    0.00000000
     atom    4 type  2   force =     0.00000000    0.00000000    0.00000000
     The SCF correction term to forces
     atom    1 type  1   force =     0.00000000   -0.00000000   -0.00000291
     atom    2 type  1   force =    -0.00000000    0.00000000   -0.00000291
     atom    3 type  2   force =     0.00000000   -0.00000000   -0.00002681
     atom    4 type  2   force =    -0.00000000    0.00000000   -0.00002681

     Total force =     0.000722     Total SCF correction =     0.000038

     init_run     :      1.90s CPU      1.97s WALL (       1 calls)
     electrons    :     44.85s CPU     46.16s WALL (       1 calls)
     forces       :      0.59s CPU      0.59s WALL (       1 calls)

     Called by init_run:
     wfcinit      :      0.29s CPU      0.30s WALL (       1 calls)
     wfcinit:atom :      0.01s CPU      0.01s WALL (       7 calls)
     wfcinit:wfcr :      0.25s CPU      0.27s WALL (       7 calls)
     potinit      :      0.35s CPU      0.37s WALL (       1 calls)
     hinit0       :      1.17s CPU      1.18s WALL (       1 calls)

     Called by electrons:
     c_bands      :     30.24s CPU     31.16s WALL (      48 calls)
     sum_band     :      7.89s CPU      8.16s WALL (      48 calls)
     v_of_rho     :      3.27s CPU      3.36s WALL (      49 calls)
     v_h          :      0.16s CPU      0.16s WALL (      49 calls)
     v_xc         :      3.18s CPU      3.26s WALL (      50 calls)
     newd         :      2.78s CPU      2.82s WALL (      49 calls)
     mix_rho      :      0.49s CPU      0.50s WALL (      48 calls)

     Called by c_bands:
     init_us_2    :      0.63s CPU      0.64s WALL (     686 calls)
     init_us_2:cp :      0.63s CPU      0.64s WALL (     686 calls)
     cegterg      :     26.73s CPU     27.63s WALL (     336 calls)

     Called by sum_band:
     sum_band:wei :      0.00s CPU      0.00s WALL (      48 calls)
     sum_band:loo :      4.23s CPU      4.37s WALL (      48 calls)
     sum_band:buf :      0.03s CPU      0.03s WALL (     336 calls)
     sum_band:ini :      0.31s CPU      0.31s WALL (     336 calls)
     sum_band:cal :      0.45s CPU      0.46s WALL (     336 calls)
     sum_band:bec :      0.01s CPU      0.01s WALL (     336 calls)
     addusdens    :      3.05s CPU      3.12s WALL (      48 calls)
     addusd:skk   :      0.01s CPU      0.01s WALL (      96 calls)
     addusd:dgemm :      0.61s CPU      0.64s WALL (      96 calls)
     addusd:qvan2 :      2.10s CPU      2.11s WALL (      96 calls)

     Called by *egterg:
     cdiaghg      :      1.30s CPU      1.30s WALL (    1520 calls)
     cegterg:over :      1.51s CPU      1.52s WALL (    1184 calls)
     cegterg:upda :      0.67s CPU      0.67s WALL (    1184 calls)
     cegterg:last :      1.09s CPU      1.09s WALL (     738 calls)
     h_psi        :     20.66s CPU     21.55s WALL (    1527 calls)
     s_psi        :      0.96s CPU      0.97s WALL (    1527 calls)
     g_psi        :      0.15s CPU      0.15s WALL (    1184 calls)

     Called by h_psi:
     h_psi:calbec :      1.43s CPU      1.48s WALL (    1527 calls)
     vloc_psi     :     18.15s CPU     18.97s WALL (    1527 calls)
     add_vuspsi   :      1.01s CPU      1.02s WALL (    1527 calls)

     General routines
     calbec       :      1.91s CPU      1.96s WALL (    1891 calls)
     fft          :      1.67s CPU      1.77s WALL (     646 calls)
     ffts         :      0.18s CPU      0.18s WALL (      97 calls)
     fftw         :     19.55s CPU     20.43s WALL (   39288 calls)
     interpolate  :      0.28s CPU      0.28s WALL (      49 calls)

     Parallel routines

     PWSCF        :     47.70s CPU     49.08s WALL


   This run was terminated on:  10:46: 4  26Aug2025            

=------------------------------------------------------------------------------=
   JOB DONE.
=------------------------------------------------------------------------------=
