
     Program PWSCF v.7.0 starts on 26Aug2025 at 10:50: 9 

     This program is part of the open-source Quantum ESPRESSO suite
     for quantum simulation of materials; please cite
         "P. Giannozzi et al., J. Phys.:Condens. Matter 21 395502 (2009);
         "P. Giannozzi et al., J. Phys.:Condens. Matter 29 465901 (2017);
         "P. Giannozzi et al., J. Chem. Phys. 152 154105 (2020);
          URL http://www.quantum-espresso.org", 
     in publications or presentations arising from this work. More details at
     http://www.quantum-espresso.org/quote

     Parallel version (MPI & OpenMP), running on       8 processor cores
     Number of MPI processes:                 8
     Threads/MPI process:                     1

     MPI processes distributed on     1 nodes
     K-points division:     npool     =       4
     R & G space division:  proc/nbgrp/npool/nimage =       2
     111622 MiB available memory on the printing compute node when the environment starts

     Reading input from /home/jvc/QEspresso7.2/ZnO_database/scripts/cell111.in/ZnO-3.53-1.49-111.in
Warning: card &CELL ignored
Warning: card / ignored
Warning: card &FCP ignored
Warning: card / ignored
Warning: card &RISM ignored
Warning: card / ignored

     Current dimensions of program PWSCF are:
     Max number of different atomic species (ntypx) = 10
     Max number of k-points (npk) =  40000
     Max angular momentum in pseudopotentials (lmaxx) =  4
     file Zn.upf: wavefunction(s)  3D renormalized
     Message from routine setup:
     using ibrav=0 with symmetry is DISCOURAGED, use correct ibrav instead

     Subspace diagonalization in iterative solution of the eigenvalue problem:
     a serial algorithm will be used


     Parallelization info
     --------------------
     sticks:   dense  smooth     PW     G-vecs:    dense   smooth      PW
     Min         618     303     93                25794     9094    1507
     Max         619     310     94                25797     9095    1512
     Sum        1237     613    187                51591    18189    3019

     Using Slab Decomposition



     bravais-lattice index     =            0
     lattice parameter (alat)  =       6.6732  a.u.
     unit-cell volume          =     382.2201 (a.u.)^3
     number of atoms/cell      =            4
     number of atomic types    =            2
     number of electrons       =        36.00
     number of Kohn-Sham states=           18
     kinetic-energy cutoff     =      50.0000  Ry
     charge density cutoff     =     400.0000  Ry
     scf convergence threshold =      1.0E-08
     mixing beta               =       0.3000
     number of iterations used =            8  plain     mixing
     Exchange-correlation= PBE
                           (   1   4   3   4   0   0   0)

     celldm(1)=   6.673162  celldm(2)=   0.000000  celldm(3)=   0.000000
     celldm(4)=   0.000000  celldm(5)=   0.000000  celldm(6)=   0.000000

     crystal axes: (cart. coord. in units of alat)
               a(1) = (   1.000000   0.000000   0.000000 )  
               a(2) = (  -0.500000   0.866025   0.000000 )  
               a(3) = (   0.000000   0.000000   1.485210 )  

     reciprocal axes: (cart. coord. in units 2 pi/alat)
               b(1) = (  1.000000  0.577350 -0.000000 )  
               b(2) = (  0.000000  1.154701  0.000000 )  
               b(3) = (  0.000000 -0.000000  0.673306 )  


     PseudoPot. # 1 for Zn read from file:
     /home/jvc/QEspresso7.2/ZnO_database/pseudos/Zn.upf
     MD5 check sum: 7f56cabf9682ed8c977c2f7d0c5985c5
     Pseudo is Ultrasoft + core correction, Zval = 12.0
     Generated using &quot;atomic&quot; code by A. Dal Corso  v.6.2.2
     Using radial grid of 1201 points,  6 beta functions with: 
                l(1) =   0
                l(2) =   0
                l(3) =   1
                l(4) =   1
                l(5) =   2
                l(6) =   2
     Q(r) pseudized with 0 coefficients 


     PseudoPot. # 2 for O  read from file:
     /home/jvc/QEspresso7.2/ZnO_database/pseudos/O.upf
     MD5 check sum: 91400c9766925bcf19f520983a725ff0
     Pseudo is Ultrasoft + core correction, Zval =  6.0
     Generated using &quot;atomic&quot; code by A. Dal Corso  v.6.3MaX
     Using radial grid of 1095 points,  4 beta functions with: 
                l(1) =   0
                l(2) =   0
                l(3) =   1
                l(4) =   1
     Q(r) pseudized with 0 coefficients 


     atomic species   valence    mass     pseudopotential
        Zn            12.00    65.38000     Zn( 1.00)
        O              6.00    15.99900     O ( 1.00)

     12 Sym. Ops. (no inversion) found ( 6 have fractional translation)


                                    s                        frac. trans.

      isym =  1     identity                                     

 cryst.   s( 1) = (     1          0          0      )
                  (     0          1          0      )
                  (     0          0          1      )

 cart.    s( 1) = (  1.0000000  0.0000000  0.0000000 )
                  (  0.0000000  1.0000000  0.0000000 )
                  (  0.0000000  0.0000000  1.0000000 )


      isym =  2     180 deg rotation - cart. axis [0,0,1]        

 cryst.   s( 2) = (    -1          0          0      )    f =(  0.0000000 )
                  (     0         -1          0      )       (  0.0000000 )
                  (     0          0          1      )       (  0.5000000 )

 cart.    s( 2) = ( -1.0000000  0.0000000  0.0000000 )    f =(  0.0000000 )
                  (  0.0000000 -1.0000000  0.0000000 )       (  0.0000000 )
                  (  0.0000000  0.0000000  1.0000000 )       (  0.7426048 )


      isym =  3      60 deg rotation - cryst. axis [0,0,1]       

 cryst.   s( 3) = (     1          1          0      )    f =( -0.0000000 )
                  (    -1          0          0      )       (  0.0000000 )
                  (     0          0          1      )       (  0.5000000 )

 cart.    s( 3) = (  0.5000000 -0.8660254  0.0000000 )    f =( -0.0000000 )
                  (  0.8660254  0.5000000  0.0000000 )       (  0.0000000 )
                  (  0.0000000  0.0000000  1.0000000 )       (  0.7426048 )


      isym =  4      60 deg rotation - cryst. axis [0,0,-1]      

 cryst.   s( 4) = (     0         -1          0      )    f =(  0.0000000 )
                  (     1          1          0      )       (  0.0000000 )
                  (     0          0          1      )       (  0.5000000 )

 cart.    s( 4) = (  0.5000000  0.8660254  0.0000000 )    f =( -0.0000000 )
                  ( -0.8660254  0.5000000  0.0000000 )       (  0.0000000 )
                  (  0.0000000  0.0000000  1.0000000 )       (  0.7426048 )


      isym =  5     120 deg rotation - cryst. axis [0,0,1]       

 cryst.   s( 5) = (     0          1          0      )
                  (    -1         -1          0      )
                  (     0          0          1      )

 cart.    s( 5) = ( -0.5000000 -0.8660254  0.0000000 )
                  (  0.8660254 -0.5000000  0.0000000 )
                  (  0.0000000  0.0000000  1.0000000 )


      isym =  6     120 deg rotation - cryst. axis [0,0,-1]      

 cryst.   s( 6) = (    -1         -1          0      )
                  (     1          0          0      )
                  (     0          0          1      )

 cart.    s( 6) = ( -0.5000000  0.8660254  0.0000000 )
                  ( -0.8660254 -0.5000000  0.0000000 )
                  (  0.0000000  0.0000000  1.0000000 )


      isym =  7     inv. 180 deg rotation - cart. axis [0,1,0]   

 cryst.   s( 7) = (     1          0          0      )    f =( -0.0000000 )
                  (    -1         -1          0      )       (  0.0000000 )
                  (     0          0          1      )       (  0.5000000 )

 cart.    s( 7) = (  1.0000000  0.0000000  0.0000000 )    f =( -0.0000000 )
                  (  0.0000000 -1.0000000  0.0000000 )       (  0.0000000 )
                  (  0.0000000  0.0000000  1.0000000 )       (  0.7426048 )


      isym =  8     inv. 180 deg rotation - cart. axis [1,0,0]   

 cryst.   s( 8) = (    -1          0          0      )
                  (     1          1          0      )
                  (     0          0          1      )

 cart.    s( 8) = ( -1.0000000  0.0000000  0.0000000 )
                  (  0.0000000  1.0000000  0.0000000 )
                  (  0.0000000  0.0000000  1.0000000 )


      isym =  9     inv. 180 deg rotation - cryst. axis [1,-1,0] 

 cryst.   s( 9) = (     0          1          0      )    f =(  0.0000000 )
                  (     1          0          0      )       (  0.0000000 )
                  (     0          0          1      )       (  0.5000000 )

 cart.    s( 9) = ( -0.5000000  0.8660254  0.0000000 )    f =(  0.0000000 )
                  (  0.8660254  0.5000000  0.0000000 )       (  0.0000000 )
                  (  0.0000000  0.0000000  1.0000000 )       (  0.7426048 )


      isym = 10     inv. 180 deg rotation - cryst. axis [2,1,0]  

 cryst.   s(10) = (    -1         -1          0      )    f =(  0.0000000 )
                  (     0          1          0      )       (  0.0000000 )
                  (     0          0          1      )       (  0.5000000 )

 cart.    s(10) = ( -0.5000000 -0.8660254  0.0000000 )    f =( -0.0000000 )
                  ( -0.8660254  0.5000000  0.0000000 )       (  0.0000000 )
                  (  0.0000000  0.0000000  1.0000000 )       (  0.7426048 )


      isym = 11     inv. 180 deg rotation - cryst. axis [0,1,0]  

 cryst.   s(11) = (     1          1          0      )
                  (     0         -1          0      )
                  (     0          0          1      )

 cart.    s(11) = (  0.5000000  0.8660254  0.0000000 )
                  (  0.8660254 -0.5000000  0.0000000 )
                  (  0.0000000  0.0000000  1.0000000 )


      isym = 12     inv. 180 deg rotation - cryst. axis [1,1,0]  

 cryst.   s(12) = (     0         -1          0      )
                  (    -1          0          0      )
                  (     0          0          1      )

 cart.    s(12) = (  0.5000000 -0.8660254  0.0000000 )
                  ( -0.8660254 -0.5000000  0.0000000 )
                  (  0.0000000  0.0000000  1.0000000 )


   Cartesian axes

     site n.     atom                  positions (alat units)
         1           Zn  tau(   1) = (   0.5000000   0.2886751   0.7435459  )
         2           Zn  tau(   2) = (  -0.0000000   0.5773503   0.0009410  )
         3           O   tau(   3) = (   0.5000000   0.2886751   1.3065039  )
         4           O   tau(   4) = (  -0.0000000   0.5773503   0.5638991  )

   Crystallographic axes

     site n.     atom                  positions (cryst. coord.)
         1           Zn  tau(   1) = (  0.6666667  0.3333333  0.5006336  )
         2           Zn  tau(   2) = (  0.3333333  0.6666667  0.0006336  )
         3           O   tau(   3) = (  0.6666667  0.3333333  0.8796764  )
         4           O   tau(   4) = (  0.3333333  0.6666667  0.3796764  )

     number of k points=    28
                       cart. coord. in units 2pi/alat
        k(    1) = (   0.0000000   0.0000000   0.0000000), wk =   0.0092593
        k(    2) = (   0.0000000   0.0000000   0.1122176), wk =   0.0185185
        k(    3) = (   0.0000000   0.0000000   0.2244352), wk =   0.0185185
        k(    4) = (   0.0000000   0.0000000  -0.3366528), wk =   0.0092593
        k(    5) = (   0.0000000   0.1924501   0.0000000), wk =   0.0555556
        k(    6) = (   0.0000000   0.1924501   0.1122176), wk =   0.1111111
        k(    7) = (   0.0000000   0.1924501   0.2244352), wk =   0.1111111
        k(    8) = (   0.0000000   0.1924501  -0.3366528), wk =   0.0555556
        k(    9) = (   0.0000000   0.3849002   0.0000000), wk =   0.0555556
        k(   10) = (   0.0000000   0.3849002   0.1122176), wk =   0.1111111
        k(   11) = (   0.0000000   0.3849002   0.2244352), wk =   0.1111111
        k(   12) = (   0.0000000   0.3849002  -0.3366528), wk =   0.0555556
        k(   13) = (   0.0000000  -0.5773503   0.0000000), wk =   0.0277778
        k(   14) = (   0.0000000  -0.5773503   0.1122176), wk =   0.0555556
        k(   15) = (   0.0000000  -0.5773503   0.2244352), wk =   0.0555556
        k(   16) = (   0.0000000  -0.5773503  -0.3366528), wk =   0.0277778
        k(   17) = (   0.1666667   0.2886751   0.0000000), wk =   0.0555556
        k(   18) = (   0.1666667   0.2886751   0.1122176), wk =   0.1111111
        k(   19) = (   0.1666667   0.2886751   0.2244352), wk =   0.1111111
        k(   20) = (   0.1666667   0.2886751  -0.3366528), wk =   0.0555556
        k(   21) = (   0.1666667   0.4811252   0.0000000), wk =   0.1111111
        k(   22) = (   0.1666667   0.4811252   0.1122176), wk =   0.2222222
        k(   23) = (   0.1666667   0.4811252   0.2244352), wk =   0.2222222
        k(   24) = (   0.1666667   0.4811252  -0.3366528), wk =   0.1111111
        k(   25) = (   0.3333333   0.5773503   0.0000000), wk =   0.0185185
        k(   26) = (   0.3333333   0.5773503   0.1122176), wk =   0.0370370
        k(   27) = (   0.3333333   0.5773503   0.2244352), wk =   0.0370370
        k(   28) = (   0.3333333   0.5773503  -0.3366528), wk =   0.0185185

                       cryst. coord.
        k(    1) = (   0.0000000   0.0000000   0.0000000), wk =   0.0092593
        k(    2) = (   0.0000000   0.0000000   0.1666667), wk =   0.0185185
        k(    3) = (   0.0000000   0.0000000   0.3333333), wk =   0.0185185
        k(    4) = (   0.0000000   0.0000000  -0.5000000), wk =   0.0092593
        k(    5) = (   0.0000000   0.1666667   0.0000000), wk =   0.0555556
        k(    6) = (   0.0000000   0.1666667   0.1666667), wk =   0.1111111
        k(    7) = (   0.0000000   0.1666667   0.3333333), wk =   0.1111111
        k(    8) = (   0.0000000   0.1666667  -0.5000000), wk =   0.0555556
        k(    9) = (   0.0000000   0.3333333   0.0000000), wk =   0.0555556
        k(   10) = (   0.0000000   0.3333333   0.1666667), wk =   0.1111111
        k(   11) = (   0.0000000   0.3333333   0.3333333), wk =   0.1111111
        k(   12) = (   0.0000000   0.3333333  -0.5000000), wk =   0.0555556
        k(   13) = (   0.0000000  -0.5000000   0.0000000), wk =   0.0277778
        k(   14) = (   0.0000000  -0.5000000   0.1666667), wk =   0.0555556
        k(   15) = (   0.0000000  -0.5000000   0.3333333), wk =   0.0555556
        k(   16) = (   0.0000000  -0.5000000  -0.5000000), wk =   0.0277778
        k(   17) = (   0.1666667   0.1666667   0.0000000), wk =   0.0555556
        k(   18) = (   0.1666667   0.1666667   0.1666667), wk =   0.1111111
        k(   19) = (   0.1666667   0.1666667   0.3333333), wk =   0.1111111
        k(   20) = (   0.1666667   0.1666667  -0.5000000), wk =   0.0555556
        k(   21) = (   0.1666667   0.3333333   0.0000000), wk =   0.1111111
        k(   22) = (   0.1666667   0.3333333   0.1666667), wk =   0.2222222
        k(   23) = (   0.1666667   0.3333333   0.3333333), wk =   0.2222222
        k(   24) = (   0.1666667   0.3333333  -0.5000000), wk =   0.1111111
        k(   25) = (   0.3333333   0.3333333   0.0000000), wk =   0.0185185
        k(   26) = (   0.3333333   0.3333333   0.1666667), wk =   0.0370370
        k(   27) = (   0.3333333   0.3333333   0.3333333), wk =   0.0370370
        k(   28) = (   0.3333333   0.3333333  -0.5000000), wk =   0.0185185

     Dense  grid:    51591 G-vectors     FFT dimensions: (  45,  45,  64)

     Smooth grid:    18189 G-vectors     FFT dimensions: (  32,  32,  48)

     Dynamical RAM for                 wfc:       0.31 MB

     Dynamical RAM for     wfc (w. buffer):       2.51 MB

     Dynamical RAM for           str. fact:       0.79 MB

     Dynamical RAM for           local pot:       0.00 MB

     Dynamical RAM for          nlocal pot:       0.91 MB

     Dynamical RAM for                qrad:       3.21 MB

     Dynamical RAM for          rho,v,vnew:       2.66 MB

     Dynamical RAM for               rhoin:       0.89 MB

     Dynamical RAM for            rho*nmix:       6.30 MB

     Dynamical RAM for           G-vectors:       1.55 MB

     Dynamical RAM for          h,s,v(r/c):       0.06 MB

     Dynamical RAM for          <psi|beta>:       0.01 MB

     Dynamical RAM for                 psi:       0.63 MB

     Dynamical RAM for                hpsi:       0.63 MB

     Dynamical RAM for                spsi:       0.63 MB

     Dynamical RAM for      wfcinit/wfcrot:       0.92 MB

     Dynamical RAM for           addusdens:      18.79 MB

     Dynamical RAM for          addusforce:      18.90 MB

     Estimated static dynamical RAM per process >      16.16 MB

     Estimated max dynamical RAM per process >      41.36 MB

     Estimated total dynamical RAM >     293.06 MB

     Check: negative core charge=   -0.000002

     Initial potential from superposition of free atoms

     starting charge      35.9925, renormalised to      36.0000
     Starting wfcs are   26 randomized atomic wfcs

     total cpu time spent up to now is        2.3 secs

     per-process dynamical memory:    29.2 Mb

     Self-consistent Calculation

     iteration #  1     ecut=    50.00 Ry     beta= 0.30
     Davidson diagonalization with overlap

---- Real-time Memory Report at c_bands before calling an iterative solver
            69 MiB given to the printing process from OS
            28 MiB allocation reported by mallinfo(arena+hblkhd)
        111252 MiB available memory on the node where the printing process lives
------------------
     ethr =  1.00E-02,  avg # of iterations =  1.5

     total cpu time spent up to now is        2.9 secs

     total energy              =    -361.42288727 Ry
     estimated scf accuracy    <       0.76591125 Ry

     iteration #  2     ecut=    50.00 Ry     beta= 0.30
     Davidson diagonalization with overlap

---- Real-time Memory Report at c_bands before calling an iterative solver
            76 MiB given to the printing process from OS
            46 MiB allocation reported by mallinfo(arena+hblkhd)
        111252 MiB available memory on the node where the printing process lives
------------------
     ethr =  2.13E-03,  avg # of iterations =  2.2

     total cpu time spent up to now is        3.7 secs

     total energy              =    -361.54365082 Ry
     estimated scf accuracy    <       0.08492513 Ry

     iteration #  3     ecut=    50.00 Ry     beta= 0.30
     Davidson diagonalization with overlap

---- Real-time Memory Report at c_bands before calling an iterative solver
            77 MiB given to the printing process from OS
            46 MiB allocation reported by mallinfo(arena+hblkhd)
        111252 MiB available memory on the node where the printing process lives
------------------
     ethr =  2.36E-04,  avg # of iterations =  6.1

     total cpu time spent up to now is        4.9 secs

     total energy              =    -361.55983890 Ry
     estimated scf accuracy    <       0.08892535 Ry

     iteration #  4     ecut=    50.00 Ry     beta= 0.30
     Davidson diagonalization with overlap

---- Real-time Memory Report at c_bands before calling an iterative solver
            77 MiB given to the printing process from OS
            46 MiB allocation reported by mallinfo(arena+hblkhd)
        111253 MiB available memory on the node where the printing process lives
------------------
     ethr =  2.36E-04,  avg # of iterations =  8.6

     total cpu time spent up to now is        6.5 secs

     total energy              =    -361.62676817 Ry
     estimated scf accuracy    <       0.35939444 Ry

     iteration #  5     ecut=    50.00 Ry     beta= 0.30
     Davidson diagonalization with overlap

---- Real-time Memory Report at c_bands before calling an iterative solver
            77 MiB given to the printing process from OS
            47 MiB allocation reported by mallinfo(arena+hblkhd)
        111253 MiB available memory on the node where the printing process lives
------------------
     ethr =  2.36E-04,  avg # of iterations =  1.9

     total cpu time spent up to now is        7.2 secs

     total energy              =    -361.49715404 Ry
     estimated scf accuracy    <       0.22445213 Ry

     iteration #  6     ecut=    50.00 Ry     beta= 0.30
     Davidson diagonalization with overlap

---- Real-time Memory Report at c_bands before calling an iterative solver
            78 MiB given to the printing process from OS
            47 MiB allocation reported by mallinfo(arena+hblkhd)
        111253 MiB available memory on the node where the printing process lives
------------------
     ethr =  2.36E-04,  avg # of iterations =  6.5

     total cpu time spent up to now is        8.4 secs

     total energy              =    -361.60912061 Ry
     estimated scf accuracy    <       0.12377737 Ry

     iteration #  7     ecut=    50.00 Ry     beta= 0.30
     Davidson diagonalization with overlap

---- Real-time Memory Report at c_bands before calling an iterative solver
            78 MiB given to the printing process from OS
            47 MiB allocation reported by mallinfo(arena+hblkhd)
        111253 MiB available memory on the node where the printing process lives
------------------
     ethr =  2.36E-04,  avg # of iterations =  1.0

     total cpu time spent up to now is        9.0 secs

     total energy              =    -361.60436310 Ry
     estimated scf accuracy    <       0.06799592 Ry

     iteration #  8     ecut=    50.00 Ry     beta= 0.30
     Davidson diagonalization with overlap

---- Real-time Memory Report at c_bands before calling an iterative solver
            78 MiB given to the printing process from OS
            48 MiB allocation reported by mallinfo(arena+hblkhd)
        111253 MiB available memory on the node where the printing process lives
------------------
     ethr =  1.89E-04,  avg # of iterations =  2.0

     total cpu time spent up to now is        9.7 secs

     total energy              =    -361.60712016 Ry
     estimated scf accuracy    <       0.03656014 Ry

     iteration #  9     ecut=    50.00 Ry     beta= 0.30
     Davidson diagonalization with overlap

---- Real-time Memory Report at c_bands before calling an iterative solver
            79 MiB given to the printing process from OS
            48 MiB allocation reported by mallinfo(arena+hblkhd)
        111253 MiB available memory on the node where the printing process lives
------------------
     ethr =  1.02E-04,  avg # of iterations =  1.1

     total cpu time spent up to now is       10.4 secs

     total energy              =    -361.60997320 Ry
     estimated scf accuracy    <       0.03206193 Ry

     iteration # 10     ecut=    50.00 Ry     beta= 0.30
     Davidson diagonalization with overlap

---- Real-time Memory Report at c_bands before calling an iterative solver
            79 MiB given to the printing process from OS
            48 MiB allocation reported by mallinfo(arena+hblkhd)
        111254 MiB available memory on the node where the printing process lives
------------------
     ethr =  8.91E-05,  avg # of iterations =  1.0

     total cpu time spent up to now is       11.0 secs

     total energy              =    -361.60839243 Ry
     estimated scf accuracy    <       0.03279903 Ry

     iteration # 11     ecut=    50.00 Ry     beta= 0.30
     Davidson diagonalization with overlap

---- Real-time Memory Report at c_bands before calling an iterative solver
            79 MiB given to the printing process from OS
            48 MiB allocation reported by mallinfo(arena+hblkhd)
        111253 MiB available memory on the node where the printing process lives
------------------
     ethr =  8.91E-05,  avg # of iterations =  1.0

     total cpu time spent up to now is       11.7 secs

     total energy              =    -361.60539170 Ry
     estimated scf accuracy    <       0.02621269 Ry

     iteration # 12     ecut=    50.00 Ry     beta= 0.30
     Davidson diagonalization with overlap

---- Real-time Memory Report at c_bands before calling an iterative solver
            79 MiB given to the printing process from OS
            48 MiB allocation reported by mallinfo(arena+hblkhd)
        111253 MiB available memory on the node where the printing process lives
------------------
     ethr =  7.28E-05,  avg # of iterations =  1.2

     total cpu time spent up to now is       12.4 secs

     total energy              =    -361.60420098 Ry
     estimated scf accuracy    <       0.01566738 Ry

     iteration # 13     ecut=    50.00 Ry     beta= 0.30
     Davidson diagonalization with overlap

---- Real-time Memory Report at c_bands before calling an iterative solver
            79 MiB given to the printing process from OS
            48 MiB allocation reported by mallinfo(arena+hblkhd)
        111253 MiB available memory on the node where the printing process lives
------------------
     ethr =  4.35E-05,  avg # of iterations =  1.6

     total cpu time spent up to now is       13.1 secs

     total energy              =    -361.59867499 Ry
     estimated scf accuracy    <       0.00999097 Ry

     iteration # 14     ecut=    50.00 Ry     beta= 0.30
     Davidson diagonalization with overlap

---- Real-time Memory Report at c_bands before calling an iterative solver
            79 MiB given to the printing process from OS
            48 MiB allocation reported by mallinfo(arena+hblkhd)
        111253 MiB available memory on the node where the printing process lives
------------------
     ethr =  2.78E-05,  avg # of iterations =  6.2

     total cpu time spent up to now is       14.3 secs

     total energy              =    -361.60203053 Ry
     estimated scf accuracy    <       0.00808779 Ry

     iteration # 15     ecut=    50.00 Ry     beta= 0.30
     Davidson diagonalization with overlap

---- Real-time Memory Report at c_bands before calling an iterative solver
            79 MiB given to the printing process from OS
            48 MiB allocation reported by mallinfo(arena+hblkhd)
        111253 MiB available memory on the node where the printing process lives
------------------
     ethr =  2.25E-05,  avg # of iterations =  4.6

     total cpu time spent up to now is       15.2 secs

     total energy              =    -361.60466775 Ry
     estimated scf accuracy    <       0.00090124 Ry

     iteration # 16     ecut=    50.00 Ry     beta= 0.30
     Davidson diagonalization with overlap

---- Real-time Memory Report at c_bands before calling an iterative solver
            79 MiB given to the printing process from OS
            48 MiB allocation reported by mallinfo(arena+hblkhd)
        111253 MiB available memory on the node where the printing process lives
------------------
     ethr =  2.50E-06,  avg # of iterations =  5.4

     total cpu time spent up to now is       16.1 secs

     total energy              =    -361.60511438 Ry
     estimated scf accuracy    <       0.00168235 Ry

     iteration # 17     ecut=    50.00 Ry     beta= 0.30
     Davidson diagonalization with overlap

---- Real-time Memory Report at c_bands before calling an iterative solver
            79 MiB given to the printing process from OS
            48 MiB allocation reported by mallinfo(arena+hblkhd)
        111253 MiB available memory on the node where the printing process lives
------------------
     ethr =  2.50E-06,  avg # of iterations =  1.2

     total cpu time spent up to now is       16.8 secs

     total energy              =    -361.60531756 Ry
     estimated scf accuracy    <       0.00199250 Ry

     iteration # 18     ecut=    50.00 Ry     beta= 0.30
     Davidson diagonalization with overlap

---- Real-time Memory Report at c_bands before calling an iterative solver
            79 MiB given to the printing process from OS
            48 MiB allocation reported by mallinfo(arena+hblkhd)
        111253 MiB available memory on the node where the printing process lives
------------------
     ethr =  2.50E-06,  avg # of iterations =  1.4

     total cpu time spent up to now is       17.5 secs

     total energy              =    -361.60457543 Ry
     estimated scf accuracy    <       0.00273713 Ry

     iteration # 19     ecut=    50.00 Ry     beta= 0.30
     Davidson diagonalization with overlap

---- Real-time Memory Report at c_bands before calling an iterative solver
            79 MiB given to the printing process from OS
            48 MiB allocation reported by mallinfo(arena+hblkhd)
        111253 MiB available memory on the node where the printing process lives
------------------
     ethr =  2.50E-06,  avg # of iterations =  2.0

     total cpu time spent up to now is       18.2 secs

     total energy              =    -361.60383456 Ry
     estimated scf accuracy    <       0.00111617 Ry

     iteration # 20     ecut=    50.00 Ry     beta= 0.30
     Davidson diagonalization with overlap

---- Real-time Memory Report at c_bands before calling an iterative solver
            79 MiB given to the printing process from OS
            48 MiB allocation reported by mallinfo(arena+hblkhd)
        111253 MiB available memory on the node where the printing process lives
------------------
     ethr =  2.50E-06,  avg # of iterations =  7.4

     total cpu time spent up to now is       19.6 secs

     total energy              =    -361.60601921 Ry
     estimated scf accuracy    <       0.00262598 Ry

     iteration # 21     ecut=    50.00 Ry     beta= 0.30
     Davidson diagonalization with overlap

---- Real-time Memory Report at c_bands before calling an iterative solver
            79 MiB given to the printing process from OS
            48 MiB allocation reported by mallinfo(arena+hblkhd)
        111253 MiB available memory on the node where the printing process lives
------------------
     ethr =  2.50E-06,  avg # of iterations =  3.5

     total cpu time spent up to now is       20.5 secs

     total energy              =    -361.60388959 Ry
     estimated scf accuracy    <       0.00466086 Ry

     iteration # 22     ecut=    50.00 Ry     beta= 0.30
     Davidson diagonalization with overlap

---- Real-time Memory Report at c_bands before calling an iterative solver
            79 MiB given to the printing process from OS
            48 MiB allocation reported by mallinfo(arena+hblkhd)
        111253 MiB available memory on the node where the printing process lives
------------------
     ethr =  2.50E-06,  avg # of iterations =  5.2

     total cpu time spent up to now is       21.5 secs

     total energy              =    -361.60464230 Ry
     estimated scf accuracy    <       0.00002008 Ry

     iteration # 23     ecut=    50.00 Ry     beta= 0.30
     Davidson diagonalization with overlap

---- Real-time Memory Report at c_bands before calling an iterative solver
            79 MiB given to the printing process from OS
            48 MiB allocation reported by mallinfo(arena+hblkhd)
        111254 MiB available memory on the node where the printing process lives
------------------
     ethr =  5.58E-08,  avg # of iterations =  9.5

     total cpu time spent up to now is       23.2 secs

     total energy              =    -361.60444742 Ry
     estimated scf accuracy    <       0.00055037 Ry

     iteration # 24     ecut=    50.00 Ry     beta= 0.30
     Davidson diagonalization with overlap

---- Real-time Memory Report at c_bands before calling an iterative solver
            79 MiB given to the printing process from OS
            48 MiB allocation reported by mallinfo(arena+hblkhd)
        111254 MiB available memory on the node where the printing process lives
------------------
     ethr =  5.58E-08,  avg # of iterations = 11.1

     total cpu time spent up to now is       25.0 secs

     total energy              =    -361.60456956 Ry
     estimated scf accuracy    <       0.00001543 Ry

     iteration # 25     ecut=    50.00 Ry     beta= 0.30
     Davidson diagonalization with overlap

---- Real-time Memory Report at c_bands before calling an iterative solver
            79 MiB given to the printing process from OS
            48 MiB allocation reported by mallinfo(arena+hblkhd)
        111254 MiB available memory on the node where the printing process lives
------------------
     ethr =  4.29E-08,  avg # of iterations =  2.4

     total cpu time spent up to now is       25.7 secs

     total energy              =    -361.60456914 Ry
     estimated scf accuracy    <       0.00000316 Ry

     iteration # 26     ecut=    50.00 Ry     beta= 0.30
     Davidson diagonalization with overlap

---- Real-time Memory Report at c_bands before calling an iterative solver
            79 MiB given to the printing process from OS
            48 MiB allocation reported by mallinfo(arena+hblkhd)
        111254 MiB available memory on the node where the printing process lives
------------------
     ethr =  8.77E-09,  avg # of iterations =  7.9

     total cpu time spent up to now is       27.1 secs

     total energy              =    -361.60457336 Ry
     estimated scf accuracy    <       0.00000951 Ry

     iteration # 27     ecut=    50.00 Ry     beta= 0.30
     Davidson diagonalization with overlap

---- Real-time Memory Report at c_bands before calling an iterative solver
            79 MiB given to the printing process from OS
            48 MiB allocation reported by mallinfo(arena+hblkhd)
        111254 MiB available memory on the node where the printing process lives
------------------
     ethr =  8.77E-09,  avg # of iterations =  1.4

     total cpu time spent up to now is       27.8 secs

     total energy              =    -361.60457072 Ry
     estimated scf accuracy    <       0.00000568 Ry

     iteration # 28     ecut=    50.00 Ry     beta= 0.30
     Davidson diagonalization with overlap

---- Real-time Memory Report at c_bands before calling an iterative solver
            79 MiB given to the printing process from OS
            48 MiB allocation reported by mallinfo(arena+hblkhd)
        111254 MiB available memory on the node where the printing process lives
------------------
     ethr =  8.77E-09,  avg # of iterations =  5.8

     total cpu time spent up to now is       28.9 secs

     total energy              =    -361.60457318 Ry
     estimated scf accuracy    <       0.00000090 Ry

     iteration # 29     ecut=    50.00 Ry     beta= 0.30
     Davidson diagonalization with overlap

---- Real-time Memory Report at c_bands before calling an iterative solver
            79 MiB given to the printing process from OS
            48 MiB allocation reported by mallinfo(arena+hblkhd)
        111254 MiB available memory on the node where the printing process lives
------------------
     ethr =  2.50E-09,  avg # of iterations =  1.7

     total cpu time spent up to now is       29.7 secs

     total energy              =    -361.60457308 Ry
     estimated scf accuracy    <       0.00000091 Ry

     iteration # 30     ecut=    50.00 Ry     beta= 0.30
     Davidson diagonalization with overlap

---- Real-time Memory Report at c_bands before calling an iterative solver
            79 MiB given to the printing process from OS
            48 MiB allocation reported by mallinfo(arena+hblkhd)
        111254 MiB available memory on the node where the printing process lives
------------------
     ethr =  2.50E-09,  avg # of iterations =  1.0

     total cpu time spent up to now is       30.3 secs

     total energy              =    -361.60457323 Ry
     estimated scf accuracy    <       0.00000072 Ry

     iteration # 31     ecut=    50.00 Ry     beta= 0.30
     Davidson diagonalization with overlap

---- Real-time Memory Report at c_bands before calling an iterative solver
            79 MiB given to the printing process from OS
            48 MiB allocation reported by mallinfo(arena+hblkhd)
        111254 MiB available memory on the node where the printing process lives
------------------
     ethr =  1.99E-09,  avg # of iterations =  1.2

     total cpu time spent up to now is       31.0 secs

     total energy              =    -361.60457311 Ry
     estimated scf accuracy    <       0.00000105 Ry

     iteration # 32     ecut=    50.00 Ry     beta= 0.30
     Davidson diagonalization with overlap

---- Real-time Memory Report at c_bands before calling an iterative solver
            79 MiB given to the printing process from OS
            48 MiB allocation reported by mallinfo(arena+hblkhd)
        111254 MiB available memory on the node where the printing process lives
------------------
     ethr =  1.99E-09,  avg # of iterations =  1.0

     total cpu time spent up to now is       31.6 secs

     total energy              =    -361.60457287 Ry
     estimated scf accuracy    <       0.00000083 Ry

     iteration # 33     ecut=    50.00 Ry     beta= 0.30
     Davidson diagonalization with overlap

---- Real-time Memory Report at c_bands before calling an iterative solver
            79 MiB given to the printing process from OS
            48 MiB allocation reported by mallinfo(arena+hblkhd)
        111254 MiB available memory on the node where the printing process lives
------------------
     ethr =  1.99E-09,  avg # of iterations =  1.1

     total cpu time spent up to now is       32.3 secs

     total energy              =    -361.60457282 Ry
     estimated scf accuracy    <       0.00000033 Ry

     iteration # 34     ecut=    50.00 Ry     beta= 0.30
     Davidson diagonalization with overlap

---- Real-time Memory Report at c_bands before calling an iterative solver
            79 MiB given to the printing process from OS
            48 MiB allocation reported by mallinfo(arena+hblkhd)
        111254 MiB available memory on the node where the printing process lives
------------------
     ethr =  9.18E-10,  avg # of iterations =  5.0

     total cpu time spent up to now is       33.2 secs

     End of self-consistent calculation

          k = 0.0000 0.0000 0.0000 (  2285 PWs)   bands (ev):

   -11.9773 -11.3939  -0.1361  -0.1147  -0.1147   0.0602   0.0602   0.5586
     0.5586   0.5982   0.7368   0.7368   0.9039   4.0756   4.0756   4.8614
     4.8614   4.9164

     occupation numbers 
     1.0000   1.0000   1.0000   1.0000   1.0000   1.0000   1.0000   1.0000
     1.0000   1.0000   1.0000   1.0000   1.0000   1.0000   1.0000   1.0000
     1.0000   1.0000

          k = 0.0000 0.0000 0.1122 (  2290 PWs)   bands (ev):

   -11.9390 -11.4336  -0.1729  -0.1117  -0.1117   0.0386   0.0386   0.1950
     0.5774   0.5774   0.7328   0.7328   1.4528   4.1311   4.1311   4.3209
     4.8119   4.8119

     occupation numbers 
     1.0000   1.0000   1.0000   1.0000   1.0000   1.0000   1.0000   1.0000
     1.0000   1.0000   1.0000   1.0000   1.0000   1.0000   1.0000   1.0000
     1.0000   1.0000

          k = 0.0000 0.0000 0.2244 (  2278 PWs)   bands (ev):

   -11.8337 -11.5417  -0.2446  -0.1319  -0.0970  -0.0970  -0.0113  -0.0113
     0.6242   0.6242   0.7147   0.7147   2.1856   3.6088   4.2809   4.2809
     4.6742   4.6742

     occupation numbers 
     1.0000   1.0000   1.0000   1.0000   1.0000   1.0000   1.0000   1.0000
     1.0000   1.0000   1.0000   1.0000   1.0000   1.0000   1.0000   1.0000
     1.0000   1.0000

          k = 0.0000 0.0000-0.3367 (  2266 PWs)   bands (ev):

   -11.6884 -11.6884  -0.2618  -0.2618  -0.0626  -0.0626  -0.0626  -0.0626
     0.6765   0.6765   0.6765   0.6765   2.9102   2.9102   4.4806   4.4806
     4.4806   4.4806

     occupation numbers 
     1.0000   1.0000   1.0000   1.0000   1.0000   1.0000   1.0000   1.0000
     1.0000   1.0000   1.0000   1.0000   1.0000   1.0000   1.0000   1.0000
     1.0000   1.0000

          k = 0.0000 0.1925 0.0000 (  2305 PWs)   bands (ev):

   -11.8847 -11.3697  -0.1893  -0.0678  -0.0606   0.0677   0.1429   0.5233
     0.5406   0.5616   0.7479   0.8882   1.0526   3.3448   3.7967   3.8029
     4.7445   4.7602

     occupation numbers 
     1.0000   1.0000   1.0000   1.0000   1.0000   1.0000   1.0000   1.0000
     1.0000   1.0000   1.0000   1.0000   1.0000   1.0000   1.0000   1.0000
     1.0000   1.0000

          k = 0.0000 0.1925 0.1122 (  2299 PWs)   bands (ev):

   -11.8503 -11.4040  -0.2182  -0.0726  -0.0615   0.0319   0.1193   0.2527
     0.5584   0.5790   0.7408   0.7775   1.5642   3.3885   3.6657   3.8698
     4.6849   4.7317

     occupation numbers 
     1.0000   1.0000   1.0000   1.0000   1.0000   1.0000   1.0000   1.0000
     1.0000   1.0000   1.0000   1.0000   1.0000   1.0000   1.0000   1.0000
     1.0000   1.0000

          k = 0.0000 0.1925 0.2244 (  2288 PWs)   bands (ev):

   -11.7560 -11.4980  -0.2808  -0.1644  -0.0468  -0.0391   0.0447   0.0637
     0.6189   0.6228   0.7169   0.7380   2.1972   3.1635   3.7902   4.0496
     4.5197   4.5340

     occupation numbers 
     1.0000   1.0000   1.0000   1.0000   1.0000   1.0000   1.0000   1.0000
     1.0000   1.0000   1.0000   1.0000   1.0000   1.0000   1.0000   1.0000
     1.0000   1.0000

          k = 0.0000 0.1925-0.3367 (  2296 PWs)   bands (ev):

   -11.6269 -11.6269  -0.2887  -0.2887  -0.0213  -0.0213   0.0042   0.0042
     0.6745   0.6745   0.6851   0.6851   2.7327   2.7327   4.1696   4.1696
     4.2882   4.2882

     occupation numbers 
     1.0000   1.0000   1.0000   1.0000   1.0000   1.0000   1.0000   1.0000
     1.0000   1.0000   1.0000   1.0000   1.0000   1.0000   1.0000   1.0000
     1.0000   1.0000

          k = 0.0000 0.3849 0.0000 (  2291 PWs)   bands (ev):

   -11.6749 -11.3405  -0.2244   0.0007   0.0246   0.1749   0.3398   0.4233
     0.5959   0.6177   0.7640   0.8999   1.5152   2.2264   2.8779   3.2619
     4.2908   4.4854

     occupation numbers 
     1.0000   1.0000   1.0000   1.0000   1.0000   1.0000   1.0000   1.0000
     1.0000   1.0000   1.0000   1.0000   1.0000   1.0000   1.0000   1.0000
     1.0000   1.0000

          k = 0.0000 0.3849 0.1122 (  2282 PWs)   bands (ev):

   -11.6510 -11.3611  -0.2558  -0.0310   0.0170   0.1460   0.3096   0.3189
     0.5889   0.6265   0.7516   0.8482   1.6472   2.3602   2.9149   3.3525
     4.3656   4.4089

     occupation numbers 
     1.0000   1.0000   1.0000   1.0000   1.0000   1.0000   1.0000   1.0000
     1.0000   1.0000   1.0000   1.0000   1.0000   1.0000   1.0000   1.0000
     1.0000   1.0000

          k = 0.0000 0.3849 0.2244 (  2287 PWs)   bands (ev):

   -11.5867 -11.4190  -0.3175  -0.1940   0.0653   0.1043   0.1776   0.2329
     0.6481   0.6507   0.7214   0.7882   1.8450   2.2762   3.4018   3.5909
     4.1971   4.3508

     occupation numbers 
     1.0000   1.0000   1.0000   1.0000   1.0000   1.0000   1.0000   1.0000
     1.0000   1.0000   1.0000   1.0000   1.0000   1.0000   1.0000   1.0000
     1.0000   1.0000

          k = 0.0000 0.3849-0.3367 (  2298 PWs)   bands (ev):

   -11.5012 -11.5012  -0.3183  -0.3183   0.1147   0.1147   0.1419   0.1419
     0.6849   0.6849   0.7221   0.7221   2.0583   2.0583   3.9003   3.9003
     4.0020   4.0020

     occupation numbers 
     1.0000   1.0000   1.0000   1.0000   1.0000   1.0000   1.0000   1.0000
     1.0000   1.0000   1.0000   1.0000   1.0000   1.0000   1.0000   1.0000
     1.0000   1.0000

          k = 0.0000-0.5774 0.0000 (  2274 PWs)   bands (ev):

   -11.5380 -11.3551  -0.2079   0.0196   0.1716   0.2800   0.3471   0.4554
     0.6185   0.6819   0.7703   0.8001   1.4830   2.0554   2.5770   2.9774
     3.9098   4.3462

     occupation numbers 
     1.0000   1.0000   1.0000   1.0000   1.0000   1.0000   1.0000   1.0000
     1.0000   1.0000   1.0000   1.0000   1.0000   1.0000   1.0000   1.0000
     1.0000   1.0000

          k = 0.0000-0.5774 0.1122 (  2266 PWs)   bands (ev):

   -11.5234 -11.3648  -0.2429   0.0339   0.0422   0.2638   0.3213   0.4209
     0.6724   0.6842   0.7530   0.8010   1.4400   1.9434   2.8881   3.0831
     4.0523   4.2620

     occupation numbers 
     1.0000   1.0000   1.0000   1.0000   1.0000   1.0000   1.0000   1.0000
     1.0000   1.0000   1.0000   1.0000   1.0000   1.0000   1.0000   1.0000
     1.0000   1.0000

          k = 0.0000-0.5774 0.2244 (  2268 PWs)   bands (ev):

   -11.4852 -11.3934  -0.3111  -0.1925   0.1079   0.2396   0.2725   0.3269
     0.6910   0.7237   0.7417   0.7979   1.4556   1.7402   3.3553   3.4982
     4.0291   4.2049

     occupation numbers 
     1.0000   1.0000   1.0000   1.0000   1.0000   1.0000   1.0000   1.0000
     1.0000   1.0000   1.0000   1.0000   1.0000   1.0000   1.0000   1.0000
     1.0000   1.0000

          k = 0.0000-0.5774-0.3367 (  2272 PWs)   bands (ev):

   -11.4369 -11.4369  -0.3185  -0.3185   0.2095   0.2095   0.2400   0.2400
     0.7031   0.7031   0.7812   0.7812   1.5672   1.5672   3.7012   3.7012
     4.0199   4.0199

     occupation numbers 
     1.0000   1.0000   1.0000   1.0000   1.0000   1.0000   1.0000   1.0000
     1.0000   1.0000   1.0000   1.0000   1.0000   1.0000   1.0000   1.0000
     1.0000   1.0000

          k = 0.1667 0.2887 0.0000 (  2295 PWs)   bands (ev):

   -11.7325 -11.3437  -0.1712  -0.0759   0.0219   0.1163   0.2959   0.5049
     0.5287   0.5946   0.7602   0.8980   1.4222   2.7527   2.7780   3.4049
     4.4369   4.4466

     occupation numbers 
     1.0000   1.0000   1.0000   1.0000   1.0000   1.0000   1.0000   1.0000
     1.0000   1.0000   1.0000   1.0000   1.0000   1.0000   1.0000   1.0000
     1.0000   1.0000

          k = 0.1667 0.2887 0.1122 (  2283 PWs)   bands (ev):

   -11.7054 -11.3683  -0.2070  -0.0843   0.0090   0.0909   0.2661   0.3195
     0.5420   0.6178   0.7502   0.8364   1.6980   2.7129   2.9723   3.4033
     4.3564   4.5008

     occupation numbers 
     1.0000   1.0000   1.0000   1.0000   1.0000   1.0000   1.0000   1.0000
     1.0000   1.0000   1.0000   1.0000   1.0000   1.0000   1.0000   1.0000
     1.0000   1.0000

          k = 0.1667 0.2887 0.2244 (  2283 PWs)   bands (ev):

   -11.6319 -11.4369  -0.2800  -0.1796   0.0064   0.0570   0.1244   0.1942
     0.6203   0.6470   0.7250   0.7788   2.0435   2.5494   3.4883   3.5476
     4.1378   4.4416

     occupation numbers 
     1.0000   1.0000   1.0000   1.0000   1.0000   1.0000   1.0000   1.0000
     1.0000   1.0000   1.0000   1.0000   1.0000   1.0000   1.0000   1.0000
     1.0000   1.0000

          k = 0.1667 0.2887-0.3367 (  2286 PWs)   bands (ev):

   -11.5332 -11.5332  -0.2908  -0.2908   0.0345   0.0345   0.1193   0.1193
     0.6764   0.6764   0.7165   0.7165   2.3143   2.3143   3.8242   3.8242
     4.0809   4.0809

     occupation numbers 
     1.0000   1.0000   1.0000   1.0000   1.0000   1.0000   1.0000   1.0000
     1.0000   1.0000   1.0000   1.0000   1.0000   1.0000   1.0000   1.0000
     1.0000   1.0000

          k = 0.1667 0.4811 0.0000 (  2256 PWs)   bands (ev):

   -11.5422 -11.3521  -0.1475  -0.0114   0.1947   0.2216   0.4349   0.4913
     0.5918   0.6253   0.7750   0.8906   1.5510   2.0541   2.5408   2.8266
     3.9098   4.1023

     occupation numbers 
     1.0000   1.0000   1.0000   1.0000   1.0000   1.0000   1.0000   1.0000
     1.0000   1.0000   1.0000   1.0000   1.0000   1.0000   1.0000   1.0000
     1.0000   1.0000

          k = 0.1667 0.4811 0.1122 (  2276 PWs)   bands (ev):

   -11.5272 -11.3624  -0.1700  -0.0236   0.1019   0.2146   0.3621   0.4420
     0.5956   0.6609   0.7696   0.8829   1.5401   2.0386   2.6163   3.0869
     3.9705   4.0834

     occupation numbers 
     1.0000   1.0000   1.0000   1.0000   1.0000   1.0000   1.0000   1.0000
     1.0000   1.0000   1.0000   1.0000   1.0000   1.0000   1.0000   1.0000
     1.0000   1.0000

          k = 0.1667 0.4811 0.2244 (  2275 PWs)   bands (ev):

   -11.4877 -11.3923  -0.2370  -0.1404   0.0644   0.1921   0.2733   0.3200
     0.6390   0.6747   0.7818   0.8550   1.6039   1.8979   2.9062   3.6144
     3.7290   4.2451

     occupation numbers 
     1.0000   1.0000   1.0000   1.0000   1.0000   1.0000   1.0000   1.0000
     1.0000   1.0000   1.0000   1.0000   1.0000   1.0000   1.0000   1.0000
     1.0000   1.0000

          k = 0.1667 0.4811-0.3367 (  2282 PWs)   bands (ev):

   -11.4376 -11.4376  -0.2525  -0.2525   0.1472   0.1472   0.2396   0.2396
     0.6664   0.6664   0.8164   0.8164   1.7353   1.7353   3.3038   3.3038
     4.1155   4.1155

     occupation numbers 
     1.0000   1.0000   1.0000   1.0000   1.0000   1.0000   1.0000   1.0000
     1.0000   1.0000   1.0000   1.0000   1.0000   1.0000   1.0000   1.0000
     1.0000   1.0000

          k = 0.3333 0.5774 0.0000 (  2250 PWs)   bands (ev):

   -11.4170 -11.4170  -0.1282   0.0987   0.0987   0.4991   0.4991   0.5261
     0.6402   0.6777   0.7906   0.7906   1.6796   1.8592   1.8592   3.3586
     3.3586   3.7554

     occupation numbers 
     1.0000   1.0000   1.0000   1.0000   1.0000   1.0000   1.0000   1.0000
     1.0000   1.0000   1.0000   1.0000   1.0000   1.0000   1.0000   1.0000
     1.0000   1.0000

          k = 0.3333 0.5774 0.1122 (  2271 PWs)   bands (ev):

   -11.4143 -11.4143  -0.1015   0.0360   0.0360   0.4406   0.4406   0.4904
     0.5981   0.6345   0.8373   0.8373   1.7849   1.7849   1.8752   3.5843
     3.5843   3.6264

     occupation numbers 
     1.0000   1.0000   1.0000   1.0000   1.0000   1.0000   1.0000   1.0000
     1.0000   1.0000   1.0000   1.0000   1.0000   1.0000   1.0000   1.0000
     1.0000   1.0000

          k = 0.3333 0.5774 0.2244 (  2280 PWs)   bands (ev):

   -11.4088 -11.4088  -0.0982  -0.0982  -0.0204   0.3059   0.3761   0.3761
     0.5812   0.6192   0.8947   0.8947   1.6891   1.6891   2.3046   3.2793
     3.9837   3.9837

     occupation numbers 
     1.0000   1.0000   1.0000   1.0000   1.0000   1.0000   1.0000   1.0000
     1.0000   1.0000   1.0000   1.0000   1.0000   1.0000   1.0000   1.0000
     1.0000   1.0000

          k = 0.3333 0.5774-0.3367 (  2280 PWs)   bands (ev):

   -11.4061 -11.4061  -0.1656  -0.1656   0.1172   0.1172   0.3554   0.3554
     0.5989   0.5989   0.9151   0.9151   1.6564   1.6564   2.8056   2.8056
     4.1691   4.1691

     occupation numbers 
     1.0000   1.0000   1.0000   1.0000   1.0000   1.0000   1.0000   1.0000
     1.0000   1.0000   1.0000   1.0000   1.0000   1.0000   1.0000   1.0000
     1.0000   1.0000

     highest occupied level (ev):     4.9164

!    total energy              =    -361.60457292 Ry
     estimated scf accuracy    <          5.3E-09 Ry

     The total energy is the sum of the following terms:
     one-electron contribution =    -172.07815305 Ry
     hartree contribution      =     124.75714466 Ry
     xc contribution           =    -109.27774914 Ry
     ewald contribution        =    -205.00581539 Ry

     convergence has been achieved in  34 iterations

     Forces acting on atoms (cartesian axes, Ry/au):

     atom    1 type  1   force =     0.00000000   -0.00000000   -0.01246318
     atom    2 type  1   force =     0.00000000    0.00000000   -0.01246318
     atom    3 type  2   force =     0.00000000    0.00000000    0.01246318
     atom    4 type  2   force =     0.00000000   -0.00000000    0.01246318
     The non-local contrib.  to forces
     atom    1 type  1   force =     0.00000000    0.00000000   -0.23006983
     atom    2 type  1   force =     0.00000000   -0.00000000   -0.23006983
     atom    3 type  2   force =     0.00000000    0.00000000   -0.19798273
     atom    4 type  2   force =     0.00000000    0.00000000   -0.19798273
     The ionic contribution  to forces
     atom    1 type  1   force =    -0.00000000    0.00000000   -1.49894255
     atom    2 type  1   force =     0.00000000   -0.00000000   -1.49894255
     atom    3 type  2   force =    -0.00000000    0.00000000    1.49894255
     atom    4 type  2   force =     0.00000000   -0.00000000    1.49894255
     The local contribution  to forces
     atom    1 type  1   force =    -0.00000002    0.00000001    1.70138489
     atom    2 type  1   force =     0.00000007   -0.00000004    1.70138489
     atom    3 type  2   force =    -0.00000001    0.00000000   -1.29011728
     atom    4 type  2   force =     0.00000002   -0.00000001   -1.29011727
     The core correction contribution to forces
     atom    1 type  1   force =    -0.00000000    0.00000000    0.01512862
     atom    2 type  1   force =     0.00000001   -0.00000001    0.01512862
     atom    3 type  2   force =     0.00000000   -0.00000000    0.00163542
     atom    4 type  2   force =    -0.00000000    0.00000000    0.00163542
     The Hubbard contrib.    to forces
     atom    1 type  1   force =     0.00000000    0.00000000    0.00000000
     atom    2 type  1   force =     0.00000000    0.00000000    0.00000000
     atom    3 type  2   force =     0.00000000    0.00000000    0.00000000
     atom    4 type  2   force =     0.00000000    0.00000000    0.00000000
     The SCF correction term to forces
     atom    1 type  1   force =     0.00000000   -0.00000000    0.00004700
     atom    2 type  1   force =    -0.00000000    0.00000000    0.00004700
     atom    3 type  2   force =    -0.00000000    0.00000000   -0.00000349
     atom    4 type  2   force =     0.00000000   -0.00000000   -0.00000349

     Total force =     0.024926     Total SCF correction =     0.000067

     init_run     :      1.82s CPU      1.88s WALL (       1 calls)
     electrons    :     29.97s CPU     30.94s WALL (       1 calls)
     forces       :      0.55s CPU      0.55s WALL (       1 calls)

     Called by init_run:
     wfcinit      :      0.24s CPU      0.26s WALL (       1 calls)
     wfcinit:atom :      0.00s CPU      0.00s WALL (       7 calls)
     wfcinit:wfcr :      0.21s CPU      0.22s WALL (       7 calls)
     potinit      :      0.38s CPU      0.38s WALL (       1 calls)
     hinit0       :      1.11s CPU      1.13s WALL (       1 calls)

     Called by electrons:
     c_bands      :     20.51s CPU     21.19s WALL (      34 calls)
     sum_band     :      5.11s CPU      5.32s WALL (      34 calls)
     v_of_rho     :      2.07s CPU      2.12s WALL (      35 calls)
     v_h          :      0.10s CPU      0.11s WALL (      35 calls)
     v_xc         :      2.03s CPU      2.07s WALL (      36 calls)
     newd         :      1.89s CPU      1.92s WALL (      35 calls)
     mix_rho      :      0.31s CPU      0.32s WALL (      34 calls)

     Called by c_bands:
     init_us_2    :      0.42s CPU      0.43s WALL (     490 calls)
     init_us_2:cp :      0.42s CPU      0.43s WALL (     490 calls)
     cegterg      :     17.58s CPU     18.25s WALL (     238 calls)

     Called by sum_band:
     sum_band:wei :      0.00s CPU      0.00s WALL (      34 calls)
     sum_band:loo :      2.68s CPU      2.79s WALL (      34 calls)
     sum_band:buf :      0.02s CPU      0.02s WALL (     238 calls)
     sum_band:ini :      0.20s CPU      0.21s WALL (     238 calls)
     sum_band:cal :      0.30s CPU      0.31s WALL (     238 calls)
     sum_band:bec :      0.01s CPU      0.01s WALL (     238 calls)
     addusdens    :      2.08s CPU      2.13s WALL (      34 calls)
     addusd:skk   :      0.01s CPU      0.01s WALL (      68 calls)
     addusd:dgemm :      0.41s CPU      0.44s WALL (      68 calls)
     addusd:qvan2 :      1.42s CPU      1.43s WALL (      68 calls)

     Called by *egterg:
     cdiaghg      :      1.04s CPU      1.04s WALL (    1188 calls)
     cegterg:over :      1.14s CPU      1.16s WALL (     950 calls)
     cegterg:upda :      0.51s CPU      0.51s WALL (     950 calls)
     cegterg:last :      0.84s CPU      0.84s WALL (     577 calls)
     h_psi        :     13.00s CPU     13.64s WALL (    1195 calls)
     s_psi        :      0.70s CPU      0.70s WALL (    1195 calls)
     g_psi        :      0.12s CPU      0.12s WALL (     950 calls)

     Called by h_psi:
     h_psi:calbec :      1.04s CPU      1.07s WALL (    1195 calls)
     vloc_psi     :     11.16s CPU     11.76s WALL (    1195 calls)
     add_vuspsi   :      0.74s CPU      0.75s WALL (    1195 calls)

     General routines
     calbec       :      1.36s CPU      1.41s WALL (    1461 calls)
     fft          :      1.05s CPU      1.12s WALL (     464 calls)
     ffts         :      0.19s CPU      0.19s WALL (      69 calls)
     fftw         :     11.71s CPU     12.34s WALL (   29796 calls)
     interpolate  :      0.24s CPU      0.25s WALL (      35 calls)

     Parallel routines

     PWSCF        :     32.70s CPU     33.75s WALL


   This run was terminated on:  10:50:43  26Aug2025            

=------------------------------------------------------------------------------=
   JOB DONE.
=------------------------------------------------------------------------------=
