
     Program PWSCF v.7.0 starts on 26Aug2025 at 10: 2:27 

     This program is part of the open-source Quantum ESPRESSO suite
     for quantum simulation of materials; please cite
         "P. Giannozzi et al., J. Phys.:Condens. Matter 21 395502 (2009);
         "P. Giannozzi et al., J. Phys.:Condens. Matter 29 465901 (2017);
         "P. Giannozzi et al., J. Chem. Phys. 152 154105 (2020);
          URL http://www.quantum-espresso.org", 
     in publications or presentations arising from this work. More details at
     http://www.quantum-espresso.org/quote

     Parallel version (MPI & OpenMP), running on       8 processor cores
     Number of MPI processes:                 8
     Threads/MPI process:                     1

     MPI processes distributed on     1 nodes
     K-points division:     npool     =       4
     R & G space division:  proc/nbgrp/npool/nimage =       2
     111602 MiB available memory on the printing compute node when the environment starts

     Reading input from /home/jvc/QEspresso7.2/ZnO_database/scripts/cell111.in/ZnO-3.01-1.65-111.in
Warning: card &CELL ignored
Warning: card / ignored
Warning: card &FCP ignored
Warning: card / ignored
Warning: card &RISM ignored
Warning: card / ignored

     Current dimensions of program PWSCF are:
     Max number of different atomic species (ntypx) = 10
     Max number of k-points (npk) =  40000
     Max angular momentum in pseudopotentials (lmaxx) =  4
     file Zn.upf: wavefunction(s)  3D renormalized
     Message from routine setup:
     using ibrav=0 with symmetry is DISCOURAGED, use correct ibrav instead

     Subspace diagonalization in iterative solution of the eigenvalue problem:
     a serial algorithm will be used


     Parallelization info
     --------------------
     sticks:   dense  smooth     PW     G-vecs:    dense   smooth      PW
     Min         444     219     69                17656     6245    1088
     Max         445     220     70                17659     6248    1089
     Sum         889     439    139                35315    12493    2177

     Using Slab Decomposition



     bravais-lattice index     =            0
     lattice parameter (alat)  =       5.6845  a.u.
     unit-cell volume          =     261.9498 (a.u.)^3
     number of atoms/cell      =            4
     number of atomic types    =            2
     number of electrons       =        36.00
     number of Kohn-Sham states=           18
     kinetic-energy cutoff     =      50.0000  Ry
     charge density cutoff     =     400.0000  Ry
     scf convergence threshold =      1.0E-08
     mixing beta               =       0.3000
     number of iterations used =            8  plain     mixing
     Exchange-correlation= PBE
                           (   1   4   3   4   0   0   0)

     celldm(1)=   5.684546  celldm(2)=   0.000000  celldm(3)=   0.000000
     celldm(4)=   0.000000  celldm(5)=   0.000000  celldm(6)=   0.000000

     crystal axes: (cart. coord. in units of alat)
               a(1) = (   1.000000   0.000000   0.000000 )  
               a(2) = (  -0.500000   0.866025   0.000000 )  
               a(3) = (   0.000000   0.000000   1.646646 )  

     reciprocal axes: (cart. coord. in units 2 pi/alat)
               b(1) = (  1.000000  0.577350 -0.000000 )  
               b(2) = (  0.000000  1.154701  0.000000 )  
               b(3) = (  0.000000 -0.000000  0.607295 )  


     PseudoPot. # 1 for Zn read from file:
     /home/jvc/QEspresso7.2/ZnO_database/pseudos/Zn.upf
     MD5 check sum: 7f56cabf9682ed8c977c2f7d0c5985c5
     Pseudo is Ultrasoft + core correction, Zval = 12.0
     Generated using &quot;atomic&quot; code by A. Dal Corso  v.6.2.2
     Using radial grid of 1201 points,  6 beta functions with: 
                l(1) =   0
                l(2) =   0
                l(3) =   1
                l(4) =   1
                l(5) =   2
                l(6) =   2
     Q(r) pseudized with 0 coefficients 


     PseudoPot. # 2 for O  read from file:
     /home/jvc/QEspresso7.2/ZnO_database/pseudos/O.upf
     MD5 check sum: 91400c9766925bcf19f520983a725ff0
     Pseudo is Ultrasoft + core correction, Zval =  6.0
     Generated using &quot;atomic&quot; code by A. Dal Corso  v.6.3MaX
     Using radial grid of 1095 points,  4 beta functions with: 
                l(1) =   0
                l(2) =   0
                l(3) =   1
                l(4) =   1
     Q(r) pseudized with 0 coefficients 


     atomic species   valence    mass     pseudopotential
        Zn            12.00    65.38000     Zn( 1.00)
        O              6.00    15.99900     O ( 1.00)

     12 Sym. Ops. (no inversion) found ( 6 have fractional translation)


                                    s                        frac. trans.

      isym =  1     identity                                     

 cryst.   s( 1) = (     1          0          0      )
                  (     0          1          0      )
                  (     0          0          1      )

 cart.    s( 1) = (  1.0000000  0.0000000  0.0000000 )
                  (  0.0000000  1.0000000  0.0000000 )
                  (  0.0000000  0.0000000  1.0000000 )


      isym =  2     180 deg rotation - cart. axis [0,0,1]        

 cryst.   s( 2) = (    -1          0          0      )    f =(  0.0000000 )
                  (     0         -1          0      )       (  0.0000000 )
                  (     0          0          1      )       (  0.5000000 )

 cart.    s( 2) = ( -1.0000000  0.0000000  0.0000000 )    f =(  0.0000000 )
                  (  0.0000000 -1.0000000  0.0000000 )       (  0.0000000 )
                  (  0.0000000  0.0000000  1.0000000 )       (  0.8233228 )


      isym =  3      60 deg rotation - cryst. axis [0,0,1]       

 cryst.   s( 3) = (     1          1          0      )    f =( -0.0000000 )
                  (    -1          0          0      )       (  0.0000000 )
                  (     0          0          1      )       (  0.5000000 )

 cart.    s( 3) = (  0.5000000 -0.8660254  0.0000000 )    f =( -0.0000000 )
                  (  0.8660254  0.5000000  0.0000000 )       (  0.0000000 )
                  (  0.0000000  0.0000000  1.0000000 )       (  0.8233228 )


      isym =  4      60 deg rotation - cryst. axis [0,0,-1]      

 cryst.   s( 4) = (     0         -1          0      )    f =(  0.0000000 )
                  (     1          1          0      )       (  0.0000000 )
                  (     0          0          1      )       (  0.5000000 )

 cart.    s( 4) = (  0.5000000  0.8660254  0.0000000 )    f =( -0.0000000 )
                  ( -0.8660254  0.5000000  0.0000000 )       (  0.0000000 )
                  (  0.0000000  0.0000000  1.0000000 )       (  0.8233228 )


      isym =  5     120 deg rotation - cryst. axis [0,0,1]       

 cryst.   s( 5) = (     0          1          0      )
                  (    -1         -1          0      )
                  (     0          0          1      )

 cart.    s( 5) = ( -0.5000000 -0.8660254  0.0000000 )
                  (  0.8660254 -0.5000000  0.0000000 )
                  (  0.0000000  0.0000000  1.0000000 )


      isym =  6     120 deg rotation - cryst. axis [0,0,-1]      

 cryst.   s( 6) = (    -1         -1          0      )
                  (     1          0          0      )
                  (     0          0          1      )

 cart.    s( 6) = ( -0.5000000  0.8660254  0.0000000 )
                  ( -0.8660254 -0.5000000  0.0000000 )
                  (  0.0000000  0.0000000  1.0000000 )


      isym =  7     inv. 180 deg rotation - cart. axis [0,1,0]   

 cryst.   s( 7) = (     1          0          0      )    f =( -0.0000000 )
                  (    -1         -1          0      )       (  0.0000000 )
                  (     0          0          1      )       (  0.5000000 )

 cart.    s( 7) = (  1.0000000  0.0000000  0.0000000 )    f =( -0.0000000 )
                  (  0.0000000 -1.0000000  0.0000000 )       (  0.0000000 )
                  (  0.0000000  0.0000000  1.0000000 )       (  0.8233228 )


      isym =  8     inv. 180 deg rotation - cart. axis [1,0,0]   

 cryst.   s( 8) = (    -1          0          0      )
                  (     1          1          0      )
                  (     0          0          1      )

 cart.    s( 8) = ( -1.0000000 -0.0000000  0.0000000 )
                  (  0.0000000  1.0000000  0.0000000 )
                  (  0.0000000  0.0000000  1.0000000 )


      isym =  9     inv. 180 deg rotation - cryst. axis [1,-1,0] 

 cryst.   s( 9) = (     0          1          0      )    f =(  0.0000000 )
                  (     1          0          0      )       (  0.0000000 )
                  (     0          0          1      )       (  0.5000000 )

 cart.    s( 9) = ( -0.5000000  0.8660254  0.0000000 )    f =(  0.0000000 )
                  (  0.8660254  0.5000000  0.0000000 )       (  0.0000000 )
                  (  0.0000000  0.0000000  1.0000000 )       (  0.8233228 )


      isym = 10     inv. 180 deg rotation - cryst. axis [2,1,0]  

 cryst.   s(10) = (    -1         -1          0      )    f =(  0.0000000 )
                  (     0          1          0      )       (  0.0000000 )
                  (     0          0          1      )       (  0.5000000 )

 cart.    s(10) = ( -0.5000000 -0.8660254  0.0000000 )    f =( -0.0000000 )
                  ( -0.8660254  0.5000000  0.0000000 )       (  0.0000000 )
                  (  0.0000000  0.0000000  1.0000000 )       (  0.8233228 )


      isym = 11     inv. 180 deg rotation - cryst. axis [0,1,0]  

 cryst.   s(11) = (     1          1          0      )
                  (     0         -1          0      )
                  (     0          0          1      )

 cart.    s(11) = (  0.5000000  0.8660254  0.0000000 )
                  (  0.8660254 -0.5000000  0.0000000 )
                  (  0.0000000  0.0000000  1.0000000 )


      isym = 12     inv. 180 deg rotation - cryst. axis [1,1,0]  

 cryst.   s(12) = (     0         -1          0      )
                  (    -1          0          0      )
                  (     0          0          1      )

 cart.    s(12) = (  0.5000000 -0.8660254  0.0000000 )
                  ( -0.8660254 -0.5000000  0.0000000 )
                  (  0.0000000  0.0000000  1.0000000 )


   Cartesian axes

     site n.     atom                  positions (alat units)
         1           Zn  tau(   1) = (   0.5000000   0.2886751   0.8243661  )
         2           Zn  tau(   2) = (  -0.0000000   0.5773503   0.0010433  )
         3           O   tau(   3) = (   0.5000000   0.2886751   1.4485152  )
         4           O   tau(   4) = (  -0.0000000   0.5773503   0.6251925  )

   Crystallographic axes

     site n.     atom                  positions (cryst. coord.)
         1           Zn  tau(   1) = (  0.6666667  0.3333333  0.5006336  )
         2           Zn  tau(   2) = (  0.3333333  0.6666667  0.0006336  )
         3           O   tau(   3) = (  0.6666667  0.3333333  0.8796764  )
         4           O   tau(   4) = (  0.3333333  0.6666667  0.3796764  )

     number of k points=    28
                       cart. coord. in units 2pi/alat
        k(    1) = (   0.0000000   0.0000000   0.0000000), wk =   0.0092593
        k(    2) = (   0.0000000   0.0000000   0.1012159), wk =   0.0185185
        k(    3) = (   0.0000000   0.0000000   0.2024317), wk =   0.0185185
        k(    4) = (   0.0000000   0.0000000  -0.3036476), wk =   0.0092593
        k(    5) = (   0.0000000   0.1924501   0.0000000), wk =   0.0555556
        k(    6) = (   0.0000000   0.1924501   0.1012159), wk =   0.1111111
        k(    7) = (   0.0000000   0.1924501   0.2024317), wk =   0.1111111
        k(    8) = (   0.0000000   0.1924501  -0.3036476), wk =   0.0555556
        k(    9) = (   0.0000000   0.3849002   0.0000000), wk =   0.0555556
        k(   10) = (   0.0000000   0.3849002   0.1012159), wk =   0.1111111
        k(   11) = (   0.0000000   0.3849002   0.2024317), wk =   0.1111111
        k(   12) = (   0.0000000   0.3849002  -0.3036476), wk =   0.0555556
        k(   13) = (   0.0000000  -0.5773503   0.0000000), wk =   0.0277778
        k(   14) = (   0.0000000  -0.5773503   0.1012159), wk =   0.0555556
        k(   15) = (   0.0000000  -0.5773503   0.2024317), wk =   0.0555556
        k(   16) = (   0.0000000  -0.5773503  -0.3036476), wk =   0.0277778
        k(   17) = (   0.1666667   0.2886751   0.0000000), wk =   0.0555556
        k(   18) = (   0.1666667   0.2886751   0.1012159), wk =   0.1111111
        k(   19) = (   0.1666667   0.2886751   0.2024317), wk =   0.1111111
        k(   20) = (   0.1666667   0.2886751  -0.3036476), wk =   0.0555556
        k(   21) = (   0.1666667   0.4811252   0.0000000), wk =   0.1111111
        k(   22) = (   0.1666667   0.4811252   0.1012159), wk =   0.2222222
        k(   23) = (   0.1666667   0.4811252   0.2024317), wk =   0.2222222
        k(   24) = (   0.1666667   0.4811252  -0.3036476), wk =   0.1111111
        k(   25) = (   0.3333333   0.5773503   0.0000000), wk =   0.0185185
        k(   26) = (   0.3333333   0.5773503   0.1012159), wk =   0.0370370
        k(   27) = (   0.3333333   0.5773503   0.2024317), wk =   0.0370370
        k(   28) = (   0.3333333   0.5773503  -0.3036476), wk =   0.0185185

                       cryst. coord.
        k(    1) = (   0.0000000   0.0000000   0.0000000), wk =   0.0092593
        k(    2) = (   0.0000000   0.0000000   0.1666667), wk =   0.0185185
        k(    3) = (   0.0000000   0.0000000   0.3333333), wk =   0.0185185
        k(    4) = (   0.0000000   0.0000000  -0.5000000), wk =   0.0092593
        k(    5) = (   0.0000000   0.1666667   0.0000000), wk =   0.0555556
        k(    6) = (   0.0000000   0.1666667   0.1666667), wk =   0.1111111
        k(    7) = (   0.0000000   0.1666667   0.3333333), wk =   0.1111111
        k(    8) = (   0.0000000   0.1666667  -0.5000000), wk =   0.0555556
        k(    9) = (   0.0000000   0.3333333   0.0000000), wk =   0.0555556
        k(   10) = (   0.0000000   0.3333333   0.1666667), wk =   0.1111111
        k(   11) = (   0.0000000   0.3333333   0.3333333), wk =   0.1111111
        k(   12) = (   0.0000000   0.3333333  -0.5000000), wk =   0.0555556
        k(   13) = (   0.0000000  -0.5000000   0.0000000), wk =   0.0277778
        k(   14) = (   0.0000000  -0.5000000   0.1666667), wk =   0.0555556
        k(   15) = (   0.0000000  -0.5000000   0.3333333), wk =   0.0555556
        k(   16) = (   0.0000000  -0.5000000  -0.5000000), wk =   0.0277778
        k(   17) = (   0.1666667   0.1666667   0.0000000), wk =   0.0555556
        k(   18) = (   0.1666667   0.1666667   0.1666667), wk =   0.1111111
        k(   19) = (   0.1666667   0.1666667   0.3333333), wk =   0.1111111
        k(   20) = (   0.1666667   0.1666667  -0.5000000), wk =   0.0555556
        k(   21) = (   0.1666667   0.3333333   0.0000000), wk =   0.1111111
        k(   22) = (   0.1666667   0.3333333   0.1666667), wk =   0.2222222
        k(   23) = (   0.1666667   0.3333333   0.3333333), wk =   0.2222222
        k(   24) = (   0.1666667   0.3333333  -0.5000000), wk =   0.1111111
        k(   25) = (   0.3333333   0.3333333   0.0000000), wk =   0.0185185
        k(   26) = (   0.3333333   0.3333333   0.1666667), wk =   0.0370370
        k(   27) = (   0.3333333   0.3333333   0.3333333), wk =   0.0370370
        k(   28) = (   0.3333333   0.3333333  -0.5000000), wk =   0.0185185

     Dense  grid:    35315 G-vectors     FFT dimensions: (  40,  40,  60)

     Smooth grid:    12493 G-vectors     FFT dimensions: (  25,  25,  48)

     Dynamical RAM for                 wfc:       0.21 MB

     Dynamical RAM for     wfc (w. buffer):       1.72 MB

     Dynamical RAM for           str. fact:       0.54 MB

     Dynamical RAM for           local pot:       0.00 MB

     Dynamical RAM for          nlocal pot:       0.62 MB

     Dynamical RAM for                qrad:       3.21 MB

     Dynamical RAM for          rho,v,vnew:       1.91 MB

     Dynamical RAM for               rhoin:       0.64 MB

     Dynamical RAM for            rho*nmix:       4.31 MB

     Dynamical RAM for           G-vectors:       1.06 MB

     Dynamical RAM for          h,s,v(r/c):       0.06 MB

     Dynamical RAM for          <psi|beta>:       0.01 MB

     Dynamical RAM for                 psi:       0.43 MB

     Dynamical RAM for                hpsi:       0.43 MB

     Dynamical RAM for                spsi:       0.43 MB

     Dynamical RAM for      wfcinit/wfcrot:       0.64 MB

     Dynamical RAM for           addusdens:      12.86 MB

     Dynamical RAM for          addusforce:      12.94 MB

     Estimated static dynamical RAM per process >      12.33 MB

     Estimated max dynamical RAM per process >      29.58 MB

     Estimated total dynamical RAM >     210.76 MB

     Check: negative core charge=   -0.000001

     Initial potential from superposition of free atoms

     starting charge      35.9925, renormalised to      36.0000
     Starting wfcs are   26 randomized atomic wfcs

     total cpu time spent up to now is        2.2 secs

     per-process dynamical memory:    25.5 Mb

     Self-consistent Calculation

     iteration #  1     ecut=    50.00 Ry     beta= 0.30
     Davidson diagonalization with overlap

---- Real-time Memory Report at c_bands before calling an iterative solver
            62 MiB given to the printing process from OS
            24 MiB allocation reported by mallinfo(arena+hblkhd)
        111341 MiB available memory on the node where the printing process lives
------------------
     ethr =  1.00E-02,  avg # of iterations =  2.0

     total cpu time spent up to now is        2.7 secs

     total energy              =    -361.39854753 Ry
     estimated scf accuracy    <       0.67622704 Ry

     iteration #  2     ecut=    50.00 Ry     beta= 0.30
     Davidson diagonalization with overlap

---- Real-time Memory Report at c_bands before calling an iterative solver
            66 MiB given to the printing process from OS
            36 MiB allocation reported by mallinfo(arena+hblkhd)
        111329 MiB available memory on the node where the printing process lives
------------------
     ethr =  1.88E-03,  avg # of iterations =  2.0

     total cpu time spent up to now is        3.3 secs

     total energy              =    -361.43841142 Ry
     estimated scf accuracy    <       0.13529575 Ry

     iteration #  3     ecut=    50.00 Ry     beta= 0.30
     Davidson diagonalization with overlap

---- Real-time Memory Report at c_bands before calling an iterative solver
            66 MiB given to the printing process from OS
            36 MiB allocation reported by mallinfo(arena+hblkhd)
        111328 MiB available memory on the node where the printing process lives
------------------
     ethr =  3.76E-04,  avg # of iterations =  6.2

     total cpu time spent up to now is        4.2 secs

     total energy              =    -361.52212425 Ry
     estimated scf accuracy    <       0.09766692 Ry

     iteration #  4     ecut=    50.00 Ry     beta= 0.30
     Davidson diagonalization with overlap

---- Real-time Memory Report at c_bands before calling an iterative solver
            66 MiB given to the printing process from OS
            36 MiB allocation reported by mallinfo(arena+hblkhd)
        111326 MiB available memory on the node where the printing process lives
------------------
     ethr =  2.71E-04,  avg # of iterations =  2.0

     total cpu time spent up to now is        4.7 secs

     total energy              =    -361.51985791 Ry
     estimated scf accuracy    <       0.02792869 Ry

     iteration #  5     ecut=    50.00 Ry     beta= 0.30
     Davidson diagonalization with overlap

---- Real-time Memory Report at c_bands before calling an iterative solver
            67 MiB given to the printing process from OS
            36 MiB allocation reported by mallinfo(arena+hblkhd)
        111326 MiB available memory on the node where the printing process lives
------------------
     ethr =  7.76E-05,  avg # of iterations =  9.4

     total cpu time spent up to now is        5.9 secs

     total energy              =    -361.58315380 Ry
     estimated scf accuracy    <       0.54332336 Ry

     iteration #  6     ecut=    50.00 Ry     beta= 0.30
     Davidson diagonalization with overlap

---- Real-time Memory Report at c_bands before calling an iterative solver
            67 MiB given to the printing process from OS
            36 MiB allocation reported by mallinfo(arena+hblkhd)
        111327 MiB available memory on the node where the printing process lives
------------------
     ethr =  7.76E-05,  avg # of iterations =  5.1

     total cpu time spent up to now is        6.6 secs

     total energy              =    -361.48035641 Ry
     estimated scf accuracy    <       0.23914057 Ry

     iteration #  7     ecut=    50.00 Ry     beta= 0.30
     Davidson diagonalization with overlap

---- Real-time Memory Report at c_bands before calling an iterative solver
            67 MiB given to the printing process from OS
            37 MiB allocation reported by mallinfo(arena+hblkhd)
        111327 MiB available memory on the node where the printing process lives
------------------
     ethr =  7.76E-05,  avg # of iterations =  7.8

     total cpu time spent up to now is        7.7 secs

     total energy              =    -361.53323364 Ry
     estimated scf accuracy    <       0.00059416 Ry

     iteration #  8     ecut=    50.00 Ry     beta= 0.30
     Davidson diagonalization with overlap

---- Real-time Memory Report at c_bands before calling an iterative solver
            67 MiB given to the printing process from OS
            37 MiB allocation reported by mallinfo(arena+hblkhd)
        111327 MiB available memory on the node where the printing process lives
------------------
     ethr =  1.65E-06,  avg # of iterations =  7.9

     total cpu time spent up to now is        8.7 secs

     total energy              =    -361.53313884 Ry
     estimated scf accuracy    <       0.00521698 Ry

     iteration #  9     ecut=    50.00 Ry     beta= 0.30
     Davidson diagonalization with overlap

---- Real-time Memory Report at c_bands before calling an iterative solver
            67 MiB given to the printing process from OS
            37 MiB allocation reported by mallinfo(arena+hblkhd)
        111327 MiB available memory on the node where the printing process lives
------------------
     ethr =  1.65E-06,  avg # of iterations =  2.9

     total cpu time spent up to now is        9.3 secs

     total energy              =    -361.53109733 Ry
     estimated scf accuracy    <       0.00274395 Ry

     iteration # 10     ecut=    50.00 Ry     beta= 0.30
     Davidson diagonalization with overlap

---- Real-time Memory Report at c_bands before calling an iterative solver
            67 MiB given to the printing process from OS
            37 MiB allocation reported by mallinfo(arena+hblkhd)
        111327 MiB available memory on the node where the printing process lives
------------------
     ethr =  1.65E-06,  avg # of iterations =  9.4

     total cpu time spent up to now is       10.5 secs

     total energy              =    -361.53236971 Ry
     estimated scf accuracy    <       0.00543341 Ry

     iteration # 11     ecut=    50.00 Ry     beta= 0.30
     Davidson diagonalization with overlap

---- Real-time Memory Report at c_bands before calling an iterative solver
            67 MiB given to the printing process from OS
            37 MiB allocation reported by mallinfo(arena+hblkhd)
        111327 MiB available memory on the node where the printing process lives
------------------
     ethr =  1.65E-06,  avg # of iterations =  6.5

     total cpu time spent up to now is       11.4 secs

     total energy              =    -361.53290099 Ry
     estimated scf accuracy    <       0.00050371 Ry

     iteration # 12     ecut=    50.00 Ry     beta= 0.30
     Davidson diagonalization with overlap

---- Real-time Memory Report at c_bands before calling an iterative solver
            67 MiB given to the printing process from OS
            37 MiB allocation reported by mallinfo(arena+hblkhd)
        111327 MiB available memory on the node where the printing process lives
------------------
     ethr =  1.40E-06,  avg # of iterations =  1.1

     total cpu time spent up to now is       11.9 secs

     total energy              =    -361.53266614 Ry
     estimated scf accuracy    <       0.00047066 Ry

     iteration # 13     ecut=    50.00 Ry     beta= 0.30
     Davidson diagonalization with overlap

---- Real-time Memory Report at c_bands before calling an iterative solver
            67 MiB given to the printing process from OS
            37 MiB allocation reported by mallinfo(arena+hblkhd)
        111327 MiB available memory on the node where the printing process lives
------------------
     ethr =  1.31E-06,  avg # of iterations =  3.0

     total cpu time spent up to now is       12.5 secs

     total energy              =    -361.53277420 Ry
     estimated scf accuracy    <       0.00000999 Ry

     iteration # 14     ecut=    50.00 Ry     beta= 0.30
     Davidson diagonalization with overlap

---- Real-time Memory Report at c_bands before calling an iterative solver
            67 MiB given to the printing process from OS
            37 MiB allocation reported by mallinfo(arena+hblkhd)
        111327 MiB available memory on the node where the printing process lives
------------------
     ethr =  2.77E-08,  avg # of iterations =  8.5

     total cpu time spent up to now is       13.7 secs

     total energy              =    -361.53281578 Ry
     estimated scf accuracy    <       0.00000552 Ry

     iteration # 15     ecut=    50.00 Ry     beta= 0.30
     Davidson diagonalization with overlap

---- Real-time Memory Report at c_bands before calling an iterative solver
            67 MiB given to the printing process from OS
            37 MiB allocation reported by mallinfo(arena+hblkhd)
        111327 MiB available memory on the node where the printing process lives
------------------
     ethr =  1.53E-08,  avg # of iterations =  1.3

     total cpu time spent up to now is       14.2 secs

     total energy              =    -361.53281757 Ry
     estimated scf accuracy    <       0.00000625 Ry

     iteration # 16     ecut=    50.00 Ry     beta= 0.30
     Davidson diagonalization with overlap

---- Real-time Memory Report at c_bands before calling an iterative solver
            67 MiB given to the printing process from OS
            37 MiB allocation reported by mallinfo(arena+hblkhd)
        111327 MiB available memory on the node where the printing process lives
------------------
     ethr =  1.53E-08,  avg # of iterations =  1.5

     total cpu time spent up to now is       14.7 secs

     total energy              =    -361.53281452 Ry
     estimated scf accuracy    <       0.00001072 Ry

     iteration # 17     ecut=    50.00 Ry     beta= 0.30
     Davidson diagonalization with overlap

---- Real-time Memory Report at c_bands before calling an iterative solver
            67 MiB given to the printing process from OS
            37 MiB allocation reported by mallinfo(arena+hblkhd)
        111327 MiB available memory on the node where the printing process lives
------------------
     ethr =  1.53E-08,  avg # of iterations =  2.0

     total cpu time spent up to now is       15.2 secs

     total energy              =    -361.53281509 Ry
     estimated scf accuracy    <       0.00000510 Ry

     iteration # 18     ecut=    50.00 Ry     beta= 0.30
     Davidson diagonalization with overlap

---- Real-time Memory Report at c_bands before calling an iterative solver
            67 MiB given to the printing process from OS
            37 MiB allocation reported by mallinfo(arena+hblkhd)
        111327 MiB available memory on the node where the printing process lives
------------------
     ethr =  1.42E-08,  avg # of iterations =  1.0

     total cpu time spent up to now is       15.6 secs

     total energy              =    -361.53281475 Ry
     estimated scf accuracy    <       0.00000522 Ry

     iteration # 19     ecut=    50.00 Ry     beta= 0.30
     Davidson diagonalization with overlap

---- Real-time Memory Report at c_bands before calling an iterative solver
            67 MiB given to the printing process from OS
            37 MiB allocation reported by mallinfo(arena+hblkhd)
        111327 MiB available memory on the node where the printing process lives
------------------
     ethr =  1.42E-08,  avg # of iterations =  1.0

     total cpu time spent up to now is       16.1 secs

     total energy              =    -361.53281380 Ry
     estimated scf accuracy    <       0.00000411 Ry

     iteration # 20     ecut=    50.00 Ry     beta= 0.30
     Davidson diagonalization with overlap

---- Real-time Memory Report at c_bands before calling an iterative solver
            67 MiB given to the printing process from OS
            37 MiB allocation reported by mallinfo(arena+hblkhd)
        111327 MiB available memory on the node where the printing process lives
------------------
     ethr =  1.14E-08,  avg # of iterations =  1.8

     total cpu time spent up to now is       16.6 secs

     total energy              =    -361.53281402 Ry
     estimated scf accuracy    <       0.00000152 Ry

     iteration # 21     ecut=    50.00 Ry     beta= 0.30
     Davidson diagonalization with overlap

---- Real-time Memory Report at c_bands before calling an iterative solver
            67 MiB given to the printing process from OS
            37 MiB allocation reported by mallinfo(arena+hblkhd)
        111327 MiB available memory on the node where the printing process lives
------------------
     ethr =  4.21E-09,  avg # of iterations =  1.9

     total cpu time spent up to now is       17.1 secs

     total energy              =    -361.53281394 Ry
     estimated scf accuracy    <       0.00000115 Ry

     iteration # 22     ecut=    50.00 Ry     beta= 0.30
     Davidson diagonalization with overlap

---- Real-time Memory Report at c_bands before calling an iterative solver
            67 MiB given to the printing process from OS
            37 MiB allocation reported by mallinfo(arena+hblkhd)
        111327 MiB available memory on the node where the printing process lives
------------------
     ethr =  3.21E-09,  avg # of iterations =  1.6

     total cpu time spent up to now is       17.6 secs

     total energy              =    -361.53281381 Ry
     estimated scf accuracy    <       0.00000071 Ry

     iteration # 23     ecut=    50.00 Ry     beta= 0.30
     Davidson diagonalization with overlap

---- Real-time Memory Report at c_bands before calling an iterative solver
            67 MiB given to the printing process from OS
            37 MiB allocation reported by mallinfo(arena+hblkhd)
        111327 MiB available memory on the node where the printing process lives
------------------
     ethr =  1.98E-09,  avg # of iterations =  3.9

     total cpu time spent up to now is       18.2 secs

     total energy              =    -361.53281398 Ry
     estimated scf accuracy    <       0.00000006 Ry

     iteration # 24     ecut=    50.00 Ry     beta= 0.30
     Davidson diagonalization with overlap

---- Real-time Memory Report at c_bands before calling an iterative solver
            67 MiB given to the printing process from OS
            37 MiB allocation reported by mallinfo(arena+hblkhd)
        111327 MiB available memory on the node where the printing process lives
------------------
     ethr =  1.78E-10,  avg # of iterations =  4.6

     total cpu time spent up to now is       19.0 secs

     total energy              =    -361.53281402 Ry
     estimated scf accuracy    <       0.00000002 Ry

     iteration # 25     ecut=    50.00 Ry     beta= 0.30
     Davidson diagonalization with overlap

---- Real-time Memory Report at c_bands before calling an iterative solver
            67 MiB given to the printing process from OS
            37 MiB allocation reported by mallinfo(arena+hblkhd)
        111327 MiB available memory on the node where the printing process lives
------------------
     ethr =  5.23E-11,  avg # of iterations =  1.9

     total cpu time spent up to now is       19.5 secs

     total energy              =    -361.53281402 Ry
     estimated scf accuracy    <       0.00000002 Ry

     iteration # 26     ecut=    50.00 Ry     beta= 0.30
     Davidson diagonalization with overlap

---- Real-time Memory Report at c_bands before calling an iterative solver
            67 MiB given to the printing process from OS
            37 MiB allocation reported by mallinfo(arena+hblkhd)
        111327 MiB available memory on the node where the printing process lives
------------------
     ethr =  5.23E-11,  avg # of iterations =  1.2

     total cpu time spent up to now is       20.0 secs

     total energy              =    -361.53281402 Ry
     estimated scf accuracy    <       0.00000003 Ry

     iteration # 27     ecut=    50.00 Ry     beta= 0.30
     Davidson diagonalization with overlap

---- Real-time Memory Report at c_bands before calling an iterative solver
            67 MiB given to the printing process from OS
            37 MiB allocation reported by mallinfo(arena+hblkhd)
        111327 MiB available memory on the node where the printing process lives
------------------
     ethr =  5.23E-11,  avg # of iterations =  1.0

     total cpu time spent up to now is       20.5 secs

     total energy              =    -361.53281402 Ry
     estimated scf accuracy    <       0.00000002 Ry

     iteration # 28     ecut=    50.00 Ry     beta= 0.30
     Davidson diagonalization with overlap

---- Real-time Memory Report at c_bands before calling an iterative solver
            67 MiB given to the printing process from OS
            37 MiB allocation reported by mallinfo(arena+hblkhd)
        111327 MiB available memory on the node where the printing process lives
------------------
     ethr =  5.23E-11,  avg # of iterations =  1.0

     total cpu time spent up to now is       20.9 secs

     total energy              =    -361.53281403 Ry
     estimated scf accuracy    <       0.00000002 Ry

     iteration # 29     ecut=    50.00 Ry     beta= 0.30
     Davidson diagonalization with overlap

---- Real-time Memory Report at c_bands before calling an iterative solver
            67 MiB given to the printing process from OS
            37 MiB allocation reported by mallinfo(arena+hblkhd)
        111327 MiB available memory on the node where the printing process lives
------------------
     ethr =  5.23E-11,  avg # of iterations =  2.0

     total cpu time spent up to now is       21.4 secs

     total energy              =    -361.53281405 Ry
     estimated scf accuracy    <       0.00000004 Ry

     iteration # 30     ecut=    50.00 Ry     beta= 0.30
     Davidson diagonalization with overlap

---- Real-time Memory Report at c_bands before calling an iterative solver
            67 MiB given to the printing process from OS
            37 MiB allocation reported by mallinfo(arena+hblkhd)
        111327 MiB available memory on the node where the printing process lives
------------------
     ethr =  5.23E-11,  avg # of iterations =  4.8

     total cpu time spent up to now is       22.2 secs

     total energy              =    -361.53281405 Ry
     estimated scf accuracy    <       0.00000014 Ry

     iteration # 31     ecut=    50.00 Ry     beta= 0.30
     Davidson diagonalization with overlap

---- Real-time Memory Report at c_bands before calling an iterative solver
            67 MiB given to the printing process from OS
            37 MiB allocation reported by mallinfo(arena+hblkhd)
        111327 MiB available memory on the node where the printing process lives
------------------
     ethr =  5.23E-11,  avg # of iterations =  1.0

     total cpu time spent up to now is       22.6 secs

     total energy              =    -361.53281400 Ry
     estimated scf accuracy    <       0.00000012 Ry

     iteration # 32     ecut=    50.00 Ry     beta= 0.30
     Davidson diagonalization with overlap

---- Real-time Memory Report at c_bands before calling an iterative solver
            67 MiB given to the printing process from OS
            37 MiB allocation reported by mallinfo(arena+hblkhd)
        111327 MiB available memory on the node where the printing process lives
------------------
     ethr =  5.23E-11,  avg # of iterations =  6.0

     total cpu time spent up to now is       23.5 secs

     End of self-consistent calculation

          k = 0.0000 0.0000 0.0000 (  1557 PWs)   bands (ev):

    -9.2641  -8.2269   3.2245   3.7541   3.7541   3.8297   4.0043   4.0043
     5.6720   5.6720   5.9851   5.9851   6.3846   9.7873   9.7873  10.5459
    10.7830  10.7830

     occupation numbers 
     1.0000   1.0000   1.0000   1.0000   1.0000   1.0000   1.0000   1.0000
     1.0000   1.0000   1.0000   1.0000   1.0000   1.0000   1.0000   1.0000
     1.0000   1.0000

          k = 0.0000 0.0000 0.1012 (  1569 PWs)   bands (ev):

    -9.1999  -8.3021   3.1991   3.7440   3.7636   3.7636   3.9795   3.9795
     5.6995   5.6995   5.9717   5.9717   6.6681   9.8539   9.8539  10.0212
    10.7167  10.7167

     occupation numbers 
     1.0000   1.0000   1.0000   1.0000   1.0000   1.0000   1.0000   1.0000
     1.0000   1.0000   1.0000   1.0000   1.0000   1.0000   1.0000   1.0000
     1.0000   1.0000

          k = 0.0000 0.0000 0.2024 (  1551 PWs)   bands (ev):

    -9.0207  -8.5030   3.2028   3.5370   3.7948   3.7948   3.9185   3.9185
     5.7717   5.7717   5.9299   5.9299   7.3782   9.1749  10.0361  10.0361
    10.5350  10.5350

     occupation numbers 
     1.0000   1.0000   1.0000   1.0000   1.0000   1.0000   1.0000   1.0000
     1.0000   1.0000   1.0000   1.0000   1.0000   1.0000   1.0000   1.0000
     1.0000   1.0000

          k = 0.0000 0.0000-0.3036 (  1570 PWs)   bands (ev):

    -8.7673  -8.7673   3.3230   3.3230   3.8490   3.8490   3.8490   3.8490
     5.8576   5.8576   5.8576   5.8576   8.2697   8.2697  10.2856  10.2856
    10.2856  10.2856

     occupation numbers 
     1.0000   1.0000   1.0000   1.0000   1.0000   1.0000   1.0000   1.0000
     1.0000   1.0000   1.0000   1.0000   1.0000   1.0000   1.0000   1.0000
     1.0000   1.0000

          k = 0.0000 0.1925 0.0000 (  1579 PWs)   bands (ev):

    -9.0433  -8.1234   3.4054   3.6189   3.8687   3.8829   4.0153   4.1675
     5.5629   5.6655   6.0021   6.0632   6.3511   8.7320   9.3419   9.6589
    10.3200  10.5238

     occupation numbers 
     1.0000   1.0000   1.0000   1.0000   1.0000   1.0000   1.0000   1.0000
     1.0000   1.0000   1.0000   1.0000   1.0000   1.0000   1.0000   1.0000
     1.0000   1.0000

          k = 0.0000 0.1925 0.1012 (  1579 PWs)   bands (ev):

    -8.9850  -8.1883   3.3294   3.5058   3.8817   3.9078   4.0100   4.1392
     5.6089   5.6926   5.9843   6.0325   6.6749   8.8041   9.4231   9.4706
    10.2232  10.4464

     occupation numbers 
     1.0000   1.0000   1.0000   1.0000   1.0000   1.0000   1.0000   1.0000
     1.0000   1.0000   1.0000   1.0000   1.0000   1.0000   1.0000   1.0000
     1.0000   1.0000

          k = 0.0000 0.1925 0.2024 (  1574 PWs)   bands (ev):

    -8.8231  -8.3632   3.2098   3.3404   3.9142   3.9218   3.9846   4.0691
     5.7196   5.7632   5.9321   5.9594   7.4306   8.8748   9.1634   9.6435
     9.8892  10.2339

     occupation numbers 
     1.0000   1.0000   1.0000   1.0000   1.0000   1.0000   1.0000   1.0000
     1.0000   1.0000   1.0000   1.0000   1.0000   1.0000   1.0000   1.0000
     1.0000   1.0000

          k = 0.0000 0.1925-0.3036 (  1566 PWs)   bands (ev):

    -8.5964  -8.5964   3.2137   3.2137   3.9416   3.9416   3.9881   3.9881
     5.8488   5.8488   5.8521   5.8521   8.2686   8.2686   9.4518   9.4518
     9.9406   9.9406

     occupation numbers 
     1.0000   1.0000   1.0000   1.0000   1.0000   1.0000   1.0000   1.0000
     1.0000   1.0000   1.0000   1.0000   1.0000   1.0000   1.0000   1.0000
     1.0000   1.0000

          k = 0.0000 0.3849 0.0000 (  1559 PWs)   bands (ev):

    -8.5408  -7.9426   3.1342   3.6131   4.0590   4.1890   4.5026   4.5678
     5.4488   5.7818   6.0161   6.0348   6.5444   7.0318   8.2592   8.4079
     9.6345   9.9468

     occupation numbers 
     1.0000   1.0000   1.0000   1.0000   1.0000   1.0000   1.0000   1.0000
     1.0000   1.0000   1.0000   1.0000   1.0000   1.0000   1.0000   1.0000
     1.0000   1.0000

          k = 0.0000 0.3849 0.1012 (  1564 PWs)   bands (ev):

    -8.4997  -7.9811   3.0895   3.4418   4.0849   4.1853   4.4358   4.5230
     5.5290   5.7971   6.0138   6.0973   6.7186   7.1687   8.1834   8.5228
     9.6387   9.8503

     occupation numbers 
     1.0000   1.0000   1.0000   1.0000   1.0000   1.0000   1.0000   1.0000
     1.0000   1.0000   1.0000   1.0000   1.0000   1.0000   1.0000   1.0000
     1.0000   1.0000

          k = 0.0000 0.3849 0.2024 (  1567 PWs)   bands (ev):

    -8.3878  -8.0877   3.0065   3.1607   4.1606   4.1919   4.3269   4.4105
     5.6975   5.8391   5.9619   6.0366   7.1082   7.4787   8.2401   8.8231
     9.4482   9.5841

     occupation numbers 
     1.0000   1.0000   1.0000   1.0000   1.0000   1.0000   1.0000   1.0000
     1.0000   1.0000   1.0000   1.0000   1.0000   1.0000   1.0000   1.0000
     1.0000   1.0000

          k = 0.0000 0.3849-0.3036 (  1568 PWs)   bands (ev):

    -8.2364  -8.2364   3.0036   3.0036   4.2389   4.2389   4.2765   4.2765
     5.8809   5.8809   5.8983   5.8983   7.3888   7.3888   8.8809   8.8809
     9.2116   9.2116

     occupation numbers 
     1.0000   1.0000   1.0000   1.0000   1.0000   1.0000   1.0000   1.0000
     1.0000   1.0000   1.0000   1.0000   1.0000   1.0000   1.0000   1.0000
     1.0000   1.0000

          k = 0.0000-0.5774 0.0000 (  1578 PWs)   bands (ev):

    -8.2185  -7.9037   3.2531   3.2868   4.1228   4.4105   4.6645   4.8269
     5.6833   5.9409   6.0648   6.1679   6.3883   6.6880   7.3110   7.8616
     9.0888   9.6186

     occupation numbers 
     1.0000   1.0000   1.0000   1.0000   1.0000   1.0000   1.0000   1.0000
     1.0000   1.0000   1.0000   1.0000   1.0000   1.0000   1.0000   1.0000
     1.0000   1.0000

          k = 0.0000-0.5774 0.1012 (  1564 PWs)   bands (ev):

    -8.1940  -7.9208   3.1767   3.1853   4.1582   4.3909   4.6153   4.7627
     5.7764   5.9449   6.0453   6.1674   6.4071   6.6169   7.6193   8.0038
     9.1584   9.5127

     occupation numbers 
     1.0000   1.0000   1.0000   1.0000   1.0000   1.0000   1.0000   1.0000
     1.0000   1.0000   1.0000   1.0000   1.0000   1.0000   1.0000   1.0000
     1.0000   1.0000

          k = 0.0000-0.5774 0.2024 (  1560 PWs)   bands (ev):

    -8.1291  -7.9709   3.0070   3.0219   4.2611   4.3884   4.5181   4.6041
     5.9368   5.9568   6.0082   6.1403   6.4470   6.5382   8.2702   8.3612
     9.1897   9.2195

     occupation numbers 
     1.0000   1.0000   1.0000   1.0000   1.0000   1.0000   1.0000   1.0000
     1.0000   1.0000   1.0000   1.0000   1.0000   1.0000   1.0000   1.0000
     1.0000   1.0000

          k = 0.0000-0.5774-0.3036 (  1544 PWs)   bands (ev):

    -8.0463  -8.0463   2.9364   2.9364   4.4193   4.4193   4.4342   4.4342
     5.9777   5.9777   6.0639   6.0639   6.4890   6.4890   8.8047   8.8047
     8.8914   8.8914

     occupation numbers 
     1.0000   1.0000   1.0000   1.0000   1.0000   1.0000   1.0000   1.0000
     1.0000   1.0000   1.0000   1.0000   1.0000   1.0000   1.0000   1.0000
     1.0000   1.0000

          k = 0.1667 0.2887 0.0000 (  1571 PWs)   bands (ev):

    -8.6791  -7.9816   3.3244   3.5954   4.0546   4.0604   4.2492   4.4787
     5.4685   5.6853   6.0209   6.0878   6.4857   7.6823   8.1752   8.7579
     9.8923   9.9195

     occupation numbers 
     1.0000   1.0000   1.0000   1.0000   1.0000   1.0000   1.0000   1.0000
     1.0000   1.0000   1.0000   1.0000   1.0000   1.0000   1.0000   1.0000
     1.0000   1.0000

          k = 0.1667 0.2887 0.1012 (  1564 PWs)   bands (ev):

    -8.6325  -8.0279   3.2737   3.4538   4.0188   4.0363   4.2570   4.4434
     5.5338   5.7365   6.0013   6.1130   6.7532   7.7917   8.2219   8.7002
     9.8175   9.8569

     occupation numbers 
     1.0000   1.0000   1.0000   1.0000   1.0000   1.0000   1.0000   1.0000
     1.0000   1.0000   1.0000   1.0000   1.0000   1.0000   1.0000   1.0000
     1.0000   1.0000

          k = 0.1667 0.2887 0.2024 (  1569 PWs)   bands (ev):

    -8.5048  -8.1552   3.1649   3.2146   4.0106   4.0155   4.2498   4.3591
     5.6890   5.8069   5.9504   6.0299   7.3935   8.1493   8.1760   8.7845
     9.5448   9.5863

     occupation numbers 
     1.0000   1.0000   1.0000   1.0000   1.0000   1.0000   1.0000   1.0000
     1.0000   1.0000   1.0000   1.0000   1.0000   1.0000   1.0000   1.0000
     1.0000   1.0000

          k = 0.1667 0.2887-0.3036 (  1568 PWs)   bands (ev):

    -8.3299  -8.3299   3.1120   3.1120   4.0146   4.0146   4.2783   4.2783
     5.8579   5.8579   5.8935   5.8935   7.8604   7.8604   8.8387   8.8387
     9.2304   9.2304

     occupation numbers 
     1.0000   1.0000   1.0000   1.0000   1.0000   1.0000   1.0000   1.0000
     1.0000   1.0000   1.0000   1.0000   1.0000   1.0000   1.0000   1.0000
     1.0000   1.0000

          k = 0.1667 0.4811 0.0000 (  1554 PWs)   bands (ev):

    -8.2335  -7.8969   3.3715   3.6133   4.0589   4.3049   4.7086   4.8055
     5.5525   5.6936   6.0795   6.1577   6.4577   7.0045   7.1704   7.6981
     9.0060   9.3101

     occupation numbers 
     1.0000   1.0000   1.0000   1.0000   1.0000   1.0000   1.0000   1.0000
     1.0000   1.0000   1.0000   1.0000   1.0000   1.0000   1.0000   1.0000
     1.0000   1.0000

          k = 0.1667 0.4811 0.1012 (  1562 PWs)   bands (ev):

    -8.2076  -7.9157   3.3104   3.4984   4.0453   4.2640   4.6422   4.7372
     5.5956   5.8290   6.0710   6.2653   6.3922   7.0773   7.2940   7.8367
     8.9891   9.2812

     occupation numbers 
     1.0000   1.0000   1.0000   1.0000   1.0000   1.0000   1.0000   1.0000
     1.0000   1.0000   1.0000   1.0000   1.0000   1.0000   1.0000   1.0000
     1.0000   1.0000

          k = 0.1667 0.4811 0.2024 (  1558 PWs)   bands (ev):

    -8.1392  -7.9701   3.1869   3.2709   4.0630   4.1993   4.5673   4.6205
     5.7344   5.8908   6.0772   6.2545   6.5418   6.9875   7.7203   8.2643
     8.7767   9.2543

     occupation numbers 
     1.0000   1.0000   1.0000   1.0000   1.0000   1.0000   1.0000   1.0000
     1.0000   1.0000   1.0000   1.0000   1.0000   1.0000   1.0000   1.0000
     1.0000   1.0000

          k = 0.1667 0.4811-0.3036 (  1558 PWs)   bands (ev):

    -8.0511  -8.0511   3.1448   3.1448   4.1287   4.1287   4.5532   4.5532
     5.8529   5.8529   6.1365   6.1365   6.7930   6.7930   8.1837   8.1837
     8.9831   8.9831

     occupation numbers 
     1.0000   1.0000   1.0000   1.0000   1.0000   1.0000   1.0000   1.0000
     1.0000   1.0000   1.0000   1.0000   1.0000   1.0000   1.0000   1.0000
     1.0000   1.0000

          k = 0.3333 0.5774 0.0000 (  1560 PWs)   bands (ev):

    -7.9777  -7.9777   3.5868   4.1289   4.1289   4.1782   4.9187   4.9187
     5.4970   5.6560   5.6560   5.7286   6.4289   6.9302   6.9302   8.3339
     8.3339   8.4376

     occupation numbers 
     1.0000   1.0000   1.0000   1.0000   1.0000   1.0000   1.0000   1.0000
     1.0000   1.0000   1.0000   1.0000   1.0000   1.0000   1.0000   1.0000
     1.0000   1.0000

          k = 0.3333 0.5774 0.1012 (  1545 PWs)   bands (ev):

    -7.9732  -7.9732   3.6131   3.9575   3.9575   4.1143   4.8686   4.8686
     5.5206   5.7160   5.8692   5.8692   6.5623   6.8661   6.8661   8.2893
     8.4979   8.4979

     occupation numbers 
     1.0000   1.0000   1.0000   1.0000   1.0000   1.0000   1.0000   1.0000
     1.0000   1.0000   1.0000   1.0000   1.0000   1.0000   1.0000   1.0000
     1.0000   1.0000

          k = 0.3333 0.5774 0.2024 (  1560 PWs)   bands (ev):

    -7.9642  -7.9642   3.6749   3.6749   3.6904   3.9689   4.8255   4.8255
     5.5716   5.6802   6.2105   6.2105   6.7147   6.7147   6.9189   7.9023
     8.8244   8.8244

     occupation numbers 
     1.0000   1.0000   1.0000   1.0000   1.0000   1.0000   1.0000   1.0000
     1.0000   1.0000   1.0000   1.0000   1.0000   1.0000   1.0000   1.0000
     1.0000   1.0000

          k = 0.3333 0.5774-0.3036 (  1548 PWs)   bands (ev):

    -7.9597  -7.9597   3.5541   3.5541   3.8143   3.8143   4.8130   4.8130
     5.6291   5.6291   6.4455   6.4455   6.5494   6.5494   7.4031   7.4031
     8.9893   8.9893

     occupation numbers 
     1.0000   1.0000   1.0000   1.0000   1.0000   1.0000   1.0000   1.0000
     1.0000   1.0000   1.0000   1.0000   1.0000   1.0000   1.0000   1.0000
     1.0000   1.0000

     highest occupied level (ev):    10.7830

!    total energy              =    -361.53281401 Ry
     estimated scf accuracy    <          7.5E-09 Ry

     The total energy is the sum of the following terms:
     one-electron contribution =    -127.21140687 Ry
     hartree contribution      =     108.85225814 Ry
     xc contribution           =    -110.08603480 Ry
     ewald contribution        =    -233.08763047 Ry

     convergence has been achieved in  32 iterations

     Forces acting on atoms (cartesian axes, Ry/au):

     atom    1 type  1   force =    -0.00000000   -0.00000000    0.01851336
     atom    2 type  1   force =     0.00000000   -0.00000000    0.01851336
     atom    3 type  2   force =     0.00000000   -0.00000000   -0.01851336
     atom    4 type  2   force =     0.00000000    0.00000000   -0.01851336
     The non-local contrib.  to forces
     atom    1 type  1   force =     0.00000000    0.00000000    0.05661697
     atom    2 type  1   force =     0.00000000   -0.00000000    0.05661697
     atom    3 type  2   force =     0.00000000    0.00000000    0.04513783
     atom    4 type  2   force =     0.00000000    0.00000000    0.04513783
     The ionic contribution  to forces
     atom    1 type  1   force =    -0.00000000    0.00000000    0.54943326
     atom    2 type  1   force =     0.00000000   -0.00000000    0.54943326
     atom    3 type  2   force =    -0.00000000    0.00000000   -0.54943326
     atom    4 type  2   force =     0.00000000   -0.00000000   -0.54943326
     The local contribution  to forces
     atom    1 type  1   force =    -0.00000002    0.00000001   -0.58276409
     atom    2 type  1   force =     0.00000006   -0.00000003   -0.58276410
     atom    3 type  2   force =    -0.00000001    0.00000000    0.48607243
     atom    4 type  2   force =     0.00000002   -0.00000001    0.48607244
     The core correction contribution to forces
     atom    1 type  1   force =    -0.00000000    0.00000000   -0.00475936
     atom    2 type  1   force =     0.00000001   -0.00000000   -0.00475936
     atom    3 type  2   force =     0.00000000   -0.00000000   -0.00029424
     atom    4 type  2   force =    -0.00000000    0.00000000   -0.00029424
     The Hubbard contrib.    to forces
     atom    1 type  1   force =     0.00000000    0.00000000    0.00000000
     atom    2 type  1   force =     0.00000000    0.00000000    0.00000000
     atom    3 type  2   force =     0.00000000    0.00000000    0.00000000
     atom    4 type  2   force =     0.00000000    0.00000000    0.00000000
     The SCF correction term to forces
     atom    1 type  1   force =     0.00000000   -0.00000000   -0.00001656
     atom    2 type  1   force =    -0.00000000    0.00000000   -0.00001656
     atom    3 type  2   force =     0.00000000   -0.00000000    0.00000072
     atom    4 type  2   force =    -0.00000000    0.00000000    0.00000072

     Total force =     0.037027     Total SCF correction =     0.000023

     init_run     :      1.79s CPU      1.83s WALL (       1 calls)
     electrons    :     20.56s CPU     21.31s WALL (       1 calls)
     forces       :      0.39s CPU      0.39s WALL (       1 calls)

     Called by init_run:
     wfcinit      :      0.18s CPU      0.18s WALL (       1 calls)
     wfcinit:atom :      0.00s CPU      0.00s WALL (       7 calls)
     wfcinit:wfcr :      0.16s CPU      0.16s WALL (       7 calls)
     potinit      :      0.26s CPU      0.26s WALL (       1 calls)
     hinit0       :      1.12s CPU      1.13s WALL (       1 calls)

     Called by electrons:
     c_bands      :     14.43s CPU     14.97s WALL (      32 calls)
     sum_band     :      3.25s CPU      3.41s WALL (      32 calls)
     v_of_rho     :      1.42s CPU      1.45s WALL (      33 calls)
     v_h          :      0.07s CPU      0.07s WALL (      33 calls)
     v_xc         :      1.39s CPU      1.42s WALL (      34 calls)
     newd         :      1.21s CPU      1.24s WALL (      33 calls)
     mix_rho      :      0.20s CPU      0.21s WALL (      32 calls)

     Called by c_bands:
     init_us_2    :      0.27s CPU      0.28s WALL (     462 calls)
     init_us_2:cp :      0.27s CPU      0.28s WALL (     462 calls)
     cegterg      :     12.12s CPU     12.65s WALL (     224 calls)

     Called by sum_band:
     sum_band:wei :      0.00s CPU      0.00s WALL (      32 calls)
     sum_band:loo :      1.65s CPU      1.75s WALL (      32 calls)
     sum_band:buf :      0.01s CPU      0.01s WALL (     224 calls)
     sum_band:ini :      0.13s CPU      0.13s WALL (     224 calls)
     sum_band:cal :      0.19s CPU      0.20s WALL (     224 calls)
     sum_band:bec :      0.01s CPU      0.01s WALL (     224 calls)
     addusdens    :      1.34s CPU      1.37s WALL (      32 calls)
     addusd:skk   :      0.00s CPU      0.00s WALL (      64 calls)
     addusd:dgemm :      0.26s CPU      0.28s WALL (      64 calls)
     addusd:qvan2 :      0.92s CPU      0.93s WALL (      64 calls)

     Called by *egterg:
     cdiaghg      :      0.91s CPU      0.91s WALL (    1063 calls)
     cegterg:over :      0.73s CPU      0.74s WALL (     839 calls)
     cegterg:upda :      0.32s CPU      0.32s WALL (     839 calls)
     cegterg:last :      0.60s CPU      0.60s WALL (     593 calls)
     h_psi        :      8.86s CPU      9.38s WALL (    1070 calls)
     s_psi        :      0.46s CPU      0.46s WALL (    1070 calls)
     g_psi        :      0.08s CPU      0.08s WALL (     839 calls)

     Called by h_psi:
     h_psi:calbec :      0.67s CPU      0.70s WALL (    1070 calls)
     vloc_psi     :      7.67s CPU      8.15s WALL (    1070 calls)
     add_vuspsi   :      0.48s CPU      0.49s WALL (    1070 calls)

     General routines
     calbec       :      0.89s CPU      0.92s WALL (    1322 calls)
     fft          :      0.86s CPU      0.90s WALL (     438 calls)
     ffts         :      0.11s CPU      0.11s WALL (      65 calls)
     fftw         :      8.01s CPU      8.52s WALL (   28534 calls)
     interpolate  :      0.14s CPU      0.15s WALL (      33 calls)

     Parallel routines

     PWSCF        :     23.11s CPU     23.91s WALL


   This run was terminated on:  10: 2:51  26Aug2025            

=------------------------------------------------------------------------------=
   JOB DONE.
=------------------------------------------------------------------------------=
