
     Program PWSCF v.7.0 starts on 26Aug2025 at 10: 4:54 

     This program is part of the open-source Quantum ESPRESSO suite
     for quantum simulation of materials; please cite
         "P. Giannozzi et al., J. Phys.:Condens. Matter 21 395502 (2009);
         "P. Giannozzi et al., J. Phys.:Condens. Matter 29 465901 (2017);
         "P. Giannozzi et al., J. Chem. Phys. 152 154105 (2020);
          URL http://www.quantum-espresso.org", 
     in publications or presentations arising from this work. More details at
     http://www.quantum-espresso.org/quote

     Parallel version (MPI & OpenMP), running on       8 processor cores
     Number of MPI processes:                 8
     Threads/MPI process:                     1

     MPI processes distributed on     1 nodes
     K-points division:     npool     =       4
     R & G space division:  proc/nbgrp/npool/nimage =       2
     111601 MiB available memory on the printing compute node when the environment starts

     Reading input from /home/jvc/QEspresso7.2/ZnO_database/scripts/cell111.in/ZnO-3.07-1.49-111.in
Warning: card &CELL ignored
Warning: card / ignored
Warning: card &FCP ignored
Warning: card / ignored
Warning: card &RISM ignored
Warning: card / ignored

     Current dimensions of program PWSCF are:
     Max number of different atomic species (ntypx) = 10
     Max number of k-points (npk) =  40000
     Max angular momentum in pseudopotentials (lmaxx) =  4
     file Zn.upf: wavefunction(s)  3D renormalized
     Message from routine setup:
     using ibrav=0 with symmetry is DISCOURAGED, use correct ibrav instead

     Subspace diagonalization in iterative solution of the eigenvalue problem:
     a serial algorithm will be used


     Parallelization info
     --------------------
     sticks:   dense  smooth     PW     G-vecs:    dense   smooth      PW
     Min         465     231     75                17015     6004    1039
     Max         466     232     76                17018     6005    1040
     Sum         931     463    151                34033    12009    2079

     Using Slab Decomposition



     bravais-lattice index     =            0
     lattice parameter (alat)  =       5.8081  a.u.
     unit-cell volume          =     252.0146 (a.u.)^3
     number of atoms/cell      =            4
     number of atomic types    =            2
     number of electrons       =        36.00
     number of Kohn-Sham states=           18
     kinetic-energy cutoff     =      50.0000  Ry
     charge density cutoff     =     400.0000  Ry
     scf convergence threshold =      1.0E-08
     mixing beta               =       0.3000
     number of iterations used =            8  plain     mixing
     Exchange-correlation= PBE
                           (   1   4   3   4   0   0   0)

     celldm(1)=   5.808123  celldm(2)=   0.000000  celldm(3)=   0.000000
     celldm(4)=   0.000000  celldm(5)=   0.000000  celldm(6)=   0.000000

     crystal axes: (cart. coord. in units of alat)
               a(1) = (   1.000000   0.000000   0.000000 )  
               a(2) = (  -0.500000   0.866025   0.000000 )  
               a(3) = (   0.000000   0.000000   1.485210 )  

     reciprocal axes: (cart. coord. in units 2 pi/alat)
               b(1) = (  1.000000  0.577350 -0.000000 )  
               b(2) = (  0.000000  1.154701  0.000000 )  
               b(3) = (  0.000000 -0.000000  0.673306 )  


     PseudoPot. # 1 for Zn read from file:
     /home/jvc/QEspresso7.2/ZnO_database/pseudos/Zn.upf
     MD5 check sum: 7f56cabf9682ed8c977c2f7d0c5985c5
     Pseudo is Ultrasoft + core correction, Zval = 12.0
     Generated using &quot;atomic&quot; code by A. Dal Corso  v.6.2.2
     Using radial grid of 1201 points,  6 beta functions with: 
                l(1) =   0
                l(2) =   0
                l(3) =   1
                l(4) =   1
                l(5) =   2
                l(6) =   2
     Q(r) pseudized with 0 coefficients 


     PseudoPot. # 2 for O  read from file:
     /home/jvc/QEspresso7.2/ZnO_database/pseudos/O.upf
     MD5 check sum: 91400c9766925bcf19f520983a725ff0
     Pseudo is Ultrasoft + core correction, Zval =  6.0
     Generated using &quot;atomic&quot; code by A. Dal Corso  v.6.3MaX
     Using radial grid of 1095 points,  4 beta functions with: 
                l(1) =   0
                l(2) =   0
                l(3) =   1
                l(4) =   1
     Q(r) pseudized with 0 coefficients 


     atomic species   valence    mass     pseudopotential
        Zn            12.00    65.38000     Zn( 1.00)
        O              6.00    15.99900     O ( 1.00)

     12 Sym. Ops. (no inversion) found ( 6 have fractional translation)


                                    s                        frac. trans.

      isym =  1     identity                                     

 cryst.   s( 1) = (     1          0          0      )
                  (     0          1          0      )
                  (     0          0          1      )

 cart.    s( 1) = (  1.0000000  0.0000000  0.0000000 )
                  (  0.0000000  1.0000000  0.0000000 )
                  (  0.0000000  0.0000000  1.0000000 )


      isym =  2     180 deg rotation - cart. axis [0,0,1]        

 cryst.   s( 2) = (    -1          0          0      )    f =(  0.0000000 )
                  (     0         -1          0      )       (  0.0000000 )
                  (     0          0          1      )       (  0.5000000 )

 cart.    s( 2) = ( -1.0000000  0.0000000  0.0000000 )    f =(  0.0000000 )
                  (  0.0000000 -1.0000000  0.0000000 )       (  0.0000000 )
                  (  0.0000000  0.0000000  1.0000000 )       (  0.7426048 )


      isym =  3      60 deg rotation - cryst. axis [0,0,1]       

 cryst.   s( 3) = (     1          1          0      )    f =( -0.0000000 )
                  (    -1          0          0      )       (  0.0000000 )
                  (     0          0          1      )       (  0.5000000 )

 cart.    s( 3) = (  0.5000000 -0.8660254  0.0000000 )    f =( -0.0000000 )
                  (  0.8660254  0.5000000  0.0000000 )       (  0.0000000 )
                  (  0.0000000  0.0000000  1.0000000 )       (  0.7426048 )


      isym =  4      60 deg rotation - cryst. axis [0,0,-1]      

 cryst.   s( 4) = (     0         -1          0      )    f =(  0.0000000 )
                  (     1          1          0      )       (  0.0000000 )
                  (     0          0          1      )       (  0.5000000 )

 cart.    s( 4) = (  0.5000000  0.8660254  0.0000000 )    f =( -0.0000000 )
                  ( -0.8660254  0.5000000  0.0000000 )       (  0.0000000 )
                  (  0.0000000  0.0000000  1.0000000 )       (  0.7426048 )


      isym =  5     120 deg rotation - cryst. axis [0,0,1]       

 cryst.   s( 5) = (     0          1          0      )
                  (    -1         -1          0      )
                  (     0          0          1      )

 cart.    s( 5) = ( -0.5000000 -0.8660254  0.0000000 )
                  (  0.8660254 -0.5000000  0.0000000 )
                  (  0.0000000  0.0000000  1.0000000 )


      isym =  6     120 deg rotation - cryst. axis [0,0,-1]      

 cryst.   s( 6) = (    -1         -1          0      )
                  (     1          0          0      )
                  (     0          0          1      )

 cart.    s( 6) = ( -0.5000000  0.8660254  0.0000000 )
                  ( -0.8660254 -0.5000000  0.0000000 )
                  (  0.0000000  0.0000000  1.0000000 )


      isym =  7     inv. 180 deg rotation - cart. axis [0,1,0]   

 cryst.   s( 7) = (     1          0          0      )    f =( -0.0000000 )
                  (    -1         -1          0      )       (  0.0000000 )
                  (     0          0          1      )       (  0.5000000 )

 cart.    s( 7) = (  1.0000000 -0.0000000  0.0000000 )    f =( -0.0000000 )
                  (  0.0000000 -1.0000000  0.0000000 )       (  0.0000000 )
                  (  0.0000000  0.0000000  1.0000000 )       (  0.7426048 )


      isym =  8     inv. 180 deg rotation - cart. axis [1,0,0]   

 cryst.   s( 8) = (    -1          0          0      )
                  (     1          1          0      )
                  (     0          0          1      )

 cart.    s( 8) = ( -1.0000000  0.0000000  0.0000000 )
                  (  0.0000000  1.0000000  0.0000000 )
                  (  0.0000000  0.0000000  1.0000000 )


      isym =  9     inv. 180 deg rotation - cryst. axis [1,-1,0] 

 cryst.   s( 9) = (     0          1          0      )    f =(  0.0000000 )
                  (     1          0          0      )       (  0.0000000 )
                  (     0          0          1      )       (  0.5000000 )

 cart.    s( 9) = ( -0.5000000  0.8660254  0.0000000 )    f =(  0.0000000 )
                  (  0.8660254  0.5000000  0.0000000 )       (  0.0000000 )
                  (  0.0000000  0.0000000  1.0000000 )       (  0.7426048 )


      isym = 10     inv. 180 deg rotation - cryst. axis [2,1,0]  

 cryst.   s(10) = (    -1         -1          0      )    f =(  0.0000000 )
                  (     0          1          0      )       (  0.0000000 )
                  (     0          0          1      )       (  0.5000000 )

 cart.    s(10) = ( -0.5000000 -0.8660254  0.0000000 )    f =( -0.0000000 )
                  ( -0.8660254  0.5000000  0.0000000 )       (  0.0000000 )
                  (  0.0000000  0.0000000  1.0000000 )       (  0.7426048 )


      isym = 11     inv. 180 deg rotation - cryst. axis [0,1,0]  

 cryst.   s(11) = (     1          1          0      )
                  (     0         -1          0      )
                  (     0          0          1      )

 cart.    s(11) = (  0.5000000  0.8660254  0.0000000 )
                  (  0.8660254 -0.5000000  0.0000000 )
                  (  0.0000000  0.0000000  1.0000000 )


      isym = 12     inv. 180 deg rotation - cryst. axis [1,1,0]  

 cryst.   s(12) = (     0         -1          0      )
                  (    -1          0          0      )
                  (     0          0          1      )

 cart.    s(12) = (  0.5000000 -0.8660254  0.0000000 )
                  ( -0.8660254 -0.5000000  0.0000000 )
                  (  0.0000000  0.0000000  1.0000000 )


   Cartesian axes

     site n.     atom                  positions (alat units)
         1           Zn  tau(   1) = (   0.5000000   0.2886751   0.7435459  )
         2           Zn  tau(   2) = (  -0.0000000   0.5773503   0.0009410  )
         3           O   tau(   3) = (   0.5000000   0.2886751   1.3065039  )
         4           O   tau(   4) = (  -0.0000000   0.5773503   0.5638991  )

   Crystallographic axes

     site n.     atom                  positions (cryst. coord.)
         1           Zn  tau(   1) = (  0.6666667  0.3333333  0.5006336  )
         2           Zn  tau(   2) = (  0.3333333  0.6666667  0.0006336  )
         3           O   tau(   3) = (  0.6666667  0.3333333  0.8796764  )
         4           O   tau(   4) = (  0.3333333  0.6666667  0.3796764  )

     number of k points=    28
                       cart. coord. in units 2pi/alat
        k(    1) = (   0.0000000   0.0000000   0.0000000), wk =   0.0092593
        k(    2) = (   0.0000000   0.0000000   0.1122176), wk =   0.0185185
        k(    3) = (   0.0000000   0.0000000   0.2244352), wk =   0.0185185
        k(    4) = (   0.0000000   0.0000000  -0.3366528), wk =   0.0092593
        k(    5) = (   0.0000000   0.1924501   0.0000000), wk =   0.0555556
        k(    6) = (   0.0000000   0.1924501   0.1122176), wk =   0.1111111
        k(    7) = (   0.0000000   0.1924501   0.2244352), wk =   0.1111111
        k(    8) = (   0.0000000   0.1924501  -0.3366528), wk =   0.0555556
        k(    9) = (   0.0000000   0.3849002   0.0000000), wk =   0.0555556
        k(   10) = (   0.0000000   0.3849002   0.1122176), wk =   0.1111111
        k(   11) = (   0.0000000   0.3849002   0.2244352), wk =   0.1111111
        k(   12) = (   0.0000000   0.3849002  -0.3366528), wk =   0.0555556
        k(   13) = (   0.0000000  -0.5773503   0.0000000), wk =   0.0277778
        k(   14) = (   0.0000000  -0.5773503   0.1122176), wk =   0.0555556
        k(   15) = (   0.0000000  -0.5773503   0.2244352), wk =   0.0555556
        k(   16) = (   0.0000000  -0.5773503  -0.3366528), wk =   0.0277778
        k(   17) = (   0.1666667   0.2886751   0.0000000), wk =   0.0555556
        k(   18) = (   0.1666667   0.2886751   0.1122176), wk =   0.1111111
        k(   19) = (   0.1666667   0.2886751   0.2244352), wk =   0.1111111
        k(   20) = (   0.1666667   0.2886751  -0.3366528), wk =   0.0555556
        k(   21) = (   0.1666667   0.4811252   0.0000000), wk =   0.1111111
        k(   22) = (   0.1666667   0.4811252   0.1122176), wk =   0.2222222
        k(   23) = (   0.1666667   0.4811252   0.2244352), wk =   0.2222222
        k(   24) = (   0.1666667   0.4811252  -0.3366528), wk =   0.1111111
        k(   25) = (   0.3333333   0.5773503   0.0000000), wk =   0.0185185
        k(   26) = (   0.3333333   0.5773503   0.1122176), wk =   0.0370370
        k(   27) = (   0.3333333   0.5773503   0.2244352), wk =   0.0370370
        k(   28) = (   0.3333333   0.5773503  -0.3366528), wk =   0.0185185

                       cryst. coord.
        k(    1) = (   0.0000000   0.0000000   0.0000000), wk =   0.0092593
        k(    2) = (   0.0000000   0.0000000   0.1666667), wk =   0.0185185
        k(    3) = (   0.0000000   0.0000000   0.3333333), wk =   0.0185185
        k(    4) = (   0.0000000   0.0000000  -0.5000000), wk =   0.0092593
        k(    5) = (   0.0000000   0.1666667   0.0000000), wk =   0.0555556
        k(    6) = (   0.0000000   0.1666667   0.1666667), wk =   0.1111111
        k(    7) = (   0.0000000   0.1666667   0.3333333), wk =   0.1111111
        k(    8) = (   0.0000000   0.1666667  -0.5000000), wk =   0.0555556
        k(    9) = (   0.0000000   0.3333333   0.0000000), wk =   0.0555556
        k(   10) = (   0.0000000   0.3333333   0.1666667), wk =   0.1111111
        k(   11) = (   0.0000000   0.3333333   0.3333333), wk =   0.1111111
        k(   12) = (   0.0000000   0.3333333  -0.5000000), wk =   0.0555556
        k(   13) = (   0.0000000  -0.5000000   0.0000000), wk =   0.0277778
        k(   14) = (   0.0000000  -0.5000000   0.1666667), wk =   0.0555556
        k(   15) = (   0.0000000  -0.5000000   0.3333333), wk =   0.0555556
        k(   16) = (   0.0000000  -0.5000000  -0.5000000), wk =   0.0277778
        k(   17) = (   0.1666667   0.1666667   0.0000000), wk =   0.0555556
        k(   18) = (   0.1666667   0.1666667   0.1666667), wk =   0.1111111
        k(   19) = (   0.1666667   0.1666667   0.3333333), wk =   0.1111111
        k(   20) = (   0.1666667   0.1666667  -0.5000000), wk =   0.0555556
        k(   21) = (   0.1666667   0.3333333   0.0000000), wk =   0.1111111
        k(   22) = (   0.1666667   0.3333333   0.1666667), wk =   0.2222222
        k(   23) = (   0.1666667   0.3333333   0.3333333), wk =   0.2222222
        k(   24) = (   0.1666667   0.3333333  -0.5000000), wk =   0.1111111
        k(   25) = (   0.3333333   0.3333333   0.0000000), wk =   0.0185185
        k(   26) = (   0.3333333   0.3333333   0.1666667), wk =   0.0370370
        k(   27) = (   0.3333333   0.3333333   0.3333333), wk =   0.0370370
        k(   28) = (   0.3333333   0.3333333  -0.5000000), wk =   0.0185185

     Dense  grid:    34033 G-vectors     FFT dimensions: (  40,  40,  60)

     Smooth grid:    12009 G-vectors     FFT dimensions: (  27,  27,  40)

     Dynamical RAM for                 wfc:       0.21 MB

     Dynamical RAM for     wfc (w. buffer):       1.65 MB

     Dynamical RAM for           str. fact:       0.52 MB

     Dynamical RAM for           local pot:       0.00 MB

     Dynamical RAM for          nlocal pot:       0.60 MB

     Dynamical RAM for                qrad:       3.21 MB

     Dynamical RAM for          rho,v,vnew:       1.88 MB

     Dynamical RAM for               rhoin:       0.63 MB

     Dynamical RAM for            rho*nmix:       4.15 MB

     Dynamical RAM for           G-vectors:       1.02 MB

     Dynamical RAM for          h,s,v(r/c):       0.06 MB

     Dynamical RAM for          <psi|beta>:       0.01 MB

     Dynamical RAM for                 psi:       0.41 MB

     Dynamical RAM for                hpsi:       0.41 MB

     Dynamical RAM for                spsi:       0.41 MB

     Dynamical RAM for      wfcinit/wfcrot:       0.61 MB

     Dynamical RAM for           addusdens:      12.40 MB

     Dynamical RAM for          addusforce:      12.47 MB

     Estimated static dynamical RAM per process >      12.11 MB

     Estimated max dynamical RAM per process >      28.74 MB

     Estimated total dynamical RAM >     204.97 MB

     Check: negative core charge=   -0.000001

     Initial potential from superposition of free atoms

     starting charge      35.9925, renormalised to      36.0000
     Starting wfcs are   26 randomized atomic wfcs

     total cpu time spent up to now is        2.2 secs

     per-process dynamical memory:    24.4 Mb

     Self-consistent Calculation

     iteration #  1     ecut=    50.00 Ry     beta= 0.30
     Davidson diagonalization with overlap

---- Real-time Memory Report at c_bands before calling an iterative solver
            62 MiB given to the printing process from OS
            23 MiB allocation reported by mallinfo(arena+hblkhd)
        111351 MiB available memory on the node where the printing process lives
------------------
     ethr =  1.00E-02,  avg # of iterations =  2.0

     total cpu time spent up to now is        2.8 secs

     total energy              =    -361.33658405 Ry
     estimated scf accuracy    <       0.68934385 Ry

     iteration #  2     ecut=    50.00 Ry     beta= 0.30
     Davidson diagonalization with overlap

---- Real-time Memory Report at c_bands before calling an iterative solver
            66 MiB given to the printing process from OS
            35 MiB allocation reported by mallinfo(arena+hblkhd)
        111338 MiB available memory on the node where the printing process lives
------------------
     ethr =  1.91E-03,  avg # of iterations =  2.1

     total cpu time spent up to now is        3.4 secs

     total energy              =    -361.38107044 Ry
     estimated scf accuracy    <       0.13513307 Ry

     iteration #  3     ecut=    50.00 Ry     beta= 0.30
     Davidson diagonalization with overlap

---- Real-time Memory Report at c_bands before calling an iterative solver
            66 MiB given to the printing process from OS
            35 MiB allocation reported by mallinfo(arena+hblkhd)
        111338 MiB available memory on the node where the printing process lives
------------------
     ethr =  3.75E-04,  avg # of iterations =  6.1

     total cpu time spent up to now is        4.4 secs

     total energy              =    -361.45961134 Ry
     estimated scf accuracy    <       0.08139731 Ry

     iteration #  4     ecut=    50.00 Ry     beta= 0.30
     Davidson diagonalization with overlap

---- Real-time Memory Report at c_bands before calling an iterative solver
            66 MiB given to the printing process from OS
            35 MiB allocation reported by mallinfo(arena+hblkhd)
        111338 MiB available memory on the node where the printing process lives
------------------
     ethr =  2.26E-04,  avg # of iterations =  2.0

     total cpu time spent up to now is        5.0 secs

     total energy              =    -361.46170964 Ry
     estimated scf accuracy    <       0.01978399 Ry

     iteration #  5     ecut=    50.00 Ry     beta= 0.30
     Davidson diagonalization with overlap

---- Real-time Memory Report at c_bands before calling an iterative solver
            66 MiB given to the printing process from OS
            35 MiB allocation reported by mallinfo(arena+hblkhd)
        111339 MiB available memory on the node where the printing process lives
------------------
     ethr =  5.50E-05,  avg # of iterations =  9.1

     total cpu time spent up to now is        6.4 secs

     total energy              =    -361.51271242 Ry
     estimated scf accuracy    <       0.40189115 Ry

     iteration #  6     ecut=    50.00 Ry     beta= 0.30
     Davidson diagonalization with overlap

---- Real-time Memory Report at c_bands before calling an iterative solver
            67 MiB given to the printing process from OS
            36 MiB allocation reported by mallinfo(arena+hblkhd)
        111337 MiB available memory on the node where the printing process lives
------------------
     ethr =  5.50E-05,  avg # of iterations =  5.1

     total cpu time spent up to now is        7.2 secs

     total energy              =    -361.42732643 Ry
     estimated scf accuracy    <       0.19114903 Ry

     iteration #  7     ecut=    50.00 Ry     beta= 0.30
     Davidson diagonalization with overlap

---- Real-time Memory Report at c_bands before calling an iterative solver
            67 MiB given to the printing process from OS
            36 MiB allocation reported by mallinfo(arena+hblkhd)
        111336 MiB available memory on the node where the printing process lives
------------------
     ethr =  5.50E-05,  avg # of iterations =  8.0

     total cpu time spent up to now is        8.4 secs

     total energy              =    -361.47170735 Ry
     estimated scf accuracy    <       0.00076473 Ry

     iteration #  8     ecut=    50.00 Ry     beta= 0.30
     Davidson diagonalization with overlap

---- Real-time Memory Report at c_bands before calling an iterative solver
            67 MiB given to the printing process from OS
            36 MiB allocation reported by mallinfo(arena+hblkhd)
        111337 MiB available memory on the node where the printing process lives
------------------
     ethr =  2.12E-06,  avg # of iterations =  6.2

     total cpu time spent up to now is        9.4 secs

     total energy              =    -361.47072095 Ry
     estimated scf accuracy    <       0.00370574 Ry

     iteration #  9     ecut=    50.00 Ry     beta= 0.30
     Davidson diagonalization with overlap

---- Real-time Memory Report at c_bands before calling an iterative solver
            67 MiB given to the printing process from OS
            36 MiB allocation reported by mallinfo(arena+hblkhd)
        111337 MiB available memory on the node where the printing process lives
------------------
     ethr =  2.12E-06,  avg # of iterations =  5.9

     total cpu time spent up to now is       10.4 secs

     total energy              =    -361.47121864 Ry
     estimated scf accuracy    <       0.00006951 Ry

     iteration # 10     ecut=    50.00 Ry     beta= 0.30
     Davidson diagonalization with overlap

---- Real-time Memory Report at c_bands before calling an iterative solver
            67 MiB given to the printing process from OS
            36 MiB allocation reported by mallinfo(arena+hblkhd)
        111337 MiB available memory on the node where the printing process lives
------------------
     ethr =  1.93E-07,  avg # of iterations =  7.7

     total cpu time spent up to now is       11.6 secs

     total energy              =    -361.47124665 Ry
     estimated scf accuracy    <       0.00019871 Ry

     iteration # 11     ecut=    50.00 Ry     beta= 0.30
     Davidson diagonalization with overlap

---- Real-time Memory Report at c_bands before calling an iterative solver
            67 MiB given to the printing process from OS
            36 MiB allocation reported by mallinfo(arena+hblkhd)
        111337 MiB available memory on the node where the printing process lives
------------------
     ethr =  1.93E-07,  avg # of iterations =  4.9

     total cpu time spent up to now is       12.5 secs

     total energy              =    -361.47128134 Ry
     estimated scf accuracy    <       0.00000177 Ry

     iteration # 12     ecut=    50.00 Ry     beta= 0.30
     Davidson diagonalization with overlap

---- Real-time Memory Report at c_bands before calling an iterative solver
            67 MiB given to the printing process from OS
            36 MiB allocation reported by mallinfo(arena+hblkhd)
        111337 MiB available memory on the node where the printing process lives
------------------
     ethr =  4.91E-09,  avg # of iterations =  7.1

     total cpu time spent up to now is       13.7 secs

     total energy              =    -361.47128572 Ry
     estimated scf accuracy    <       0.00000083 Ry

     iteration # 13     ecut=    50.00 Ry     beta= 0.30
     Davidson diagonalization with overlap

---- Real-time Memory Report at c_bands before calling an iterative solver
            67 MiB given to the printing process from OS
            36 MiB allocation reported by mallinfo(arena+hblkhd)
        111333 MiB available memory on the node where the printing process lives
------------------
     ethr =  2.30E-09,  avg # of iterations =  2.6

     total cpu time spent up to now is       14.3 secs

     total energy              =    -361.47128578 Ry
     estimated scf accuracy    <       0.00000140 Ry

     iteration # 14     ecut=    50.00 Ry     beta= 0.30
     Davidson diagonalization with overlap

---- Real-time Memory Report at c_bands before calling an iterative solver
            67 MiB given to the printing process from OS
            36 MiB allocation reported by mallinfo(arena+hblkhd)
        111333 MiB available memory on the node where the printing process lives
------------------
     ethr =  2.30E-09,  avg # of iterations =  1.2

     total cpu time spent up to now is       14.8 secs

     total energy              =    -361.47128528 Ry
     estimated scf accuracy    <       0.00000150 Ry

     iteration # 15     ecut=    50.00 Ry     beta= 0.30
     Davidson diagonalization with overlap

---- Real-time Memory Report at c_bands before calling an iterative solver
            67 MiB given to the printing process from OS
            36 MiB allocation reported by mallinfo(arena+hblkhd)
        111334 MiB available memory on the node where the printing process lives
------------------
     ethr =  2.30E-09,  avg # of iterations =  2.0

     total cpu time spent up to now is       15.4 secs

     total energy              =    -361.47128507 Ry
     estimated scf accuracy    <       0.00000063 Ry

     iteration # 16     ecut=    50.00 Ry     beta= 0.30
     Davidson diagonalization with overlap

---- Real-time Memory Report at c_bands before calling an iterative solver
            67 MiB given to the printing process from OS
            36 MiB allocation reported by mallinfo(arena+hblkhd)
        111334 MiB available memory on the node where the printing process lives
------------------
     ethr =  1.74E-09,  avg # of iterations =  3.5

     total cpu time spent up to now is       16.1 secs

     total energy              =    -361.47128521 Ry
     estimated scf accuracy    <       0.00000002 Ry

     iteration # 17     ecut=    50.00 Ry     beta= 0.30
     Davidson diagonalization with overlap

---- Real-time Memory Report at c_bands before calling an iterative solver
            67 MiB given to the printing process from OS
            36 MiB allocation reported by mallinfo(arena+hblkhd)
        111334 MiB available memory on the node where the printing process lives
------------------
     ethr =  5.04E-11,  avg # of iterations =  7.8

     total cpu time spent up to now is       17.4 secs

     total energy              =    -361.47128525 Ry
     estimated scf accuracy    <       0.00000004 Ry

     iteration # 18     ecut=    50.00 Ry     beta= 0.30
     Davidson diagonalization with overlap

---- Real-time Memory Report at c_bands before calling an iterative solver
            67 MiB given to the printing process from OS
            36 MiB allocation reported by mallinfo(arena+hblkhd)
        111335 MiB available memory on the node where the printing process lives
------------------
     ethr =  5.04E-11,  avg # of iterations =  4.2

     total cpu time spent up to now is       18.1 secs

     End of self-consistent calculation

          k = 0.0000 0.0000 0.0000 (  1519 PWs)   bands (ev):

    -8.9644  -7.6161   3.8593   4.2497   4.2497   4.2972   4.5890   4.5890
     6.1793   6.1793   6.6248   6.6248   6.9847  10.0287  10.0287  11.3989
    11.3989  11.4274

     occupation numbers 
     1.0000   1.0000   1.0000   1.0000   1.0000   1.0000   1.0000   1.0000
     1.0000   1.0000   1.0000   1.0000   1.0000   1.0000   1.0000   1.0000
     1.0000   1.0000

          k = 0.0000 0.0000 0.1122 (  1525 PWs)   bands (ev):

    -8.8790  -7.7106   3.7258   4.1719   4.2538   4.2538   4.5444   4.5444
     6.2278   6.2278   6.6188   6.6188   7.4040  10.1211  10.1211  10.9454
    11.3108  11.3108

     occupation numbers 
     1.0000   1.0000   1.0000   1.0000   1.0000   1.0000   1.0000   1.0000
     1.0000   1.0000   1.0000   1.0000   1.0000   1.0000   1.0000   1.0000
     1.0000   1.0000

          k = 0.0000 0.0000 0.2244 (  1532 PWs)   bands (ev):

    -8.6418  -7.9663   3.5733   3.8863   4.2780   4.2780   4.4426   4.4426
     6.3480   6.3480   6.5796   6.5796   8.3291  10.1896  10.3756  10.3756
    11.0659  11.0659

     occupation numbers 
     1.0000   1.0000   1.0000   1.0000   1.0000   1.0000   1.0000   1.0000
     1.0000   1.0000   1.0000   1.0000   1.0000   1.0000   1.0000   1.0000
     1.0000   1.0000

          k = 0.0000 0.0000-0.3367 (  1532 PWs)   bands (ev):

    -8.3088  -8.3088   3.6332   3.6332   4.3419   4.3419   4.3419   4.3419
     6.4830   6.4830   6.4830   6.4830   9.3204   9.3204  10.7235  10.7235
    10.7235  10.7235

     occupation numbers 
     1.0000   1.0000   1.0000   1.0000   1.0000   1.0000   1.0000   1.0000
     1.0000   1.0000   1.0000   1.0000   1.0000   1.0000   1.0000   1.0000
     1.0000   1.0000

          k = 0.0000 0.1925 0.0000 (  1519 PWs)   bands (ev):

    -8.7513  -7.5538   3.9174   4.1090   4.3475   4.4200   4.6158   4.7447
     6.0784   6.1836   6.5966   6.6579   7.0765   9.0847   9.5554  10.3180
    11.1657  11.1718

     occupation numbers 
     1.0000   1.0000   1.0000   1.0000   1.0000   1.0000   1.0000   1.0000
     1.0000   1.0000   1.0000   1.0000   1.0000   1.0000   1.0000   1.0000
     1.0000   1.0000

          k = 0.0000 0.1925 0.1122 (  1514 PWs)   bands (ev):

    -8.6729  -7.6343   3.7935   3.9270   4.3561   4.3937   4.5838   4.6959
     6.1511   6.2292   6.6431   6.6521   7.4636   9.1914   9.6696  10.1137
    11.0702  11.1416

     occupation numbers 
     1.0000   1.0000   1.0000   1.0000   1.0000   1.0000   1.0000   1.0000
     1.0000   1.0000   1.0000   1.0000   1.0000   1.0000   1.0000   1.0000
     1.0000   1.0000

          k = 0.0000 0.1925 0.2244 (  1508 PWs)   bands (ev):

    -8.4567  -7.8553   3.5462   3.6906   4.3636   4.3918   4.4931   4.5835
     6.3132   6.3436   6.5860   6.6158   8.3676   9.4885   9.7526   9.9778
    10.7872  10.8138

     occupation numbers 
     1.0000   1.0000   1.0000   1.0000   1.0000   1.0000   1.0000   1.0000
     1.0000   1.0000   1.0000   1.0000   1.0000   1.0000   1.0000   1.0000
     1.0000   1.0000

          k = 0.0000 0.1925-0.3367 (  1512 PWs)   bands (ev):

    -8.1574  -8.1574   3.5125   3.5125   4.4022   4.4022   4.4691   4.4691
     6.4781   6.4781   6.4883   6.4883   9.1556   9.1556  10.1695  10.1695
    10.3889  10.3889

     occupation numbers 
     1.0000   1.0000   1.0000   1.0000   1.0000   1.0000   1.0000   1.0000
     1.0000   1.0000   1.0000   1.0000   1.0000   1.0000   1.0000   1.0000
     1.0000   1.0000

          k = 0.0000 0.3849 0.0000 (  1507 PWs)   bands (ev):

    -8.2554  -7.4723   3.6092   4.0916   4.4995   4.5720   5.0881   5.1464
     6.0329   6.3269   6.4878   6.7047   7.2490   7.7530   8.5701   8.9185
    10.4374  10.6521

     occupation numbers 
     1.0000   1.0000   1.0000   1.0000   1.0000   1.0000   1.0000   1.0000
     1.0000   1.0000   1.0000   1.0000   1.0000   1.0000   1.0000   1.0000
     1.0000   1.0000

          k = 0.0000 0.3849 0.1122 (  1503 PWs)   bands (ev):

    -8.1979  -7.5176   3.5265   3.8467   4.5250   4.5508   4.9325   5.0764
     6.1309   6.3523   6.6745   6.6936   7.3771   7.9926   8.7392   8.8220
    10.5291  10.5481

     occupation numbers 
     1.0000   1.0000   1.0000   1.0000   1.0000   1.0000   1.0000   1.0000
     1.0000   1.0000   1.0000   1.0000   1.0000   1.0000   1.0000   1.0000
     1.0000   1.0000

          k = 0.0000 0.3849 0.2244 (  1501 PWs)   bands (ev):

    -8.0434  -7.6481   3.3508   3.4661   4.5391   4.6037   4.7324   4.9130
     6.3334   6.4197   6.6012   6.6994   7.7306   8.2845   9.1006   9.1654
    10.1854  10.5193

     occupation numbers 
     1.0000   1.0000   1.0000   1.0000   1.0000   1.0000   1.0000   1.0000
     1.0000   1.0000   1.0000   1.0000   1.0000   1.0000   1.0000   1.0000
     1.0000   1.0000

          k = 0.0000 0.3849-0.3367 (  1502 PWs)   bands (ev):

    -7.8397  -7.8397   3.2855   3.2855   4.5972   4.5972   4.7381   4.7381
     6.5098   6.5098   6.5423   6.5423   8.0543   8.0543   9.6940   9.6940
     9.9737   9.9737

     occupation numbers 
     1.0000   1.0000   1.0000   1.0000   1.0000   1.0000   1.0000   1.0000
     1.0000   1.0000   1.0000   1.0000   1.0000   1.0000   1.0000   1.0000
     1.0000   1.0000

          k = 0.0000-0.5774 0.0000 (  1494 PWs)   bands (ev):

    -7.9212  -7.5031   3.6863   3.7751   4.5458   4.7021   5.1530   5.4324
     6.2551   6.5094   6.7239   6.7868   7.1546   7.4173   7.9777   8.0019
     9.9184  10.3557

     occupation numbers 
     1.0000   1.0000   1.0000   1.0000   1.0000   1.0000   1.0000   1.0000
     1.0000   1.0000   1.0000   1.0000   1.0000   1.0000   1.0000   1.0000
     1.0000   1.0000

          k = 0.0000-0.5774 0.1122 (  1504 PWs)   bands (ev):

    -7.8841  -7.5206   3.5695   3.6051   4.5825   4.6661   5.0496   5.3354
     6.3722   6.5157   6.6775   6.7906   7.1873   7.3264   8.2028   8.4333
    10.0757  10.2232

     occupation numbers 
     1.0000   1.0000   1.0000   1.0000   1.0000   1.0000   1.0000   1.0000
     1.0000   1.0000   1.0000   1.0000   1.0000   1.0000   1.0000   1.0000
     1.0000   1.0000

          k = 0.0000-0.5774 0.2244 (  1492 PWs)   bands (ev):

    -7.7885  -7.5768   3.3104   3.3292   4.6611   4.6941   4.8680   5.1132
     6.5344   6.5555   6.6103   6.7668   7.2382   7.2713   8.7192   9.2713
     9.8525  10.2607

     occupation numbers 
     1.0000   1.0000   1.0000   1.0000   1.0000   1.0000   1.0000   1.0000
     1.0000   1.0000   1.0000   1.0000   1.0000   1.0000   1.0000   1.0000
     1.0000   1.0000

          k = 0.0000-0.5774-0.3367 (  1492 PWs)   bands (ev):

    -7.6728  -7.6728   3.1953   3.1953   4.7303   4.7303   4.8779   4.8779
     6.5643   6.5643   6.6896   6.6896   7.2608   7.2608   9.3159   9.3159
    10.0030  10.0030

     occupation numbers 
     1.0000   1.0000   1.0000   1.0000   1.0000   1.0000   1.0000   1.0000
     1.0000   1.0000   1.0000   1.0000   1.0000   1.0000   1.0000   1.0000
     1.0000   1.0000

          k = 0.1667 0.2887 0.0000 (  1513 PWs)   bands (ev):

    -8.3939  -7.4829   3.7686   4.0658   4.5243   4.5364   4.8809   5.0353
     6.0019   6.2153   6.5475   6.6916   7.2768   8.1823   8.4850   9.3928
    10.6305  10.6745

     occupation numbers 
     1.0000   1.0000   1.0000   1.0000   1.0000   1.0000   1.0000   1.0000
     1.0000   1.0000   1.0000   1.0000   1.0000   1.0000   1.0000   1.0000
     1.0000   1.0000

          k = 0.1667 0.2887 0.1122 (  1514 PWs)   bands (ev):

    -8.3298  -7.5387   3.6873   3.8618   4.4825   4.4908   4.7823   4.9722
     6.0921   6.3034   6.6685   6.6907   7.5351   8.3594   8.6166   9.2560
    10.5006  10.7527

     occupation numbers 
     1.0000   1.0000   1.0000   1.0000   1.0000   1.0000   1.0000   1.0000
     1.0000   1.0000   1.0000   1.0000   1.0000   1.0000   1.0000   1.0000
     1.0000   1.0000

          k = 0.1667 0.2887 0.2244 (  1508 PWs)   bands (ev):

    -8.1556  -7.6964   3.4993   3.5139   4.4422   4.4691   4.6909   4.8337
     6.2925   6.4014   6.6057   6.6796   8.1024   8.7557   9.0293   9.2058
    10.1494  10.6351

     occupation numbers 
     1.0000   1.0000   1.0000   1.0000   1.0000   1.0000   1.0000   1.0000
     1.0000   1.0000   1.0000   1.0000   1.0000   1.0000   1.0000   1.0000
     1.0000   1.0000

          k = 0.1667 0.2887-0.3367 (  1504 PWs)   bands (ev):

    -7.9220  -7.9220   3.3858   3.3858   4.4516   4.4516   4.7113   4.7113
     6.4775   6.4775   6.5436   6.5436   8.4941   8.4941   9.6159   9.6159
    10.0279  10.0279

     occupation numbers 
     1.0000   1.0000   1.0000   1.0000   1.0000   1.0000   1.0000   1.0000
     1.0000   1.0000   1.0000   1.0000   1.0000   1.0000   1.0000   1.0000
     1.0000   1.0000

          k = 0.1667 0.4811 0.0000 (  1501 PWs)   bands (ev):

    -7.9367  -7.4932   3.7987   4.0609   4.4625   4.6502   5.2447   5.4195
     6.1640   6.2152   6.7140   6.7270   7.0376   7.4212   7.9460   8.3264
     9.8156  10.0541

     occupation numbers 
     1.0000   1.0000   1.0000   1.0000   1.0000   1.0000   1.0000   1.0000
     1.0000   1.0000   1.0000   1.0000   1.0000   1.0000   1.0000   1.0000
     1.0000   1.0000

          k = 0.1667 0.4811 0.1122 (  1497 PWs)   bands (ev):

    -7.8982  -7.5126   3.6930   3.8790   4.4394   4.6109   5.1112   5.2848
     6.1802   6.4252   6.6999   6.8557   7.0305   7.6192   7.9384   8.5919
     9.7922  10.1006

     occupation numbers 
     1.0000   1.0000   1.0000   1.0000   1.0000   1.0000   1.0000   1.0000
     1.0000   1.0000   1.0000   1.0000   1.0000   1.0000   1.0000   1.0000
     1.0000   1.0000

          k = 0.1667 0.4811 0.2244 (  1499 PWs)   bands (ev):

    -7.7984  -7.5740   3.4697   3.5332   4.4578   4.5574   4.9702   5.0823
     6.3246   6.4761   6.7112   6.8826   7.2410   7.6984   8.2358   9.2214
     9.5108  10.2786

     occupation numbers 
     1.0000   1.0000   1.0000   1.0000   1.0000   1.0000   1.0000   1.0000
     1.0000   1.0000   1.0000   1.0000   1.0000   1.0000   1.0000   1.0000
     1.0000   1.0000

          k = 0.1667 0.4811-0.3367 (  1496 PWs)   bands (ev):

    -7.6766  -7.6766   3.3683   3.3683   4.5112   4.5112   4.9559   4.9559
     6.4351   6.4351   6.7825   6.7825   7.5063   7.5063   8.8141   8.8141
    10.0543  10.0543

     occupation numbers 
     1.0000   1.0000   1.0000   1.0000   1.0000   1.0000   1.0000   1.0000
     1.0000   1.0000   1.0000   1.0000   1.0000   1.0000   1.0000   1.0000
     1.0000   1.0000

          k = 0.3333 0.5774 0.0000 (  1500 PWs)   bands (ev):

    -7.6408  -7.6408   4.0784   4.3511   4.3511   4.7166   5.4151   5.4151
     6.0886   6.2965   6.2965   6.3911   6.8403   7.6039   7.6039   9.0729
     9.0729   9.3202

     occupation numbers 
     1.0000   1.0000   1.0000   1.0000   1.0000   1.0000   1.0000   1.0000
     1.0000   1.0000   1.0000   1.0000   1.0000   1.0000   1.0000   1.0000
     1.0000   1.0000

          k = 0.3333 0.5774 0.1122 (  1503 PWs)   bands (ev):

    -7.6296  -7.6296   4.1014   4.1481   4.1481   4.6368   5.2774   5.2774
     6.1119   6.3722   6.5632   6.5632   7.0193   7.5398   7.5398   9.1423
     9.3317   9.3317

     occupation numbers 
     1.0000   1.0000   1.0000   1.0000   1.0000   1.0000   1.0000   1.0000
     1.0000   1.0000   1.0000   1.0000   1.0000   1.0000   1.0000   1.0000
     1.0000   1.0000

          k = 0.3333 0.5774 0.2244 (  1500 PWs)   bands (ev):

    -7.6073  -7.6073   3.7849   3.7849   4.1738   4.4660   5.1599   5.1599
     6.1709   6.3203   6.9256   6.9256   7.4091   7.4091   7.4766   8.6775
     9.8369   9.8369

     occupation numbers 
     1.0000   1.0000   1.0000   1.0000   1.0000   1.0000   1.0000   1.0000
     1.0000   1.0000   1.0000   1.0000   1.0000   1.0000   1.0000   1.0000
     1.0000   1.0000

          k = 0.3333 0.5774-0.3367 (  1500 PWs)   bands (ev):

    -7.5960  -7.5960   3.6235   3.6235   4.2980   4.2980   5.1256   5.1256
     6.2471   6.2471   7.1195   7.1195   7.2959   7.2959   8.0735   8.0735
    10.0882  10.0882

     occupation numbers 
     1.0000   1.0000   1.0000   1.0000   1.0000   1.0000   1.0000   1.0000
     1.0000   1.0000   1.0000   1.0000   1.0000   1.0000   1.0000   1.0000
     1.0000   1.0000

     highest occupied level (ev):    11.4274

!    total energy              =    -361.47128525 Ry
     estimated scf accuracy    <          2.7E-09 Ry

     The total energy is the sum of the following terms:
     one-electron contribution =    -123.55707161 Ry
     hartree contribution      =     107.83419945 Ry
     xc contribution           =    -110.20981669 Ry
     ewald contribution        =    -235.53859640 Ry

     convergence has been achieved in  18 iterations

     Forces acting on atoms (cartesian axes, Ry/au):

     atom    1 type  1   force =     0.00000000    0.00000000   -0.10319212
     atom    2 type  1   force =     0.00000000    0.00000000   -0.10319212
     atom    3 type  2   force =     0.00000000    0.00000000    0.10319212
     atom    4 type  2   force =     0.00000000    0.00000000    0.10319212
     The non-local contrib.  to forces
     atom    1 type  1   force =     0.00000000    0.00000000   -0.28289745
     atom    2 type  1   force =     0.00000000   -0.00000000   -0.28289745
     atom    3 type  2   force =     0.00000000    0.00000000   -0.16350952
     atom    4 type  2   force =     0.00000000   -0.00000000   -0.16350952
     The ionic contribution  to forces
     atom    1 type  1   force =    -0.00000000    0.00000000   -1.97868559
     atom    2 type  1   force =     0.00000000   -0.00000000   -1.97868559
     atom    3 type  2   force =    -0.00000000    0.00000000    1.97868559
     atom    4 type  2   force =     0.00000000   -0.00000000    1.97868559
     The local contribution  to forces
     atom    1 type  1   force =    -0.00000002    0.00000001    2.13083322
     atom    2 type  1   force =     0.00000006   -0.00000003    2.13083322
     atom    3 type  2   force =    -0.00000001    0.00000000   -1.71282492
     atom    4 type  2   force =     0.00000002   -0.00000001   -1.71282492
     The core correction contribution to forces
     atom    1 type  1   force =    -0.00000000    0.00000000    0.02757063
     atom    2 type  1   force =     0.00000001   -0.00000000    0.02757063
     atom    3 type  2   force =     0.00000000   -0.00000000    0.00083880
     atom    4 type  2   force =    -0.00000000    0.00000000    0.00083880
     The Hubbard contrib.    to forces
     atom    1 type  1   force =     0.00000000    0.00000000    0.00000000
     atom    2 type  1   force =     0.00000000    0.00000000    0.00000000
     atom    3 type  2   force =     0.00000000    0.00000000    0.00000000
     atom    4 type  2   force =     0.00000000    0.00000000    0.00000000
     The SCF correction term to forces
     atom    1 type  1   force =    -0.00000000    0.00000000   -0.00001729
     atom    2 type  1   force =     0.00000000   -0.00000000   -0.00001729
     atom    3 type  2   force =    -0.00000000    0.00000000   -0.00000221
     atom    4 type  2   force =    -0.00000000    0.00000000   -0.00000221

     Total force =     0.206384     Total SCF correction =     0.000025

     init_run     :      1.82s CPU      1.87s WALL (       1 calls)
     electrons    :     15.39s CPU     15.87s WALL (       1 calls)
     forces       :      0.38s CPU      0.38s WALL (       1 calls)

     Called by init_run:
     wfcinit      :      0.20s CPU      0.21s WALL (       1 calls)
     wfcinit:atom :      0.00s CPU      0.00s WALL (       7 calls)
     wfcinit:wfcr :      0.18s CPU      0.19s WALL (       7 calls)
     potinit      :      0.28s CPU      0.28s WALL (       1 calls)
     hinit0       :      1.11s CPU      1.12s WALL (       1 calls)

     Called by electrons:
     c_bands      :     11.78s CPU     12.13s WALL (      18 calls)
     sum_band     :      2.02s CPU      2.11s WALL (      18 calls)
     v_of_rho     :      0.82s CPU      0.85s WALL (      19 calls)
     v_h          :      0.04s CPU      0.04s WALL (      19 calls)
     v_xc         :      0.82s CPU      0.85s WALL (      20 calls)
     newd         :      0.68s CPU      0.70s WALL (      19 calls)
     mix_rho      :      0.11s CPU      0.11s WALL (      18 calls)

     Called by c_bands:
     init_us_2    :      0.16s CPU      0.16s WALL (     266 calls)
     init_us_2:cp :      0.15s CPU      0.16s WALL (     266 calls)
     cegterg      :      9.80s CPU     10.14s WALL (     126 calls)

     Called by sum_band:
     sum_band:wei :      0.00s CPU      0.00s WALL (      18 calls)
     sum_band:loo :      1.14s CPU      1.20s WALL (      18 calls)
     sum_band:buf :      0.01s CPU      0.01s WALL (     126 calls)
     sum_band:ini :      0.07s CPU      0.07s WALL (     126 calls)
     sum_band:cal :      0.10s CPU      0.11s WALL (     126 calls)
     sum_band:bec :      0.00s CPU      0.00s WALL (     126 calls)
     addusdens    :      0.72s CPU      0.75s WALL (      18 calls)
     addusd:skk   :      0.00s CPU      0.00s WALL (      36 calls)
     addusd:dgemm :      0.14s CPU      0.16s WALL (      36 calls)
     addusd:qvan2 :      0.50s CPU      0.50s WALL (      36 calls)

     Called by *egterg:
     cdiaghg      :      0.68s CPU      0.68s WALL (     771 calls)
     cegterg:over :      0.52s CPU      0.53s WALL (     645 calls)
     cegterg:upda :      0.23s CPU      0.23s WALL (     645 calls)
     cegterg:last :      0.47s CPU      0.47s WALL (     430 calls)
     h_psi        :      7.53s CPU      7.85s WALL (     778 calls)
     s_psi        :      0.31s CPU      0.32s WALL (     778 calls)
     g_psi        :      0.05s CPU      0.05s WALL (     645 calls)

     Called by h_psi:
     h_psi:calbec :      0.46s CPU      0.48s WALL (     778 calls)
     vloc_psi     :      6.71s CPU      7.01s WALL (     778 calls)
     add_vuspsi   :      0.33s CPU      0.33s WALL (     778 calls)

     General routines
     calbec       :      0.59s CPU      0.61s WALL (     932 calls)
     fft          :      0.61s CPU      0.63s WALL (     256 calls)
     ffts         :      0.11s CPU      0.11s WALL (      37 calls)
     fftw         :      7.04s CPU      7.36s WALL (   18822 calls)
     interpolate  :      0.13s CPU      0.13s WALL (      19 calls)

     Parallel routines

     PWSCF        :     17.96s CPU     18.49s WALL


   This run was terminated on:  10: 5:12  26Aug2025            

=------------------------------------------------------------------------------=
   JOB DONE.
=------------------------------------------------------------------------------=
