
     Program PWSCF v.7.0 starts on 26Aug2025 at 10:27:34 

     This program is part of the open-source Quantum ESPRESSO suite
     for quantum simulation of materials; please cite
         "P. Giannozzi et al., J. Phys.:Condens. Matter 21 395502 (2009);
         "P. Giannozzi et al., J. Phys.:Condens. Matter 29 465901 (2017);
         "P. Giannozzi et al., J. Chem. Phys. 152 154105 (2020);
          URL http://www.quantum-espresso.org", 
     in publications or presentations arising from this work. More details at
     http://www.quantum-espresso.org/quote

     Parallel version (MPI & OpenMP), running on       8 processor cores
     Number of MPI processes:                 8
     Threads/MPI process:                     1

     MPI processes distributed on     1 nodes
     K-points division:     npool     =       4
     R & G space division:  proc/nbgrp/npool/nimage =       2
     111604 MiB available memory on the printing compute node when the environment starts

     Reading input from /home/jvc/QEspresso7.2/ZnO_database/scripts/cell111.in/ZnO-3.34-1.49-111.in
Warning: card &CELL ignored
Warning: card / ignored
Warning: card &FCP ignored
Warning: card / ignored
Warning: card &RISM ignored
Warning: card / ignored

     Current dimensions of program PWSCF are:
     Max number of different atomic species (ntypx) = 10
     Max number of k-points (npk) =  40000
     Max angular momentum in pseudopotentials (lmaxx) =  4
     file Zn.upf: wavefunction(s)  3D renormalized
     Message from routine setup:
     using ibrav=0 with symmetry is DISCOURAGED, use correct ibrav instead

     Subspace diagonalization in iterative solution of the eigenvalue problem:
     a serial algorithm will be used


     Parallelization info
     --------------------
     sticks:   dense  smooth     PW     G-vecs:    dense   smooth      PW
     Min         549     273     81                21698     7703    1295
     Max         550     274     82                21699     7706    1302
     Sum        1099     547    163                43397    15409    2597

     Using Slab Decomposition



     bravais-lattice index     =            0
     lattice parameter (alat)  =       6.3024  a.u.
     unit-cell volume          =     321.9902 (a.u.)^3
     number of atoms/cell      =            4
     number of atomic types    =            2
     number of electrons       =        36.00
     number of Kohn-Sham states=           18
     kinetic-energy cutoff     =      50.0000  Ry
     charge density cutoff     =     400.0000  Ry
     scf convergence threshold =      1.0E-08
     mixing beta               =       0.3000
     number of iterations used =            8  plain     mixing
     Exchange-correlation= PBE
                           (   1   4   3   4   0   0   0)

     celldm(1)=   6.302431  celldm(2)=   0.000000  celldm(3)=   0.000000
     celldm(4)=   0.000000  celldm(5)=   0.000000  celldm(6)=   0.000000

     crystal axes: (cart. coord. in units of alat)
               a(1) = (   1.000000   0.000000   0.000000 )  
               a(2) = (  -0.500000   0.866025   0.000000 )  
               a(3) = (   0.000000   0.000000   1.485210 )  

     reciprocal axes: (cart. coord. in units 2 pi/alat)
               b(1) = (  1.000000  0.577350 -0.000000 )  
               b(2) = (  0.000000  1.154701  0.000000 )  
               b(3) = (  0.000000 -0.000000  0.673306 )  


     PseudoPot. # 1 for Zn read from file:
     /home/jvc/QEspresso7.2/ZnO_database/pseudos/Zn.upf
     MD5 check sum: 7f56cabf9682ed8c977c2f7d0c5985c5
     Pseudo is Ultrasoft + core correction, Zval = 12.0
     Generated using &quot;atomic&quot; code by A. Dal Corso  v.6.2.2
     Using radial grid of 1201 points,  6 beta functions with: 
                l(1) =   0
                l(2) =   0
                l(3) =   1
                l(4) =   1
                l(5) =   2
                l(6) =   2
     Q(r) pseudized with 0 coefficients 


     PseudoPot. # 2 for O  read from file:
     /home/jvc/QEspresso7.2/ZnO_database/pseudos/O.upf
     MD5 check sum: 91400c9766925bcf19f520983a725ff0
     Pseudo is Ultrasoft + core correction, Zval =  6.0
     Generated using &quot;atomic&quot; code by A. Dal Corso  v.6.3MaX
     Using radial grid of 1095 points,  4 beta functions with: 
                l(1) =   0
                l(2) =   0
                l(3) =   1
                l(4) =   1
     Q(r) pseudized with 0 coefficients 


     atomic species   valence    mass     pseudopotential
        Zn            12.00    65.38000     Zn( 1.00)
        O              6.00    15.99900     O ( 1.00)

     12 Sym. Ops. (no inversion) found ( 6 have fractional translation)


                                    s                        frac. trans.

      isym =  1     identity                                     

 cryst.   s( 1) = (     1          0          0      )
                  (     0          1          0      )
                  (     0          0          1      )

 cart.    s( 1) = (  1.0000000  0.0000000  0.0000000 )
                  (  0.0000000  1.0000000  0.0000000 )
                  (  0.0000000  0.0000000  1.0000000 )


      isym =  2     180 deg rotation - cart. axis [0,0,1]        

 cryst.   s( 2) = (    -1          0          0      )    f =(  0.0000000 )
                  (     0         -1          0      )       (  0.0000000 )
                  (     0          0          1      )       (  0.5000000 )

 cart.    s( 2) = ( -1.0000000  0.0000000  0.0000000 )    f =(  0.0000000 )
                  (  0.0000000 -1.0000000  0.0000000 )       (  0.0000000 )
                  (  0.0000000  0.0000000  1.0000000 )       (  0.7426048 )


      isym =  3      60 deg rotation - cryst. axis [0,0,1]       

 cryst.   s( 3) = (     1          1          0      )    f =( -0.0000000 )
                  (    -1          0          0      )       ( -0.0000000 )
                  (     0          0          1      )       (  0.5000000 )

 cart.    s( 3) = (  0.5000000 -0.8660254  0.0000000 )    f =( -0.0000000 )
                  (  0.8660254  0.5000000  0.0000000 )       ( -0.0000000 )
                  (  0.0000000  0.0000000  1.0000000 )       (  0.7426048 )


      isym =  4      60 deg rotation - cryst. axis [0,0,-1]      

 cryst.   s( 4) = (     0         -1          0      )    f =( -0.0000000 )
                  (     1          1          0      )       (  0.0000000 )
                  (     0          0          1      )       (  0.5000000 )

 cart.    s( 4) = (  0.5000000  0.8660254  0.0000000 )    f =( -0.0000000 )
                  ( -0.8660254  0.5000000  0.0000000 )       (  0.0000000 )
                  (  0.0000000  0.0000000  1.0000000 )       (  0.7426048 )


      isym =  5     120 deg rotation - cryst. axis [0,0,1]       

 cryst.   s( 5) = (     0          1          0      )
                  (    -1         -1          0      )
                  (     0          0          1      )

 cart.    s( 5) = ( -0.5000000 -0.8660254  0.0000000 )
                  (  0.8660254 -0.5000000  0.0000000 )
                  (  0.0000000  0.0000000  1.0000000 )


      isym =  6     120 deg rotation - cryst. axis [0,0,-1]      

 cryst.   s( 6) = (    -1         -1          0      )
                  (     1          0          0      )
                  (     0          0          1      )

 cart.    s( 6) = ( -0.5000000  0.8660254  0.0000000 )
                  ( -0.8660254 -0.5000000  0.0000000 )
                  (  0.0000000  0.0000000  1.0000000 )


      isym =  7     inv. 180 deg rotation - cart. axis [0,1,0]   

 cryst.   s( 7) = (     1          0          0      )    f =( -0.0000000 )
                  (    -1         -1          0      )       (  0.0000000 )
                  (     0          0          1      )       (  0.5000000 )

 cart.    s( 7) = (  1.0000000  0.0000000  0.0000000 )    f =( -0.0000000 )
                  (  0.0000000 -1.0000000  0.0000000 )       (  0.0000000 )
                  (  0.0000000  0.0000000  1.0000000 )       (  0.7426048 )


      isym =  8     inv. 180 deg rotation - cart. axis [1,0,0]   

 cryst.   s( 8) = (    -1          0          0      )
                  (     1          1          0      )
                  (     0          0          1      )

 cart.    s( 8) = ( -1.0000000  0.0000000  0.0000000 )
                  (  0.0000000  1.0000000  0.0000000 )
                  (  0.0000000  0.0000000  1.0000000 )


      isym =  9     inv. 180 deg rotation - cryst. axis [1,-1,0] 

 cryst.   s( 9) = (     0          1          0      )    f =( -0.0000000 )
                  (     1          0          0      )       ( -0.0000000 )
                  (     0          0          1      )       (  0.5000000 )

 cart.    s( 9) = ( -0.5000000  0.8660254  0.0000000 )    f =( -0.0000000 )
                  (  0.8660254  0.5000000  0.0000000 )       ( -0.0000000 )
                  (  0.0000000  0.0000000  1.0000000 )       (  0.7426048 )


      isym = 10     inv. 180 deg rotation - cryst. axis [2,1,0]  

 cryst.   s(10) = (    -1         -1          0      )    f =(  0.0000000 )
                  (     0          1          0      )       (  0.0000000 )
                  (     0          0          1      )       (  0.5000000 )

 cart.    s(10) = ( -0.5000000 -0.8660254  0.0000000 )    f =( -0.0000000 )
                  ( -0.8660254  0.5000000  0.0000000 )       (  0.0000000 )
                  (  0.0000000  0.0000000  1.0000000 )       (  0.7426048 )


      isym = 11     inv. 180 deg rotation - cryst. axis [0,1,0]  

 cryst.   s(11) = (     1          1          0      )
                  (     0         -1          0      )
                  (     0          0          1      )

 cart.    s(11) = (  0.5000000  0.8660254  0.0000000 )
                  (  0.8660254 -0.5000000  0.0000000 )
                  (  0.0000000  0.0000000  1.0000000 )


      isym = 12     inv. 180 deg rotation - cryst. axis [1,1,0]  

 cryst.   s(12) = (     0         -1          0      )
                  (    -1          0          0      )
                  (     0          0          1      )

 cart.    s(12) = (  0.5000000 -0.8660254  0.0000000 )
                  ( -0.8660254 -0.5000000  0.0000000 )
                  (  0.0000000  0.0000000  1.0000000 )


   Cartesian axes

     site n.     atom                  positions (alat units)
         1           Zn  tau(   1) = (   0.5000000   0.2886751   0.7435459  )
         2           Zn  tau(   2) = (  -0.0000000   0.5773503   0.0009410  )
         3           O   tau(   3) = (   0.5000000   0.2886751   1.3065039  )
         4           O   tau(   4) = (  -0.0000000   0.5773503   0.5638991  )

   Crystallographic axes

     site n.     atom                  positions (cryst. coord.)
         1           Zn  tau(   1) = (  0.6666667  0.3333333  0.5006336  )
         2           Zn  tau(   2) = (  0.3333333  0.6666667  0.0006336  )
         3           O   tau(   3) = (  0.6666667  0.3333333  0.8796764  )
         4           O   tau(   4) = (  0.3333333  0.6666667  0.3796764  )

     number of k points=    28
                       cart. coord. in units 2pi/alat
        k(    1) = (   0.0000000   0.0000000   0.0000000), wk =   0.0092593
        k(    2) = (   0.0000000   0.0000000   0.1122176), wk =   0.0185185
        k(    3) = (   0.0000000   0.0000000   0.2244352), wk =   0.0185185
        k(    4) = (   0.0000000   0.0000000  -0.3366528), wk =   0.0092593
        k(    5) = (   0.0000000   0.1924501   0.0000000), wk =   0.0555556
        k(    6) = (   0.0000000   0.1924501   0.1122176), wk =   0.1111111
        k(    7) = (   0.0000000   0.1924501   0.2244352), wk =   0.1111111
        k(    8) = (   0.0000000   0.1924501  -0.3366528), wk =   0.0555556
        k(    9) = (   0.0000000   0.3849002   0.0000000), wk =   0.0555556
        k(   10) = (   0.0000000   0.3849002   0.1122176), wk =   0.1111111
        k(   11) = (   0.0000000   0.3849002   0.2244352), wk =   0.1111111
        k(   12) = (   0.0000000   0.3849002  -0.3366528), wk =   0.0555556
        k(   13) = (   0.0000000  -0.5773503   0.0000000), wk =   0.0277778
        k(   14) = (   0.0000000  -0.5773503   0.1122176), wk =   0.0555556
        k(   15) = (   0.0000000  -0.5773503   0.2244352), wk =   0.0555556
        k(   16) = (   0.0000000  -0.5773503  -0.3366528), wk =   0.0277778
        k(   17) = (   0.1666667   0.2886751   0.0000000), wk =   0.0555556
        k(   18) = (   0.1666667   0.2886751   0.1122176), wk =   0.1111111
        k(   19) = (   0.1666667   0.2886751   0.2244352), wk =   0.1111111
        k(   20) = (   0.1666667   0.2886751  -0.3366528), wk =   0.0555556
        k(   21) = (   0.1666667   0.4811252   0.0000000), wk =   0.1111111
        k(   22) = (   0.1666667   0.4811252   0.1122176), wk =   0.2222222
        k(   23) = (   0.1666667   0.4811252   0.2244352), wk =   0.2222222
        k(   24) = (   0.1666667   0.4811252  -0.3366528), wk =   0.1111111
        k(   25) = (   0.3333333   0.5773503   0.0000000), wk =   0.0185185
        k(   26) = (   0.3333333   0.5773503   0.1122176), wk =   0.0370370
        k(   27) = (   0.3333333   0.5773503   0.2244352), wk =   0.0370370
        k(   28) = (   0.3333333   0.5773503  -0.3366528), wk =   0.0185185

                       cryst. coord.
        k(    1) = (   0.0000000   0.0000000   0.0000000), wk =   0.0092593
        k(    2) = (   0.0000000   0.0000000   0.1666667), wk =   0.0185185
        k(    3) = (   0.0000000   0.0000000   0.3333333), wk =   0.0185185
        k(    4) = (   0.0000000   0.0000000  -0.5000000), wk =   0.0092593
        k(    5) = (   0.0000000   0.1666667   0.0000000), wk =   0.0555556
        k(    6) = (   0.0000000   0.1666667   0.1666667), wk =   0.1111111
        k(    7) = (   0.0000000   0.1666667   0.3333333), wk =   0.1111111
        k(    8) = (   0.0000000   0.1666667  -0.5000000), wk =   0.0555556
        k(    9) = (   0.0000000   0.3333333   0.0000000), wk =   0.0555556
        k(   10) = (   0.0000000   0.3333333   0.1666667), wk =   0.1111111
        k(   11) = (   0.0000000   0.3333333   0.3333333), wk =   0.1111111
        k(   12) = (   0.0000000   0.3333333  -0.5000000), wk =   0.0555556
        k(   13) = (   0.0000000  -0.5000000   0.0000000), wk =   0.0277778
        k(   14) = (   0.0000000  -0.5000000   0.1666667), wk =   0.0555556
        k(   15) = (   0.0000000  -0.5000000   0.3333333), wk =   0.0555556
        k(   16) = (   0.0000000  -0.5000000  -0.5000000), wk =   0.0277778
        k(   17) = (   0.1666667   0.1666667   0.0000000), wk =   0.0555556
        k(   18) = (   0.1666667   0.1666667   0.1666667), wk =   0.1111111
        k(   19) = (   0.1666667   0.1666667   0.3333333), wk =   0.1111111
        k(   20) = (   0.1666667   0.1666667  -0.5000000), wk =   0.0555556
        k(   21) = (   0.1666667   0.3333333   0.0000000), wk =   0.1111111
        k(   22) = (   0.1666667   0.3333333   0.1666667), wk =   0.2222222
        k(   23) = (   0.1666667   0.3333333   0.3333333), wk =   0.2222222
        k(   24) = (   0.1666667   0.3333333  -0.5000000), wk =   0.1111111
        k(   25) = (   0.3333333   0.3333333   0.0000000), wk =   0.0185185
        k(   26) = (   0.3333333   0.3333333   0.1666667), wk =   0.0370370
        k(   27) = (   0.3333333   0.3333333   0.3333333), wk =   0.0370370
        k(   28) = (   0.3333333   0.3333333  -0.5000000), wk =   0.0185185

     Dense  grid:    43397 G-vectors     FFT dimensions: (  45,  45,  60)

     Smooth grid:    15409 G-vectors     FFT dimensions: (  30,  30,  48)

     Dynamical RAM for                 wfc:       0.26 MB

     Dynamical RAM for     wfc (w. buffer):       2.11 MB

     Dynamical RAM for           str. fact:       0.66 MB

     Dynamical RAM for           local pot:       0.00 MB

     Dynamical RAM for          nlocal pot:       0.76 MB

     Dynamical RAM for                qrad:       3.21 MB

     Dynamical RAM for          rho,v,vnew:       2.38 MB

     Dynamical RAM for               rhoin:       0.79 MB

     Dynamical RAM for            rho*nmix:       5.30 MB

     Dynamical RAM for           G-vectors:       1.30 MB

     Dynamical RAM for          h,s,v(r/c):       0.06 MB

     Dynamical RAM for          <psi|beta>:       0.01 MB

     Dynamical RAM for                 psi:       0.53 MB

     Dynamical RAM for                hpsi:       0.53 MB

     Dynamical RAM for                spsi:       0.53 MB

     Dynamical RAM for      wfcinit/wfcrot:       0.78 MB

     Dynamical RAM for           addusdens:      15.81 MB

     Dynamical RAM for          addusforce:      15.90 MB

     Estimated static dynamical RAM per process >      14.54 MB

     Estimated max dynamical RAM per process >      35.73 MB

     Estimated total dynamical RAM >     254.08 MB

     Check: negative core charge=   -0.000002

     Initial potential from superposition of free atoms

     starting charge      35.9925, renormalised to      36.0000
     Starting wfcs are   26 randomized atomic wfcs

     total cpu time spent up to now is        2.2 secs

     per-process dynamical memory:    27.1 Mb

     Self-consistent Calculation

     iteration #  1     ecut=    50.00 Ry     beta= 0.30
     Davidson diagonalization with overlap

---- Real-time Memory Report at c_bands before calling an iterative solver
            66 MiB given to the printing process from OS
            26 MiB allocation reported by mallinfo(arena+hblkhd)
        111305 MiB available memory on the node where the printing process lives
------------------
     ethr =  1.00E-02,  avg # of iterations =  2.0

     total cpu time spent up to now is        2.9 secs

     total energy              =    -361.46432972 Ry
     estimated scf accuracy    <       0.70163722 Ry

     iteration #  2     ecut=    50.00 Ry     beta= 0.30
     Davidson diagonalization with overlap

---- Real-time Memory Report at c_bands before calling an iterative solver
            71 MiB given to the printing process from OS
            41 MiB allocation reported by mallinfo(arena+hblkhd)
        111282 MiB available memory on the node where the printing process lives
------------------
     ethr =  1.95E-03,  avg # of iterations =  2.0

     total cpu time spent up to now is        3.7 secs

     total energy              =    -361.55655444 Ry
     estimated scf accuracy    <       0.09710025 Ry

     iteration #  3     ecut=    50.00 Ry     beta= 0.30
     Davidson diagonalization with overlap

---- Real-time Memory Report at c_bands before calling an iterative solver
            71 MiB given to the printing process from OS
            41 MiB allocation reported by mallinfo(arena+hblkhd)
        111282 MiB available memory on the node where the printing process lives
------------------
     ethr =  2.70E-04,  avg # of iterations =  6.1

     total cpu time spent up to now is        4.9 secs

     total energy              =    -361.59038781 Ry
     estimated scf accuracy    <       0.06969533 Ry

     iteration #  4     ecut=    50.00 Ry     beta= 0.30
     Davidson diagonalization with overlap

---- Real-time Memory Report at c_bands before calling an iterative solver
            72 MiB given to the printing process from OS
            42 MiB allocation reported by mallinfo(arena+hblkhd)
        111283 MiB available memory on the node where the printing process lives
------------------
     ethr =  1.94E-04,  avg # of iterations =  7.7

     total cpu time spent up to now is        6.4 secs

     total energy              =    -361.64195125 Ry
     estimated scf accuracy    <       0.20168078 Ry

     iteration #  5     ecut=    50.00 Ry     beta= 0.30
     Davidson diagonalization with overlap

---- Real-time Memory Report at c_bands before calling an iterative solver
            72 MiB given to the printing process from OS
            42 MiB allocation reported by mallinfo(arena+hblkhd)
        111283 MiB available memory on the node where the printing process lives
------------------
     ethr =  1.94E-04,  avg # of iterations =  1.1

     total cpu time spent up to now is        7.0 secs

     total energy              =    -361.55220236 Ry
     estimated scf accuracy    <       0.12719420 Ry

     iteration #  6     ecut=    50.00 Ry     beta= 0.30
     Davidson diagonalization with overlap

---- Real-time Memory Report at c_bands before calling an iterative solver
            72 MiB given to the printing process from OS
            42 MiB allocation reported by mallinfo(arena+hblkhd)
        111281 MiB available memory on the node where the printing process lives
------------------
     ethr =  1.94E-04,  avg # of iterations =  7.5

     total cpu time spent up to now is        8.5 secs

     total energy              =    -361.61332130 Ry
     estimated scf accuracy    <       0.16583767 Ry

     iteration #  7     ecut=    50.00 Ry     beta= 0.30
     Davidson diagonalization with overlap

---- Real-time Memory Report at c_bands before calling an iterative solver
            72 MiB given to the printing process from OS
            42 MiB allocation reported by mallinfo(arena+hblkhd)
        111281 MiB available memory on the node where the printing process lives
------------------
     ethr =  1.94E-04,  avg # of iterations =  2.0

     total cpu time spent up to now is        9.2 secs

     total energy              =    -361.61278436 Ry
     estimated scf accuracy    <       0.06470174 Ry

     iteration #  8     ecut=    50.00 Ry     beta= 0.30
     Davidson diagonalization with overlap

---- Real-time Memory Report at c_bands before calling an iterative solver
            73 MiB given to the printing process from OS
            42 MiB allocation reported by mallinfo(arena+hblkhd)
        111281 MiB available memory on the node where the printing process lives
------------------
     ethr =  1.80E-04,  avg # of iterations =  2.0

     total cpu time spent up to now is        9.9 secs

     total energy              =    -361.61844135 Ry
     estimated scf accuracy    <       0.02906301 Ry

     iteration #  9     ecut=    50.00 Ry     beta= 0.30
     Davidson diagonalization with overlap

---- Real-time Memory Report at c_bands before calling an iterative solver
            73 MiB given to the printing process from OS
            43 MiB allocation reported by mallinfo(arena+hblkhd)
        111281 MiB available memory on the node where the printing process lives
------------------
     ethr =  8.07E-05,  avg # of iterations =  2.5

     total cpu time spent up to now is       10.6 secs

     total energy              =    -361.62192825 Ry
     estimated scf accuracy    <       0.01714708 Ry

     iteration # 10     ecut=    50.00 Ry     beta= 0.30
     Davidson diagonalization with overlap

---- Real-time Memory Report at c_bands before calling an iterative solver
            73 MiB given to the printing process from OS
            43 MiB allocation reported by mallinfo(arena+hblkhd)
        111281 MiB available memory on the node where the printing process lives
------------------
     ethr =  4.76E-05,  avg # of iterations =  2.2

     total cpu time spent up to now is       11.4 secs

     total energy              =    -361.62115288 Ry
     estimated scf accuracy    <       0.01202998 Ry

     iteration # 11     ecut=    50.00 Ry     beta= 0.30
     Davidson diagonalization with overlap

---- Real-time Memory Report at c_bands before calling an iterative solver
            73 MiB given to the printing process from OS
            43 MiB allocation reported by mallinfo(arena+hblkhd)
        111281 MiB available memory on the node where the printing process lives
------------------
     ethr =  3.34E-05,  avg # of iterations =  1.9

     total cpu time spent up to now is       12.1 secs

     total energy              =    -361.61989344 Ry
     estimated scf accuracy    <       0.00612344 Ry

     iteration # 12     ecut=    50.00 Ry     beta= 0.30
     Davidson diagonalization with overlap

---- Real-time Memory Report at c_bands before calling an iterative solver
            73 MiB given to the printing process from OS
            43 MiB allocation reported by mallinfo(arena+hblkhd)
        111281 MiB available memory on the node where the printing process lives
------------------
     ethr =  1.70E-05,  avg # of iterations =  5.3

     total cpu time spent up to now is       13.2 secs

     total energy              =    -361.62349903 Ry
     estimated scf accuracy    <       0.00032399 Ry

     iteration # 13     ecut=    50.00 Ry     beta= 0.30
     Davidson diagonalization with overlap

---- Real-time Memory Report at c_bands before calling an iterative solver
            73 MiB given to the printing process from OS
            43 MiB allocation reported by mallinfo(arena+hblkhd)
        111281 MiB available memory on the node where the printing process lives
------------------
     ethr =  9.00E-07,  avg # of iterations = 10.8

     total cpu time spent up to now is       15.1 secs

     total energy              =    -361.62498881 Ry
     estimated scf accuracy    <       0.01491861 Ry

     iteration # 14     ecut=    50.00 Ry     beta= 0.30
     Davidson diagonalization with overlap

---- Real-time Memory Report at c_bands before calling an iterative solver
            73 MiB given to the printing process from OS
            43 MiB allocation reported by mallinfo(arena+hblkhd)
        111282 MiB available memory on the node where the printing process lives
------------------
     ethr =  9.00E-07,  avg # of iterations =  4.5

     total cpu time spent up to now is       16.2 secs

     total energy              =    -361.62021089 Ry
     estimated scf accuracy    <       0.00902597 Ry

     iteration # 15     ecut=    50.00 Ry     beta= 0.30
     Davidson diagonalization with overlap

---- Real-time Memory Report at c_bands before calling an iterative solver
            73 MiB given to the printing process from OS
            43 MiB allocation reported by mallinfo(arena+hblkhd)
        111284 MiB available memory on the node where the printing process lives
------------------
     ethr =  9.00E-07,  avg # of iterations = 11.0

     total cpu time spent up to now is       18.2 secs

     total energy              =    -361.62388400 Ry
     estimated scf accuracy    <       0.00129577 Ry

     iteration # 16     ecut=    50.00 Ry     beta= 0.30
     Davidson diagonalization with overlap

---- Real-time Memory Report at c_bands before calling an iterative solver
            73 MiB given to the printing process from OS
            43 MiB allocation reported by mallinfo(arena+hblkhd)
        111286 MiB available memory on the node where the printing process lives
------------------
     ethr =  9.00E-07,  avg # of iterations =  4.8

     total cpu time spent up to now is       19.1 secs

     total energy              =    -361.62535857 Ry
     estimated scf accuracy    <       0.00335906 Ry

     iteration # 17     ecut=    50.00 Ry     beta= 0.30
     Davidson diagonalization with overlap

---- Real-time Memory Report at c_bands before calling an iterative solver
            73 MiB given to the printing process from OS
            43 MiB allocation reported by mallinfo(arena+hblkhd)
        111287 MiB available memory on the node where the printing process lives
------------------
     ethr =  9.00E-07,  avg # of iterations =  7.6

     total cpu time spent up to now is       20.6 secs

     total energy              =    -361.62245908 Ry
     estimated scf accuracy    <       0.01017285 Ry

     iteration # 18     ecut=    50.00 Ry     beta= 0.30
     Davidson diagonalization with overlap

---- Real-time Memory Report at c_bands before calling an iterative solver
            73 MiB given to the printing process from OS
            43 MiB allocation reported by mallinfo(arena+hblkhd)
        111289 MiB available memory on the node where the printing process lives
------------------
     ethr =  9.00E-07,  avg # of iterations =  8.5

     total cpu time spent up to now is       22.2 secs

     total energy              =    -361.62496134 Ry
     estimated scf accuracy    <       0.00114212 Ry

     iteration # 19     ecut=    50.00 Ry     beta= 0.30
     Davidson diagonalization with overlap

---- Real-time Memory Report at c_bands before calling an iterative solver
            73 MiB given to the printing process from OS
            43 MiB allocation reported by mallinfo(arena+hblkhd)
        111290 MiB available memory on the node where the printing process lives
------------------
     ethr =  9.00E-07,  avg # of iterations =  8.5

     total cpu time spent up to now is       23.8 secs

     total energy              =    -361.62317470 Ry
     estimated scf accuracy    <       0.01064506 Ry

     iteration # 20     ecut=    50.00 Ry     beta= 0.30
     Davidson diagonalization with overlap

---- Real-time Memory Report at c_bands before calling an iterative solver
            73 MiB given to the printing process from OS
            43 MiB allocation reported by mallinfo(arena+hblkhd)
        111290 MiB available memory on the node where the printing process lives
------------------
     ethr =  9.00E-07,  avg # of iterations =  7.5

     total cpu time spent up to now is       25.3 secs

     total energy              =    -361.62271987 Ry
     estimated scf accuracy    <       0.00274451 Ry

     iteration # 21     ecut=    50.00 Ry     beta= 0.30
     Davidson diagonalization with overlap

---- Real-time Memory Report at c_bands before calling an iterative solver
            73 MiB given to the printing process from OS
            43 MiB allocation reported by mallinfo(arena+hblkhd)
        111290 MiB available memory on the node where the printing process lives
------------------
     ethr =  9.00E-07,  avg # of iterations =  6.9

     total cpu time spent up to now is       26.6 secs

     total energy              =    -361.62303292 Ry
     estimated scf accuracy    <       0.00016360 Ry

     iteration # 22     ecut=    50.00 Ry     beta= 0.30
     Davidson diagonalization with overlap

---- Real-time Memory Report at c_bands before calling an iterative solver
            73 MiB given to the printing process from OS
            43 MiB allocation reported by mallinfo(arena+hblkhd)
        111290 MiB available memory on the node where the printing process lives
------------------
     ethr =  4.54E-07,  avg # of iterations =  1.6

     total cpu time spent up to now is       27.3 secs

     total energy              =    -361.62298068 Ry
     estimated scf accuracy    <       0.00012778 Ry

     iteration # 23     ecut=    50.00 Ry     beta= 0.30
     Davidson diagonalization with overlap

---- Real-time Memory Report at c_bands before calling an iterative solver
            73 MiB given to the printing process from OS
            43 MiB allocation reported by mallinfo(arena+hblkhd)
        111290 MiB available memory on the node where the printing process lives
------------------
     ethr =  3.55E-07,  avg # of iterations =  4.5

     total cpu time spent up to now is       28.2 secs

     total energy              =    -361.62301139 Ry
     estimated scf accuracy    <       0.00000220 Ry

     iteration # 24     ecut=    50.00 Ry     beta= 0.30
     Davidson diagonalization with overlap

---- Real-time Memory Report at c_bands before calling an iterative solver
            73 MiB given to the printing process from OS
            43 MiB allocation reported by mallinfo(arena+hblkhd)
        111290 MiB available memory on the node where the printing process lives
------------------
     ethr =  6.10E-09,  avg # of iterations =  8.1

     total cpu time spent up to now is       29.9 secs

     total energy              =    -361.62301767 Ry
     estimated scf accuracy    <       0.00000601 Ry

     iteration # 25     ecut=    50.00 Ry     beta= 0.30
     Davidson diagonalization with overlap

---- Real-time Memory Report at c_bands before calling an iterative solver
            73 MiB given to the printing process from OS
            43 MiB allocation reported by mallinfo(arena+hblkhd)
        111290 MiB available memory on the node where the printing process lives
------------------
     ethr =  6.10E-09,  avg # of iterations =  8.4

     total cpu time spent up to now is       31.5 secs

     total energy              =    -361.62301873 Ry
     estimated scf accuracy    <       0.00000709 Ry

     iteration # 26     ecut=    50.00 Ry     beta= 0.30
     Davidson diagonalization with overlap

---- Real-time Memory Report at c_bands before calling an iterative solver
            73 MiB given to the printing process from OS
            43 MiB allocation reported by mallinfo(arena+hblkhd)
        111291 MiB available memory on the node where the printing process lives
------------------
     ethr =  6.10E-09,  avg # of iterations =  6.3

     total cpu time spent up to now is       32.8 secs

     total energy              =    -361.62302042 Ry
     estimated scf accuracy    <       0.00000015 Ry

     iteration # 27     ecut=    50.00 Ry     beta= 0.30
     Davidson diagonalization with overlap

---- Real-time Memory Report at c_bands before calling an iterative solver
            73 MiB given to the printing process from OS
            43 MiB allocation reported by mallinfo(arena+hblkhd)
        111291 MiB available memory on the node where the printing process lives
------------------
     ethr =  4.13E-10,  avg # of iterations =  4.2

     total cpu time spent up to now is       33.8 secs

     End of self-consistent calculation

          k = 0.0000 0.0000 0.0000 (  1935 PWs)   bands (ev):

   -10.8559 -10.0100   1.5856   1.5929   1.5929   1.7816   1.8338   1.8338
     2.6962   2.6962   2.9599   2.9599   3.1684   6.1687   6.1687   7.1711
     7.1711   7.2364

     occupation numbers 
     1.0000   1.0000   1.0000   1.0000   1.0000   1.0000   1.0000   1.0000
     1.0000   1.0000   1.0000   1.0000   1.0000   1.0000   1.0000   1.0000
     1.0000   1.0000

          k = 0.0000 0.0000 0.1122 (  1923 PWs)   bands (ev):

   -10.8011 -10.0683   1.5151   1.5654   1.5968   1.5968   1.8034   1.8034
     2.7247   2.7247   2.9553   2.9553   3.5794   6.2390   6.2390   6.6857
     7.1079   7.1079

     occupation numbers 
     1.0000   1.0000   1.0000   1.0000   1.0000   1.0000   1.0000   1.0000
     1.0000   1.0000   1.0000   1.0000   1.0000   1.0000   1.0000   1.0000
     1.0000   1.0000

          k = 0.0000 0.0000 0.2244 (  1917 PWs)   bands (ev):

   -10.6501 -10.2266   1.3117   1.3607   1.6159   1.6159   1.7332   1.7332
     2.7948   2.7948   2.9301   2.9301   4.3692   5.9493   6.4295   6.4295
     6.9319   6.9319

     occupation numbers 
     1.0000   1.0000   1.0000   1.0000   1.0000   1.0000   1.0000   1.0000
     1.0000   1.0000   1.0000   1.0000   1.0000   1.0000   1.0000   1.0000
     1.0000   1.0000

          k = 0.0000 0.0000-0.3367 (  1894 PWs)   bands (ev):

   -10.4402 -10.4402   1.2532   1.2532   1.6626   1.6626   1.6626   1.6626
     2.8732   2.8732   2.8732   2.8732   5.1877   5.1877   6.6844   6.6844
     6.6844   6.6844

     occupation numbers 
     1.0000   1.0000   1.0000   1.0000   1.0000   1.0000   1.0000   1.0000
     1.0000   1.0000   1.0000   1.0000   1.0000   1.0000   1.0000   1.0000
     1.0000   1.0000

          k = 0.0000 0.1925 0.0000 (  1918 PWs)   bands (ev):

   -10.7217  -9.9732   1.4338   1.6593   1.6822   1.7660   1.9476   2.0344
     2.6459   2.7004   2.9781   2.9958   3.2228   5.3572   5.8190   6.0952
     7.0142   7.0345

     occupation numbers 
     1.0000   1.0000   1.0000   1.0000   1.0000   1.0000   1.0000   1.0000
     1.0000   1.0000   1.0000   1.0000   1.0000   1.0000   1.0000   1.0000
     1.0000   1.0000

          k = 0.0000 0.1925 0.1122 (  1915 PWs)   bands (ev):

   -10.6721 -10.0234   1.3827   1.5766   1.6669   1.6884   1.8938   1.9138
     2.6886   2.7266   2.9684   2.9957   3.6500   5.4468   5.9047   5.9201
     6.9393   7.0033

     occupation numbers 
     1.0000   1.0000   1.0000   1.0000   1.0000   1.0000   1.0000   1.0000
     1.0000   1.0000   1.0000   1.0000   1.0000   1.0000   1.0000   1.0000
     1.0000   1.0000

          k = 0.0000 0.1925 0.2244 (  1917 PWs)   bands (ev):

   -10.5359 -10.1607   1.2576   1.3002   1.6741   1.6952   1.7871   1.8350
     2.7812   2.7926   2.9335   2.9578   4.3892   5.4546   5.8395   6.1343
     6.7310   6.7546

     occupation numbers 
     1.0000   1.0000   1.0000   1.0000   1.0000   1.0000   1.0000   1.0000
     1.0000   1.0000   1.0000   1.0000   1.0000   1.0000   1.0000   1.0000
     1.0000   1.0000

          k = 0.0000 0.1925-0.3367 (  1914 PWs)   bands (ev):

   -10.3487 -10.3487   1.1915   1.1915   1.7115   1.7115   1.7530   1.7530
     2.8705   2.8705   2.8814   2.8814   5.0123   5.0123   6.2892   6.2892
     6.4379   6.4379

     occupation numbers 
     1.0000   1.0000   1.0000   1.0000   1.0000   1.0000   1.0000   1.0000
     1.0000   1.0000   1.0000   1.0000   1.0000   1.0000   1.0000   1.0000
     1.0000   1.0000

          k = 0.0000 0.3849 0.0000 (  1924 PWs)   bands (ev):

   -10.4146  -9.9274   1.2936   1.6730   1.7596   1.8975   2.2330   2.3170
     2.6859   2.7842   3.0037   3.0463   3.3946   4.1481   4.9935   5.1025
     6.4599   6.6629

     occupation numbers 
     1.0000   1.0000   1.0000   1.0000   1.0000   1.0000   1.0000   1.0000
     1.0000   1.0000   1.0000   1.0000   1.0000   1.0000   1.0000   1.0000
     1.0000   1.0000

          k = 0.0000 0.3849 0.1122 (  1930 PWs)   bands (ev):

   -10.3795  -9.9569   1.2387   1.5321   1.7799   1.8632   2.1326   2.1855
     2.7068   2.7981   2.9853   3.0741   3.6407   4.3497   4.9506   5.2244
     6.5490   6.5684

     occupation numbers 
     1.0000   1.0000   1.0000   1.0000   1.0000   1.0000   1.0000   1.0000
     1.0000   1.0000   1.0000   1.0000   1.0000   1.0000   1.0000   1.0000
     1.0000   1.0000

          k = 0.0000 0.3849 0.2244 (  1923 PWs)   bands (ev):

   -10.2849 -10.0402   1.1265   1.2466   1.8369   1.8417   1.9596   2.0712
     2.8108   2.8357   2.9412   3.0216   3.9440   4.4162   5.3826   5.5374
     6.3056   6.5287

     occupation numbers 
     1.0000   1.0000   1.0000   1.0000   1.0000   1.0000   1.0000   1.0000
     1.0000   1.0000   1.0000   1.0000   1.0000   1.0000   1.0000   1.0000
     1.0000   1.0000

          k = 0.0000 0.3849-0.3367 (  1920 PWs)   bands (ev):

   -10.1597 -10.1597   1.0942   1.0942   1.8681   1.8681   1.9437   1.9437
     2.8874   2.8874   2.9265   2.9265   4.1982   4.1982   5.9331   5.9331
     6.1019   6.1019

     occupation numbers 
     1.0000   1.0000   1.0000   1.0000   1.0000   1.0000   1.0000   1.0000
     1.0000   1.0000   1.0000   1.0000   1.0000   1.0000   1.0000   1.0000
     1.0000   1.0000

          k = 0.0000-0.5774 0.0000 (  1924 PWs)   bands (ev):

   -10.2117  -9.9478   1.3363   1.6353   1.7897   2.0478   2.1749   2.4209
     2.7541   2.8842   3.0138   3.0594   3.5995   3.8691   4.4321   4.6980
     6.0155   6.4699

     occupation numbers 
     1.0000   1.0000   1.0000   1.0000   1.0000   1.0000   1.0000   1.0000
     1.0000   1.0000   1.0000   1.0000   1.0000   1.0000   1.0000   1.0000
     1.0000   1.0000

          k = 0.0000-0.5774 0.1122 (  1924 PWs)   bands (ev):

   -10.1899  -9.9608   1.2681   1.4717   1.8181   2.0148   2.1286   2.3601
     2.8329   2.8878   2.9875   3.0594   3.5430   3.8077   4.8006   4.8495
     6.1696   6.3665

     occupation numbers 
     1.0000   1.0000   1.0000   1.0000   1.0000   1.0000   1.0000   1.0000
     1.0000   1.0000   1.0000   1.0000   1.0000   1.0000   1.0000   1.0000
     1.0000   1.0000

          k = 0.0000-0.5774 0.2244 (  1912 PWs)   bands (ev):

   -10.1329 -10.0001   1.1282   1.1970   1.9036   1.9871   2.0472   2.2104
     2.8986   2.9455   2.9459   3.0508   3.5315   3.6959   5.2196   5.5153
     6.0785   6.3415

     occupation numbers 
     1.0000   1.0000   1.0000   1.0000   1.0000   1.0000   1.0000   1.0000
     1.0000   1.0000   1.0000   1.0000   1.0000   1.0000   1.0000   1.0000
     1.0000   1.0000

          k = 0.0000-0.5774-0.3367 (  1936 PWs)   bands (ev):

   -10.0621 -10.0621   1.0683   1.0683   1.9955   1.9955   2.0409   2.0409
     2.9164   2.9164   3.0170   3.0170   3.5955   3.5955   5.6669   5.6669
     6.1269   6.1269

     occupation numbers 
     1.0000   1.0000   1.0000   1.0000   1.0000   1.0000   1.0000   1.0000
     1.0000   1.0000   1.0000   1.0000   1.0000   1.0000   1.0000   1.0000
     1.0000   1.0000

          k = 0.1667 0.2887 0.0000 (  1923 PWs)   bands (ev):

   -10.4995  -9.9327   1.3844   1.5917   1.7792   1.8475   2.1556   2.3215
     2.6056   2.7324   2.9971   3.0229   3.3860   4.6526   4.8200   5.4444
     6.6211   6.6498

     occupation numbers 
     1.0000   1.0000   1.0000   1.0000   1.0000   1.0000   1.0000   1.0000
     1.0000   1.0000   1.0000   1.0000   1.0000   1.0000   1.0000   1.0000
     1.0000   1.0000

          k = 0.1667 0.2887 0.1122 (  1929 PWs)   bands (ev):

   -10.4599  -9.9684   1.3251   1.5154   1.7580   1.8050   2.0692   2.1117
     2.6595   2.7782   2.9826   3.0559   3.7268   4.8421   4.8531   5.3898
     6.5217   6.7120

     occupation numbers 
     1.0000   1.0000   1.0000   1.0000   1.0000   1.0000   1.0000   1.0000
     1.0000   1.0000   1.0000   1.0000   1.0000   1.0000   1.0000   1.0000
     1.0000   1.0000

          k = 0.1667 0.2887 0.2244 (  1921 PWs)   bands (ev):

   -10.3524 -10.0678   1.1984   1.2758   1.7452   1.7849   1.9121   2.0108
     2.7769   2.8279   2.9455   3.0080   4.1958   4.7609   5.4317   5.5170
     6.2514   6.6300

     occupation numbers 
     1.0000   1.0000   1.0000   1.0000   1.0000   1.0000   1.0000   1.0000
     1.0000   1.0000   1.0000   1.0000   1.0000   1.0000   1.0000   1.0000
     1.0000   1.0000

          k = 0.1667 0.2887-0.3367 (  1918 PWs)   bands (ev):

   -10.2081 -10.2081   1.1454   1.1454   1.7698   1.7698   1.9145   1.9145
     2.8722   2.8722   2.9218   2.9218   4.5165   4.5165   5.8577   5.8577
     6.1736   6.1736

     occupation numbers 
     1.0000   1.0000   1.0000   1.0000   1.0000   1.0000   1.0000   1.0000
     1.0000   1.0000   1.0000   1.0000   1.0000   1.0000   1.0000   1.0000
     1.0000   1.0000

          k = 0.1667 0.4811 0.0000 (  1927 PWs)   bands (ev):

   -10.2192  -9.9427   1.4335   1.6711   1.8512   1.9605   2.3266   2.4597
     2.7267   2.7560   3.0180   3.1518   3.3897   3.9521   4.3409   4.6997
     5.9893   6.1957

     occupation numbers 
     1.0000   1.0000   1.0000   1.0000   1.0000   1.0000   1.0000   1.0000
     1.0000   1.0000   1.0000   1.0000   1.0000   1.0000   1.0000   1.0000
     1.0000   1.0000

          k = 0.1667 0.4811 0.1122 (  1927 PWs)   bands (ev):

   -10.1966  -9.9567   1.3721   1.5788   1.7795   1.9491   2.2175   2.3575
     2.7231   2.8462   3.0069   3.1675   3.4461   4.0453   4.3798   4.9816
     6.0205   6.2009

     occupation numbers 
     1.0000   1.0000   1.0000   1.0000   1.0000   1.0000   1.0000   1.0000
     1.0000   1.0000   1.0000   1.0000   1.0000   1.0000   1.0000   1.0000
     1.0000   1.0000

          k = 0.1667 0.4811 0.2244 (  1923 PWs)   bands (ev):

   -10.1375  -9.9984   1.2316   1.3161   1.7981   1.9209   2.0989   2.1865
     2.8015   2.8695   3.0195   3.1304   3.6088   3.9567   4.7350   5.5775
     5.7535   6.3737

     occupation numbers 
     1.0000   1.0000   1.0000   1.0000   1.0000   1.0000   1.0000   1.0000
     1.0000   1.0000   1.0000   1.0000   1.0000   1.0000   1.0000   1.0000
     1.0000   1.0000

          k = 0.1667 0.4811-0.3367 (  1922 PWs)   bands (ev):

   -10.0637 -10.0637   1.1755   1.1755   1.8750   1.8750   2.0763   2.0763
     2.8533   2.8533   3.0694   3.0694   3.7890   3.7890   5.2201   5.2201
     6.2077   6.2077

     occupation numbers 
     1.0000   1.0000   1.0000   1.0000   1.0000   1.0000   1.0000   1.0000
     1.0000   1.0000   1.0000   1.0000   1.0000   1.0000   1.0000   1.0000
     1.0000   1.0000

          k = 0.3333 0.5774 0.0000 (  1929 PWs)   bands (ev):

   -10.0361 -10.0361   1.5360   1.7919   1.7919   2.4721   2.4721   2.4787
     2.6587   2.8197   2.8844   2.8844   3.2720   3.7889   3.7889   5.3494
     5.3494   5.7303

     occupation numbers 
     1.0000   1.0000   1.0000   1.0000   1.0000   1.0000   1.0000   1.0000
     1.0000   1.0000   1.0000   1.0000   1.0000   1.0000   1.0000   1.0000
     1.0000   1.0000

          k = 0.3333 0.5774 0.1122 (  1923 PWs)   bands (ev):

   -10.0311 -10.0311   1.5642   1.6742   1.6742   2.2966   2.3440   2.3440
     2.6803   2.8106   3.0273   3.0273   3.5295   3.7429   3.7429   5.5785
     5.5929   5.5929

     occupation numbers 
     1.0000   1.0000   1.0000   1.0000   1.0000   1.0000   1.0000   1.0000
     1.0000   1.0000   1.0000   1.0000   1.0000   1.0000   1.0000   1.0000
     1.0000   1.0000

          k = 0.3333 0.5774 0.2244 (  1923 PWs)   bands (ev):

   -10.0210 -10.0210   1.4395   1.4395   1.6518   2.0245   2.2378   2.2378
     2.7113   2.7846   3.1832   3.1832   3.6763   3.6763   4.0433   5.1731
     6.0432   6.0432

     occupation numbers 
     1.0000   1.0000   1.0000   1.0000   1.0000   1.0000   1.0000   1.0000
     1.0000   1.0000   1.0000   1.0000   1.0000   1.0000   1.0000   1.0000
     1.0000   1.0000

          k = 0.3333 0.5774-0.3367 (  1944 PWs)   bands (ev):

   -10.0160 -10.0160   1.3294   1.3294   1.8037   1.8037   2.2080   2.2080
     2.7484   2.7484   3.2392   3.2392   3.6496   3.6496   4.6243   4.6243
     6.2579   6.2579

     occupation numbers 
     1.0000   1.0000   1.0000   1.0000   1.0000   1.0000   1.0000   1.0000
     1.0000   1.0000   1.0000   1.0000   1.0000   1.0000   1.0000   1.0000
     1.0000   1.0000

     highest occupied level (ev):     7.2364

!    total energy              =    -361.62302046 Ry
     estimated scf accuracy    <          9.0E-09 Ry

     The total energy is the sum of the following terms:
     one-electron contribution =    -152.76813621 Ry
     hartree contribution      =     117.81773072 Ry
     xc contribution           =    -109.60763398 Ry
     ewald contribution        =    -217.06498100 Ry

     convergence has been achieved in  27 iterations

     Forces acting on atoms (cartesian axes, Ry/au):

     atom    1 type  1   force =     0.00000000    0.00000000   -0.03965597
     atom    2 type  1   force =     0.00000000   -0.00000000   -0.03965597
     atom    3 type  2   force =     0.00000000   -0.00000000    0.03965597
     atom    4 type  2   force =     0.00000000    0.00000000    0.03965597
     The non-local contrib.  to forces
     atom    1 type  1   force =     0.00000000    0.00000000   -0.25080199
     atom    2 type  1   force =     0.00000000   -0.00000000   -0.25080199
     atom    3 type  2   force =    -0.00000000   -0.00000000   -0.18537918
     atom    4 type  2   force =    -0.00000000   -0.00000000   -0.18537918
     The ionic contribution  to forces
     atom    1 type  1   force =    -0.00000000    0.00000000   -1.68047539
     atom    2 type  1   force =     0.00000000   -0.00000000   -1.68047539
     atom    3 type  2   force =    -0.00000000    0.00000000    1.68047539
     atom    4 type  2   force =     0.00000000   -0.00000000    1.68047539
     The local contribution  to forces
     atom    1 type  1   force =    -0.00000002    0.00000001    1.87229348
     atom    2 type  1   force =     0.00000007   -0.00000004    1.87229348
     atom    3 type  2   force =    -0.00000001    0.00000000   -1.45679409
     atom    4 type  2   force =     0.00000002   -0.00000001   -1.45679408
     The core correction contribution to forces
     atom    1 type  1   force =    -0.00000000    0.00000000    0.01934850
     atom    2 type  1   force =     0.00000001   -0.00000000    0.01934850
     atom    3 type  2   force =     0.00000000   -0.00000000    0.00133766
     atom    4 type  2   force =    -0.00000000    0.00000000    0.00133766
     The Hubbard contrib.    to forces
     atom    1 type  1   force =     0.00000000    0.00000000    0.00000000
     atom    2 type  1   force =     0.00000000    0.00000000    0.00000000
     atom    3 type  2   force =     0.00000000    0.00000000    0.00000000
     atom    4 type  2   force =     0.00000000    0.00000000    0.00000000
     The SCF correction term to forces
     atom    1 type  1   force =     0.00000000   -0.00000000   -0.00004098
     atom    2 type  1   force =    -0.00000000    0.00000000   -0.00004098
     atom    3 type  2   force =     0.00000000   -0.00000000   -0.00000423
     atom    4 type  2   force =    -0.00000000    0.00000000   -0.00000423

     Total force =     0.079312     Total SCF correction =     0.000058

     init_run     :      1.80s CPU      1.86s WALL (       1 calls)
     electrons    :     30.73s CPU     31.57s WALL (       1 calls)
     forces       :      0.47s CPU      0.48s WALL (       1 calls)

     Called by init_run:
     wfcinit      :      0.26s CPU      0.27s WALL (       1 calls)
     wfcinit:atom :      0.00s CPU      0.00s WALL (       7 calls)
     wfcinit:wfcr :      0.23s CPU      0.24s WALL (       7 calls)
     potinit      :      0.36s CPU      0.37s WALL (       1 calls)
     hinit0       :      1.09s CPU      1.10s WALL (       1 calls)

     Called by electrons:
     c_bands      :     23.84s CPU     24.46s WALL (      27 calls)
     sum_band     :      3.85s CPU      4.00s WALL (      27 calls)
     v_of_rho     :      1.53s CPU      1.57s WALL (      28 calls)
     v_h          :      0.07s CPU      0.07s WALL (      28 calls)
     v_xc         :      1.51s CPU      1.55s WALL (      29 calls)
     newd         :      1.28s CPU      1.32s WALL (      28 calls)
     mix_rho      :      0.20s CPU      0.21s WALL (      27 calls)

     Called by c_bands:
     init_us_2    :      0.29s CPU      0.29s WALL (     392 calls)
     init_us_2:cp :      0.29s CPU      0.29s WALL (     392 calls)
     cegterg      :     19.01s CPU     19.62s WALL (     189 calls)

     Called by sum_band:
     sum_band:wei :      0.00s CPU      0.00s WALL (      27 calls)
     sum_band:loo :      2.16s CPU      2.25s WALL (      27 calls)
     sum_band:buf :      0.01s CPU      0.01s WALL (     189 calls)
     sum_band:ini :      0.14s CPU      0.14s WALL (     189 calls)
     sum_band:cal :      0.20s CPU      0.21s WALL (     189 calls)
     sum_band:bec :      0.01s CPU      0.01s WALL (     189 calls)
     addusdens    :      1.39s CPU      1.43s WALL (      27 calls)
     addusd:skk   :      0.00s CPU      0.00s WALL (      54 calls)
     addusd:dgemm :      0.27s CPU      0.30s WALL (      54 calls)
     addusd:qvan2 :      0.95s CPU      0.96s WALL (      54 calls)

     Called by *egterg:
     cdiaghg      :      1.12s CPU      1.13s WALL (    1249 calls)
     cegterg:over :      1.06s CPU      1.08s WALL (    1060 calls)
     cegterg:upda :      0.48s CPU      0.48s WALL (    1060 calls)
     cegterg:last :      0.90s CPU      0.91s WALL (     664 calls)
     h_psi        :     14.63s CPU     15.21s WALL (    1256 calls)
     s_psi        :      0.60s CPU      0.61s WALL (    1256 calls)
     g_psi        :      0.11s CPU      0.11s WALL (    1060 calls)

     Called by h_psi:
     h_psi:calbec :      0.91s CPU      0.94s WALL (    1256 calls)
     vloc_psi     :     13.03s CPU     13.57s WALL (    1256 calls)
     add_vuspsi   :      0.64s CPU      0.65s WALL (    1256 calls)

     General routines
     calbec       :      1.13s CPU      1.17s WALL (    1473 calls)
     fft          :      0.82s CPU      0.88s WALL (     373 calls)
     ffts         :      0.17s CPU      0.17s WALL (      55 calls)
     fftw         :     13.46s CPU     14.04s WALL (   29048 calls)
     interpolate  :      0.21s CPU      0.22s WALL (      28 calls)

     Parallel routines

     PWSCF        :     33.36s CPU     34.28s WALL


   This run was terminated on:  10:28: 8  26Aug2025            

=------------------------------------------------------------------------------=
   JOB DONE.
=------------------------------------------------------------------------------=
