
     Program PWSCF v.7.0 starts on 26Aug2025 at 11: 1:19 

     This program is part of the open-source Quantum ESPRESSO suite
     for quantum simulation of materials; please cite
         "P. Giannozzi et al., J. Phys.:Condens. Matter 21 395502 (2009);
         "P. Giannozzi et al., J. Phys.:Condens. Matter 29 465901 (2017);
         "P. Giannozzi et al., J. Chem. Phys. 152 154105 (2020);
          URL http://www.quantum-espresso.org", 
     in publications or presentations arising from this work. More details at
     http://www.quantum-espresso.org/quote

     Parallel version (MPI & OpenMP), running on       8 processor cores
     Number of MPI processes:                 8
     Threads/MPI process:                     1

     MPI processes distributed on     1 nodes
     K-points division:     npool     =       4
     R & G space division:  proc/nbgrp/npool/nimage =       2
     111615 MiB available memory on the printing compute node when the environment starts

     Reading input from /home/jvc/QEspresso7.2/ZnO_database/scripts/cell111.in/ZnO-3.60-1.68-111.in
Warning: card &CELL ignored
Warning: card / ignored
Warning: card &FCP ignored
Warning: card / ignored
Warning: card &RISM ignored
Warning: card / ignored

     Current dimensions of program PWSCF are:
     Max number of different atomic species (ntypx) = 10
     Max number of k-points (npk) =  40000
     Max angular momentum in pseudopotentials (lmaxx) =  4
     file Zn.upf: wavefunction(s)  3D renormalized
     Message from routine setup:
     using ibrav=0 with symmetry is DISCOURAGED, use correct ibrav instead

     Subspace diagonalization in iterative solution of the eigenvalue problem:
     a serial algorithm will be used


     Parallelization info
     --------------------
     sticks:   dense  smooth     PW     G-vecs:    dense   smooth      PW
     Min         642     324     99                30864    10897    1811
     Max         643     325    100                30865    10898    1812
     Sum        1285     649    199                61729    21795    3623

     Using Slab Decomposition



     bravais-lattice index     =            0
     lattice parameter (alat)  =       6.7967  a.u.
     unit-cell volume          =     456.5263 (a.u.)^3
     number of atoms/cell      =            4
     number of atomic types    =            2
     number of electrons       =        36.00
     number of Kohn-Sham states=           18
     kinetic-energy cutoff     =      50.0000  Ry
     charge density cutoff     =     400.0000  Ry
     scf convergence threshold =      1.0E-08
     mixing beta               =       0.3000
     number of iterations used =            8  plain     mixing
     Exchange-correlation= PBE
                           (   1   4   3   4   0   0   0)

     celldm(1)=   6.796739  celldm(2)=   0.000000  celldm(3)=   0.000000
     celldm(4)=   0.000000  celldm(5)=   0.000000  celldm(6)=   0.000000

     crystal axes: (cart. coord. in units of alat)
               a(1) = (   1.000000   0.000000   0.000000 )  
               a(2) = (  -0.500000   0.866025   0.000000 )  
               a(3) = (   0.000000   0.000000   1.678933 )  

     reciprocal axes: (cart. coord. in units 2 pi/alat)
               b(1) = (  1.000000  0.577350 -0.000000 )  
               b(2) = (  0.000000  1.154701  0.000000 )  
               b(3) = (  0.000000 -0.000000  0.595616 )  


     PseudoPot. # 1 for Zn read from file:
     /home/jvc/QEspresso7.2/ZnO_database/pseudos/Zn.upf
     MD5 check sum: 7f56cabf9682ed8c977c2f7d0c5985c5
     Pseudo is Ultrasoft + core correction, Zval = 12.0
     Generated using &quot;atomic&quot; code by A. Dal Corso  v.6.2.2
     Using radial grid of 1201 points,  6 beta functions with: 
                l(1) =   0
                l(2) =   0
                l(3) =   1
                l(4) =   1
                l(5) =   2
                l(6) =   2
     Q(r) pseudized with 0 coefficients 


     PseudoPot. # 2 for O  read from file:
     /home/jvc/QEspresso7.2/ZnO_database/pseudos/O.upf
     MD5 check sum: 91400c9766925bcf19f520983a725ff0
     Pseudo is Ultrasoft + core correction, Zval =  6.0
     Generated using &quot;atomic&quot; code by A. Dal Corso  v.6.3MaX
     Using radial grid of 1095 points,  4 beta functions with: 
                l(1) =   0
                l(2) =   0
                l(3) =   1
                l(4) =   1
     Q(r) pseudized with 0 coefficients 


     atomic species   valence    mass     pseudopotential
        Zn            12.00    65.38000     Zn( 1.00)
        O              6.00    15.99900     O ( 1.00)

     12 Sym. Ops. (no inversion) found ( 6 have fractional translation)


                                    s                        frac. trans.

      isym =  1     identity                                     

 cryst.   s( 1) = (     1          0          0      )
                  (     0          1          0      )
                  (     0          0          1      )

 cart.    s( 1) = (  1.0000000 -0.0000000  0.0000000 )
                  (  0.0000000  1.0000000  0.0000000 )
                  (  0.0000000  0.0000000  1.0000000 )


      isym =  2     180 deg rotation - cart. axis [0,0,1]        

 cryst.   s( 2) = (    -1          0          0      )    f =(  0.0000000 )
                  (     0         -1          0      )       (  0.0000000 )
                  (     0          0          1      )       (  0.5000000 )

 cart.    s( 2) = ( -1.0000000  0.0000000  0.0000000 )    f =(  0.0000000 )
                  (  0.0000000 -1.0000000  0.0000000 )       (  0.0000000 )
                  (  0.0000000  0.0000000  1.0000000 )       (  0.8394663 )


      isym =  3      60 deg rotation - cryst. axis [0,0,1]       

 cryst.   s( 3) = (     1          1          0      )    f =( -0.0000000 )
                  (    -1          0          0      )       ( -0.0000000 )
                  (     0          0          1      )       (  0.5000000 )

 cart.    s( 3) = (  0.5000000 -0.8660254  0.0000000 )    f =( -0.0000000 )
                  (  0.8660254  0.5000000  0.0000000 )       ( -0.0000000 )
                  (  0.0000000  0.0000000  1.0000000 )       (  0.8394663 )


      isym =  4      60 deg rotation - cryst. axis [0,0,-1]      

 cryst.   s( 4) = (     0         -1          0      )    f =(  0.0000000 )
                  (     1          1          0      )       (  0.0000000 )
                  (     0          0          1      )       (  0.5000000 )

 cart.    s( 4) = (  0.5000000  0.8660254  0.0000000 )    f =( -0.0000000 )
                  ( -0.8660254  0.5000000  0.0000000 )       (  0.0000000 )
                  (  0.0000000  0.0000000  1.0000000 )       (  0.8394663 )


      isym =  5     120 deg rotation - cryst. axis [0,0,1]       

 cryst.   s( 5) = (     0          1          0      )
                  (    -1         -1          0      )
                  (     0          0          1      )

 cart.    s( 5) = ( -0.5000000 -0.8660254  0.0000000 )
                  (  0.8660254 -0.5000000  0.0000000 )
                  (  0.0000000  0.0000000  1.0000000 )


      isym =  6     120 deg rotation - cryst. axis [0,0,-1]      

 cryst.   s( 6) = (    -1         -1          0      )
                  (     1          0          0      )
                  (     0          0          1      )

 cart.    s( 6) = ( -0.5000000  0.8660254  0.0000000 )
                  ( -0.8660254 -0.5000000  0.0000000 )
                  (  0.0000000  0.0000000  1.0000000 )


      isym =  7     inv. 180 deg rotation - cart. axis [0,1,0]   

 cryst.   s( 7) = (     1          0          0      )    f =( -0.0000000 )
                  (    -1         -1          0      )       (  0.0000000 )
                  (     0          0          1      )       (  0.5000000 )

 cart.    s( 7) = (  1.0000000  0.0000000  0.0000000 )    f =( -0.0000000 )
                  (  0.0000000 -1.0000000  0.0000000 )       (  0.0000000 )
                  (  0.0000000  0.0000000  1.0000000 )       (  0.8394663 )


      isym =  8     inv. 180 deg rotation - cart. axis [1,0,0]   

 cryst.   s( 8) = (    -1          0          0      )
                  (     1          1          0      )
                  (     0          0          1      )

 cart.    s( 8) = ( -1.0000000 -0.0000000  0.0000000 )
                  (  0.0000000  1.0000000  0.0000000 )
                  (  0.0000000  0.0000000  1.0000000 )


      isym =  9     inv. 180 deg rotation - cryst. axis [1,-1,0] 

 cryst.   s( 9) = (     0          1          0      )    f =(  0.0000000 )
                  (     1          0          0      )       ( -0.0000000 )
                  (     0          0          1      )       (  0.5000000 )

 cart.    s( 9) = ( -0.5000000  0.8660254  0.0000000 )    f =(  0.0000000 )
                  (  0.8660254  0.5000000  0.0000000 )       ( -0.0000000 )
                  (  0.0000000  0.0000000  1.0000000 )       (  0.8394663 )


      isym = 10     inv. 180 deg rotation - cryst. axis [2,1,0]  

 cryst.   s(10) = (    -1         -1          0      )    f =(  0.0000000 )
                  (     0          1          0      )       (  0.0000000 )
                  (     0          0          1      )       (  0.5000000 )

 cart.    s(10) = ( -0.5000000 -0.8660254  0.0000000 )    f =( -0.0000000 )
                  ( -0.8660254  0.5000000  0.0000000 )       (  0.0000000 )
                  (  0.0000000  0.0000000  1.0000000 )       (  0.8394663 )


      isym = 11     inv. 180 deg rotation - cryst. axis [0,1,0]  

 cryst.   s(11) = (     1          1          0      )
                  (     0         -1          0      )
                  (     0          0          1      )

 cart.    s(11) = (  0.5000000  0.8660254  0.0000000 )
                  (  0.8660254 -0.5000000  0.0000000 )
                  (  0.0000000  0.0000000  1.0000000 )


      isym = 12     inv. 180 deg rotation - cryst. axis [1,1,0]  

 cryst.   s(12) = (     0         -1          0      )
                  (    -1          0          0      )
                  (     0          0          1      )

 cart.    s(12) = (  0.5000000 -0.8660254  0.0000000 )
                  ( -0.8660254 -0.5000000  0.0000000 )
                  (  0.0000000  0.0000000  1.0000000 )


   Cartesian axes

     site n.     atom                  positions (alat units)
         1           Zn  tau(   1) = (   0.5000000   0.2886751   0.8405301  )
         2           Zn  tau(   2) = (  -0.0000000   0.5773503   0.0010637  )
         3           O   tau(   3) = (   0.5000000   0.2886751   1.4769175  )
         4           O   tau(   4) = (  -0.0000000   0.5773503   0.6374511  )

   Crystallographic axes

     site n.     atom                  positions (cryst. coord.)
         1           Zn  tau(   1) = (  0.6666667  0.3333333  0.5006336  )
         2           Zn  tau(   2) = (  0.3333333  0.6666667  0.0006336  )
         3           O   tau(   3) = (  0.6666667  0.3333333  0.8796764  )
         4           O   tau(   4) = (  0.3333333  0.6666667  0.3796764  )

     number of k points=    28
                       cart. coord. in units 2pi/alat
        k(    1) = (   0.0000000   0.0000000   0.0000000), wk =   0.0092593
        k(    2) = (   0.0000000   0.0000000   0.0992694), wk =   0.0185185
        k(    3) = (   0.0000000   0.0000000   0.1985388), wk =   0.0185185
        k(    4) = (   0.0000000   0.0000000  -0.2978082), wk =   0.0092593
        k(    5) = (   0.0000000   0.1924501   0.0000000), wk =   0.0555556
        k(    6) = (   0.0000000   0.1924501   0.0992694), wk =   0.1111111
        k(    7) = (   0.0000000   0.1924501   0.1985388), wk =   0.1111111
        k(    8) = (   0.0000000   0.1924501  -0.2978082), wk =   0.0555556
        k(    9) = (   0.0000000   0.3849002   0.0000000), wk =   0.0555556
        k(   10) = (   0.0000000   0.3849002   0.0992694), wk =   0.1111111
        k(   11) = (   0.0000000   0.3849002   0.1985388), wk =   0.1111111
        k(   12) = (   0.0000000   0.3849002  -0.2978082), wk =   0.0555556
        k(   13) = (   0.0000000  -0.5773503   0.0000000), wk =   0.0277778
        k(   14) = (   0.0000000  -0.5773503   0.0992694), wk =   0.0555556
        k(   15) = (   0.0000000  -0.5773503   0.1985388), wk =   0.0555556
        k(   16) = (   0.0000000  -0.5773503  -0.2978082), wk =   0.0277778
        k(   17) = (   0.1666667   0.2886751   0.0000000), wk =   0.0555556
        k(   18) = (   0.1666667   0.2886751   0.0992694), wk =   0.1111111
        k(   19) = (   0.1666667   0.2886751   0.1985388), wk =   0.1111111
        k(   20) = (   0.1666667   0.2886751  -0.2978082), wk =   0.0555556
        k(   21) = (   0.1666667   0.4811252   0.0000000), wk =   0.1111111
        k(   22) = (   0.1666667   0.4811252   0.0992694), wk =   0.2222222
        k(   23) = (   0.1666667   0.4811252   0.1985388), wk =   0.2222222
        k(   24) = (   0.1666667   0.4811252  -0.2978082), wk =   0.1111111
        k(   25) = (   0.3333333   0.5773503   0.0000000), wk =   0.0185185
        k(   26) = (   0.3333333   0.5773503   0.0992694), wk =   0.0370370
        k(   27) = (   0.3333333   0.5773503   0.1985388), wk =   0.0370370
        k(   28) = (   0.3333333   0.5773503  -0.2978082), wk =   0.0185185

                       cryst. coord.
        k(    1) = (   0.0000000   0.0000000   0.0000000), wk =   0.0092593
        k(    2) = (   0.0000000   0.0000000   0.1666667), wk =   0.0185185
        k(    3) = (   0.0000000   0.0000000   0.3333333), wk =   0.0185185
        k(    4) = (   0.0000000   0.0000000  -0.5000000), wk =   0.0092593
        k(    5) = (   0.0000000   0.1666667   0.0000000), wk =   0.0555556
        k(    6) = (   0.0000000   0.1666667   0.1666667), wk =   0.1111111
        k(    7) = (   0.0000000   0.1666667   0.3333333), wk =   0.1111111
        k(    8) = (   0.0000000   0.1666667  -0.5000000), wk =   0.0555556
        k(    9) = (   0.0000000   0.3333333   0.0000000), wk =   0.0555556
        k(   10) = (   0.0000000   0.3333333   0.1666667), wk =   0.1111111
        k(   11) = (   0.0000000   0.3333333   0.3333333), wk =   0.1111111
        k(   12) = (   0.0000000   0.3333333  -0.5000000), wk =   0.0555556
        k(   13) = (   0.0000000  -0.5000000   0.0000000), wk =   0.0277778
        k(   14) = (   0.0000000  -0.5000000   0.1666667), wk =   0.0555556
        k(   15) = (   0.0000000  -0.5000000   0.3333333), wk =   0.0555556
        k(   16) = (   0.0000000  -0.5000000  -0.5000000), wk =   0.0277778
        k(   17) = (   0.1666667   0.1666667   0.0000000), wk =   0.0555556
        k(   18) = (   0.1666667   0.1666667   0.1666667), wk =   0.1111111
        k(   19) = (   0.1666667   0.1666667   0.3333333), wk =   0.1111111
        k(   20) = (   0.1666667   0.1666667  -0.5000000), wk =   0.0555556
        k(   21) = (   0.1666667   0.3333333   0.0000000), wk =   0.1111111
        k(   22) = (   0.1666667   0.3333333   0.1666667), wk =   0.2222222
        k(   23) = (   0.1666667   0.3333333   0.3333333), wk =   0.2222222
        k(   24) = (   0.1666667   0.3333333  -0.5000000), wk =   0.1111111
        k(   25) = (   0.3333333   0.3333333   0.0000000), wk =   0.0185185
        k(   26) = (   0.3333333   0.3333333   0.1666667), wk =   0.0370370
        k(   27) = (   0.3333333   0.3333333   0.3333333), wk =   0.0370370
        k(   28) = (   0.3333333   0.3333333  -0.5000000), wk =   0.0185185

     Dense  grid:    61729 G-vectors     FFT dimensions: (  45,  45,  80)

     Smooth grid:    21795 G-vectors     FFT dimensions: (  32,  32,  54)

     Dynamical RAM for                 wfc:       0.37 MB

     Dynamical RAM for     wfc (w. buffer):       2.99 MB

     Dynamical RAM for           str. fact:       0.94 MB

     Dynamical RAM for           local pot:       0.00 MB

     Dynamical RAM for          nlocal pot:       1.08 MB

     Dynamical RAM for                qrad:       3.21 MB

     Dynamical RAM for          rho,v,vnew:       3.27 MB

     Dynamical RAM for               rhoin:       1.09 MB

     Dynamical RAM for            rho*nmix:       7.54 MB

     Dynamical RAM for           G-vectors:       1.85 MB

     Dynamical RAM for          h,s,v(r/c):       0.06 MB

     Dynamical RAM for          <psi|beta>:       0.01 MB

     Dynamical RAM for                 psi:       0.75 MB

     Dynamical RAM for                hpsi:       0.75 MB

     Dynamical RAM for                spsi:       0.75 MB

     Dynamical RAM for      wfcinit/wfcrot:       1.10 MB

     Dynamical RAM for           addusdens:      22.49 MB

     Dynamical RAM for          addusforce:      22.61 MB

     Estimated static dynamical RAM per process >      18.94 MB

     Estimated max dynamical RAM per process >      49.09 MB

     Estimated total dynamical RAM >     347.47 MB

     Check: negative core charge=   -0.000002

     Initial potential from superposition of free atoms

     starting charge      35.9925, renormalised to      36.0000
     Starting wfcs are   26 randomized atomic wfcs

     total cpu time spent up to now is        2.5 secs

     per-process dynamical memory:    33.2 Mb

     Self-consistent Calculation

     iteration #  1     ecut=    50.00 Ry     beta= 0.30
     Davidson diagonalization with overlap

---- Real-time Memory Report at c_bands before calling an iterative solver
            78 MiB given to the printing process from OS
            32 MiB allocation reported by mallinfo(arena+hblkhd)
        111210 MiB available memory on the node where the printing process lives
------------------
     ethr =  1.00E-02,  avg # of iterations =  1.2

     total cpu time spent up to now is        3.3 secs

     total energy              =    -361.30766536 Ry
     estimated scf accuracy    <       0.88541716 Ry

     iteration #  2     ecut=    50.00 Ry     beta= 0.30
     Davidson diagonalization with overlap

---- Real-time Memory Report at c_bands before calling an iterative solver
            83 MiB given to the printing process from OS
            53 MiB allocation reported by mallinfo(arena+hblkhd)
        111201 MiB available memory on the node where the printing process lives
------------------
     ethr =  2.46E-03,  avg # of iterations =  2.0

     total cpu time spent up to now is        4.2 secs

     total energy              =    -361.42978364 Ry
     estimated scf accuracy    <       0.10567044 Ry

     iteration #  3     ecut=    50.00 Ry     beta= 0.30
     Davidson diagonalization with overlap

---- Real-time Memory Report at c_bands before calling an iterative solver
            84 MiB given to the printing process from OS
            53 MiB allocation reported by mallinfo(arena+hblkhd)
        111202 MiB available memory on the node where the printing process lives
------------------
     ethr =  2.94E-04,  avg # of iterations =  5.6

     total cpu time spent up to now is        5.4 secs

     total energy              =    -361.42156895 Ry
     estimated scf accuracy    <       0.23090350 Ry

     iteration #  4     ecut=    50.00 Ry     beta= 0.30
     Davidson diagonalization with overlap

---- Real-time Memory Report at c_bands before calling an iterative solver
            84 MiB given to the printing process from OS
            54 MiB allocation reported by mallinfo(arena+hblkhd)
        111202 MiB available memory on the node where the printing process lives
------------------
     ethr =  2.94E-04,  avg # of iterations =  8.4

     total cpu time spent up to now is        7.2 secs

     total energy              =    -361.60473914 Ry
     estimated scf accuracy    <       0.29045367 Ry

     iteration #  5     ecut=    50.00 Ry     beta= 0.30
     Davidson diagonalization with overlap

---- Real-time Memory Report at c_bands before calling an iterative solver
            84 MiB given to the printing process from OS
            54 MiB allocation reported by mallinfo(arena+hblkhd)
        111203 MiB available memory on the node where the printing process lives
------------------
     ethr =  2.94E-04,  avg # of iterations =  1.1

     total cpu time spent up to now is        8.0 secs

     total energy              =    -361.49217662 Ry
     estimated scf accuracy    <       0.31394111 Ry

     iteration #  6     ecut=    50.00 Ry     beta= 0.30
     Davidson diagonalization with overlap

---- Real-time Memory Report at c_bands before calling an iterative solver
            85 MiB given to the printing process from OS
            54 MiB allocation reported by mallinfo(arena+hblkhd)
        111204 MiB available memory on the node where the printing process lives
------------------
     ethr =  2.94E-04,  avg # of iterations =  5.1

     total cpu time spent up to now is        9.0 secs

     total energy              =    -361.50054975 Ry
     estimated scf accuracy    <       0.03935944 Ry

     iteration #  7     ecut=    50.00 Ry     beta= 0.30
     Davidson diagonalization with overlap

---- Real-time Memory Report at c_bands before calling an iterative solver
            85 MiB given to the printing process from OS
            55 MiB allocation reported by mallinfo(arena+hblkhd)
        111200 MiB available memory on the node where the printing process lives
------------------
     ethr =  1.09E-04,  avg # of iterations =  5.9

     total cpu time spent up to now is       10.2 secs

     total energy              =    -361.52355311 Ry
     estimated scf accuracy    <       0.00446361 Ry

     iteration #  8     ecut=    50.00 Ry     beta= 0.30
     Davidson diagonalization with overlap

---- Real-time Memory Report at c_bands before calling an iterative solver
            85 MiB given to the printing process from OS
            55 MiB allocation reported by mallinfo(arena+hblkhd)
        111201 MiB available memory on the node where the printing process lives
------------------
     ethr =  1.24E-05,  avg # of iterations =  6.4

     total cpu time spent up to now is       11.4 secs

     total energy              =    -361.52619024 Ry
     estimated scf accuracy    <       0.01152321 Ry

     iteration #  9     ecut=    50.00 Ry     beta= 0.30
     Davidson diagonalization with overlap

---- Real-time Memory Report at c_bands before calling an iterative solver
            86 MiB given to the printing process from OS
            55 MiB allocation reported by mallinfo(arena+hblkhd)
        111202 MiB available memory on the node where the printing process lives
------------------
     ethr =  1.24E-05,  avg # of iterations =  1.0

     total cpu time spent up to now is       12.1 secs

     total energy              =    -361.52360251 Ry
     estimated scf accuracy    <       0.01186959 Ry

     iteration # 10     ecut=    50.00 Ry     beta= 0.30
     Davidson diagonalization with overlap

---- Real-time Memory Report at c_bands before calling an iterative solver
            86 MiB given to the printing process from OS
            56 MiB allocation reported by mallinfo(arena+hblkhd)
        111203 MiB available memory on the node where the printing process lives
------------------
     ethr =  1.24E-05,  avg # of iterations =  1.3

     total cpu time spent up to now is       12.9 secs

     total energy              =    -361.52334718 Ry
     estimated scf accuracy    <       0.00697675 Ry

     iteration # 11     ecut=    50.00 Ry     beta= 0.30
     Davidson diagonalization with overlap

---- Real-time Memory Report at c_bands before calling an iterative solver
            86 MiB given to the printing process from OS
            56 MiB allocation reported by mallinfo(arena+hblkhd)
        111203 MiB available memory on the node where the printing process lives
------------------
     ethr =  1.24E-05,  avg # of iterations =  2.0

     total cpu time spent up to now is       13.8 secs

     total energy              =    -361.52227507 Ry
     estimated scf accuracy    <       0.00469027 Ry

     iteration # 12     ecut=    50.00 Ry     beta= 0.30
     Davidson diagonalization with overlap

---- Real-time Memory Report at c_bands before calling an iterative solver
            86 MiB given to the printing process from OS
            56 MiB allocation reported by mallinfo(arena+hblkhd)
        111203 MiB available memory on the node where the printing process lives
------------------
     ethr =  1.24E-05,  avg # of iterations =  4.9

     total cpu time spent up to now is       14.8 secs

     total energy              =    -361.52329777 Ry
     estimated scf accuracy    <       0.00011471 Ry

     iteration # 13     ecut=    50.00 Ry     beta= 0.30
     Davidson diagonalization with overlap

---- Real-time Memory Report at c_bands before calling an iterative solver
            86 MiB given to the printing process from OS
            56 MiB allocation reported by mallinfo(arena+hblkhd)
        111204 MiB available memory on the node where the printing process lives
------------------
     ethr =  3.19E-07,  avg # of iterations = 10.8

     total cpu time spent up to now is       16.8 secs

     total energy              =    -361.52367037 Ry
     estimated scf accuracy    <       0.00258344 Ry

     iteration # 14     ecut=    50.00 Ry     beta= 0.30
     Davidson diagonalization with overlap

---- Real-time Memory Report at c_bands before calling an iterative solver
            86 MiB given to the printing process from OS
            56 MiB allocation reported by mallinfo(arena+hblkhd)
        111204 MiB available memory on the node where the printing process lives
------------------
     ethr =  3.19E-07,  avg # of iterations =  6.6

     total cpu time spent up to now is       18.0 secs

     total energy              =    -361.52346629 Ry
     estimated scf accuracy    <       0.00085947 Ry

     iteration # 15     ecut=    50.00 Ry     beta= 0.30
     Davidson diagonalization with overlap

---- Real-time Memory Report at c_bands before calling an iterative solver
            86 MiB given to the printing process from OS
            56 MiB allocation reported by mallinfo(arena+hblkhd)
        111204 MiB available memory on the node where the printing process lives
------------------
     ethr =  3.19E-07,  avg # of iterations =  6.9

     total cpu time spent up to now is       19.3 secs

     total energy              =    -361.52360709 Ry
     estimated scf accuracy    <       0.00001338 Ry

     iteration # 16     ecut=    50.00 Ry     beta= 0.30
     Davidson diagonalization with overlap

---- Real-time Memory Report at c_bands before calling an iterative solver
            86 MiB given to the printing process from OS
            56 MiB allocation reported by mallinfo(arena+hblkhd)
        111204 MiB available memory on the node where the printing process lives
------------------
     c_bands:  1 eigenvalues not converged
     ethr =  3.72E-08,  avg # of iterations = 14.0

     total cpu time spent up to now is       21.6 secs

     total energy              =    -361.52373669 Ry
     estimated scf accuracy    <       0.00080582 Ry

     iteration # 17     ecut=    50.00 Ry     beta= 0.30
     Davidson diagonalization with overlap

---- Real-time Memory Report at c_bands before calling an iterative solver
            86 MiB given to the printing process from OS
            56 MiB allocation reported by mallinfo(arena+hblkhd)
        111204 MiB available memory on the node where the printing process lives
------------------
     ethr =  3.72E-08,  avg # of iterations =  1.4

     total cpu time spent up to now is       22.4 secs

     total energy              =    -361.52352881 Ry
     estimated scf accuracy    <       0.00073750 Ry

     iteration # 18     ecut=    50.00 Ry     beta= 0.30
     Davidson diagonalization with overlap

---- Real-time Memory Report at c_bands before calling an iterative solver
            86 MiB given to the printing process from OS
            56 MiB allocation reported by mallinfo(arena+hblkhd)
        111204 MiB available memory on the node where the printing process lives
------------------
     c_bands:  1 eigenvalues not converged
     ethr =  3.72E-08,  avg # of iterations = 11.8

     total cpu time spent up to now is       24.3 secs

     total energy              =    -361.52359965 Ry
     estimated scf accuracy    <       0.00004133 Ry

     iteration # 19     ecut=    50.00 Ry     beta= 0.30
     Davidson diagonalization with overlap

---- Real-time Memory Report at c_bands before calling an iterative solver
            86 MiB given to the printing process from OS
            56 MiB allocation reported by mallinfo(arena+hblkhd)
        111204 MiB available memory on the node where the printing process lives
------------------
     ethr =  3.72E-08,  avg # of iterations =  2.0

     total cpu time spent up to now is       25.2 secs

     total energy              =    -361.52358841 Ry
     estimated scf accuracy    <       0.00002939 Ry

     iteration # 20     ecut=    50.00 Ry     beta= 0.30
     Davidson diagonalization with overlap

---- Real-time Memory Report at c_bands before calling an iterative solver
            86 MiB given to the printing process from OS
            56 MiB allocation reported by mallinfo(arena+hblkhd)
        111205 MiB available memory on the node where the printing process lives
------------------
     ethr =  3.72E-08,  avg # of iterations =  6.6

     total cpu time spent up to now is       26.4 secs

     total energy              =    -361.52359673 Ry
     estimated scf accuracy    <       0.00000157 Ry

     iteration # 21     ecut=    50.00 Ry     beta= 0.30
     Davidson diagonalization with overlap

---- Real-time Memory Report at c_bands before calling an iterative solver
            86 MiB given to the printing process from OS
            56 MiB allocation reported by mallinfo(arena+hblkhd)
        111205 MiB available memory on the node where the printing process lives
------------------
     ethr =  4.37E-09,  avg # of iterations =  6.1

     total cpu time spent up to now is       27.7 secs

     total energy              =    -361.52359740 Ry
     estimated scf accuracy    <       0.00000073 Ry

     iteration # 22     ecut=    50.00 Ry     beta= 0.30
     Davidson diagonalization with overlap

---- Real-time Memory Report at c_bands before calling an iterative solver
            86 MiB given to the printing process from OS
            56 MiB allocation reported by mallinfo(arena+hblkhd)
        111205 MiB available memory on the node where the printing process lives
------------------
     ethr =  2.03E-09,  avg # of iterations =  1.2

     total cpu time spent up to now is       28.5 secs

     total energy              =    -361.52359726 Ry
     estimated scf accuracy    <       0.00000042 Ry

     iteration # 23     ecut=    50.00 Ry     beta= 0.30
     Davidson diagonalization with overlap

---- Real-time Memory Report at c_bands before calling an iterative solver
            86 MiB given to the printing process from OS
            56 MiB allocation reported by mallinfo(arena+hblkhd)
        111205 MiB available memory on the node where the printing process lives
------------------
     ethr =  1.15E-09,  avg # of iterations =  5.0

     total cpu time spent up to now is       29.5 secs

     End of self-consistent calculation

          k = 0.0000 0.0000 0.0000 (  2719 PWs)   bands (ev):

   -13.0022 -12.7190  -1.8216  -1.8216  -1.8005  -1.7429  -1.7429  -1.3962
    -1.3962  -1.3440  -1.3207  -1.3207  -0.3210   2.6038   2.6038   2.9016
     2.9973   2.9973

     occupation numbers 
     1.0000   1.0000   1.0000   1.0000   1.0000   1.0000   1.0000   1.0000
     1.0000   1.0000   1.0000   1.0000   1.0000   1.0000   1.0000   1.0000
     1.0000   1.0000

          k = 0.0000 0.0000 0.0993 (  2732 PWs)   bands (ev):

   -12.9837 -12.7385  -1.8182  -1.8182  -1.8010  -1.7501  -1.7501  -1.4544
    -1.3899  -1.3899  -1.3244  -1.3244  -0.1019   2.3001   2.6305   2.6305
     2.9713   2.9713

     occupation numbers 
     1.0000   1.0000   1.0000   1.0000   1.0000   1.0000   1.0000   1.0000
     1.0000   1.0000   1.0000   1.0000   1.0000   1.0000   1.0000   1.0000
     1.0000   1.0000

          k = 0.0000 0.0000 0.1985 (  2762 PWs)   bands (ev):

   -12.9328 -12.7913  -1.8075  -1.8075  -1.7912  -1.7681  -1.7681  -1.6274
    -1.3735  -1.3735  -1.3356  -1.3356   0.3821   1.6163   2.7031   2.7031
     2.8999   2.8999

     occupation numbers 
     1.0000   1.0000   1.0000   1.0000   1.0000   1.0000   1.0000   1.0000
     1.0000   1.0000   1.0000   1.0000   1.0000   1.0000   1.0000   1.0000
     1.0000   1.0000

          k = 0.0000 0.0000-0.2978 (  2738 PWs)   bands (ev):

   -12.8625 -12.8625  -1.7895  -1.7895  -1.7895  -1.7895  -1.7418  -1.7418
    -1.3530  -1.3530  -1.3530  -1.3530   0.9725   0.9725   2.8019   2.8019
     2.8019   2.8019

     occupation numbers 
     1.0000   1.0000   1.0000   1.0000   1.0000   1.0000   1.0000   1.0000
     1.0000   1.0000   1.0000   1.0000   1.0000   1.0000   1.0000   1.0000
     1.0000   1.0000

          k = 0.0000 0.1925 0.0000 (  2729 PWs)   bands (ev):

   -12.9333 -12.6843  -1.8309  -1.7791  -1.7627  -1.7100  -1.6815  -1.4198
    -1.4081  -1.3961  -1.3172  -1.2428  -0.1243   1.7390   2.0195   2.3990
     2.8336   2.8778

     occupation numbers 
     1.0000   1.0000   1.0000   1.0000   1.0000   1.0000   1.0000   1.0000
     1.0000   1.0000   1.0000   1.0000   1.0000   1.0000   1.0000   1.0000
     1.0000   1.0000

          k = 0.0000 0.1925 0.0993 (  2726 PWs)   bands (ev):

   -12.9168 -12.7012  -1.8309  -1.7740  -1.7640  -1.7161  -1.6896  -1.4721
    -1.4074  -1.3899  -1.3215  -1.2804   0.0566   1.6380   2.0310   2.4313
     2.7624   2.8460

     occupation numbers 
     1.0000   1.0000   1.0000   1.0000   1.0000   1.0000   1.0000   1.0000
     1.0000   1.0000   1.0000   1.0000   1.0000   1.0000   1.0000   1.0000
     1.0000   1.0000

          k = 0.0000 0.1925 0.1985 (  2732 PWs)   bands (ev):

   -12.8718 -12.7473  -1.8245  -1.7713  -1.7593  -1.7227  -1.7106  -1.6047
    -1.3819  -1.3738  -1.3344  -1.3187   0.4551   1.3250   2.1506   2.5195
     2.5832   2.7588

     occupation numbers 
     1.0000   1.0000   1.0000   1.0000   1.0000   1.0000   1.0000   1.0000
     1.0000   1.0000   1.0000   1.0000   1.0000   1.0000   1.0000   1.0000
     1.0000   1.0000

          k = 0.0000 0.1925-0.2978 (  2732 PWs)   bands (ev):

   -12.8098 -12.8098  -1.7992  -1.7992  -1.7365  -1.7365  -1.6943  -1.6943
    -1.3534  -1.3534  -1.3504  -1.3504   0.9052   0.9052   2.3568   2.3568
     2.6394   2.6394

     occupation numbers 
     1.0000   1.0000   1.0000   1.0000   1.0000   1.0000   1.0000   1.0000
     1.0000   1.0000   1.0000   1.0000   1.0000   1.0000   1.0000   1.0000
     1.0000   1.0000

          k = 0.0000 0.3849 0.0000 (  2725 PWs)   bands (ev):

   -12.7830 -12.6228  -1.8060  -1.7147  -1.7007  -1.5600  -1.5508  -1.4640
    -1.3997  -1.3606  -1.3075  -1.2025   0.2196   0.6489   1.2166   1.9985
     2.5214   2.6270

     occupation numbers 
     1.0000   1.0000   1.0000   1.0000   1.0000   1.0000   1.0000   1.0000
     1.0000   1.0000   1.0000   1.0000   1.0000   1.0000   1.0000   1.0000
     1.0000   1.0000

          k = 0.0000 0.3849 0.0993 (  2720 PWs)   bands (ev):

   -12.7721 -12.6334  -1.8088  -1.7146  -1.7048  -1.5634  -1.5626  -1.4797
    -1.3985  -1.3576  -1.3119  -1.2281   0.2226   0.6550   1.3214   2.0412
     2.5093   2.5851

     occupation numbers 
     1.0000   1.0000   1.0000   1.0000   1.0000   1.0000   1.0000   1.0000
     1.0000   1.0000   1.0000   1.0000   1.0000   1.0000   1.0000   1.0000
     1.0000   1.0000

          k = 0.0000 0.3849 0.1985 (  2720 PWs)   bands (ev):

   -12.7425 -12.6623  -1.8091  -1.7495  -1.6766  -1.5946  -1.5698  -1.5319
    -1.3690  -1.3489  -1.3231  -1.2763   0.2802   0.5574   1.6661   2.1570
     2.3900   2.4707

     occupation numbers 
     1.0000   1.0000   1.0000   1.0000   1.0000   1.0000   1.0000   1.0000
     1.0000   1.0000   1.0000   1.0000   1.0000   1.0000   1.0000   1.0000
     1.0000   1.0000

          k = 0.0000 0.3849-0.2978 (  2738 PWs)   bands (ev):

   -12.7023 -12.7023  -1.7893  -1.7893  -1.6368  -1.6368  -1.5657  -1.5657
    -1.3368  -1.3368  -1.3245  -1.3245   0.4046   0.4046   2.0844   2.0844
     2.3142   2.3142

     occupation numbers 
     1.0000   1.0000   1.0000   1.0000   1.0000   1.0000   1.0000   1.0000
     1.0000   1.0000   1.0000   1.0000   1.0000   1.0000   1.0000   1.0000
     1.0000   1.0000

          k = 0.0000-0.5774 0.0000 (  2722 PWs)   bands (ev):

   -12.6924 -12.6055  -1.7945  -1.6965  -1.6063  -1.5226  -1.4856  -1.4123
    -1.3191  -1.2962  -1.2838  -1.2563  -0.0826   0.3704   1.2236   1.7972
     2.2208   2.4971

     occupation numbers 
     1.0000   1.0000   1.0000   1.0000   1.0000   1.0000   1.0000   1.0000
     1.0000   1.0000   1.0000   1.0000   1.0000   1.0000   1.0000   1.0000
     1.0000   1.0000

          k = 0.0000-0.5774 0.0993 (  2724 PWs)   bands (ev):

   -12.6862 -12.6109  -1.7994  -1.6839  -1.6474  -1.5155  -1.5006  -1.4015
    -1.3185  -1.2998  -1.2897  -1.2567  -0.1054   0.2927   1.3906   1.8450
     2.2685   2.4506

     occupation numbers 
     1.0000   1.0000   1.0000   1.0000   1.0000   1.0000   1.0000   1.0000
     1.0000   1.0000   1.0000   1.0000   1.0000   1.0000   1.0000   1.0000
     1.0000   1.0000

          k = 0.0000-0.5774 0.1985 (  2726 PWs)   bands (ev):

   -12.6696 -12.6261  -1.8027  -1.7234  -1.6476  -1.5415  -1.4935  -1.4159
    -1.3165  -1.3067  -1.2849  -1.2596  -0.1045   0.1284   1.7605   1.9745
     2.2889   2.3235

     occupation numbers 
     1.0000   1.0000   1.0000   1.0000   1.0000   1.0000   1.0000   1.0000
     1.0000   1.0000   1.0000   1.0000   1.0000   1.0000   1.0000   1.0000
     1.0000   1.0000

          k = 0.0000-0.5774-0.2978 (  2724 PWs)   bands (ev):

   -12.6474 -12.6474  -1.7812  -1.7812  -1.5959  -1.5959  -1.4569  -1.4569
    -1.3127  -1.3127  -1.2693  -1.2693  -0.0221  -0.0221   2.1146   2.1146
     2.1496   2.1496

     occupation numbers 
     1.0000   1.0000   1.0000   1.0000   1.0000   1.0000   1.0000   1.0000
     1.0000   1.0000   1.0000   1.0000   1.0000   1.0000   1.0000   1.0000
     1.0000   1.0000

          k = 0.1667 0.2887 0.0000 (  2731 PWs)   bands (ev):

   -12.8232 -12.6364  -1.7690  -1.7624  -1.6976  -1.6508  -1.5719  -1.4395
    -1.4275  -1.3805  -1.3109  -1.2049   0.1769   1.0211   1.3431   1.9806
     2.5688   2.6386

     occupation numbers 
     1.0000   1.0000   1.0000   1.0000   1.0000   1.0000   1.0000   1.0000
     1.0000   1.0000   1.0000   1.0000   1.0000   1.0000   1.0000   1.0000
     1.0000   1.0000

          k = 0.1667 0.2887 0.0993 (  2733 PWs)   bands (ev):

   -12.8106 -12.6488  -1.7718  -1.7571  -1.7013  -1.6568  -1.5813  -1.4778
    -1.4222  -1.3706  -1.3153  -1.2343   0.2564   0.9632   1.4603   2.0024
     2.5246   2.6120

     occupation numbers 
     1.0000   1.0000   1.0000   1.0000   1.0000   1.0000   1.0000   1.0000
     1.0000   1.0000   1.0000   1.0000   1.0000   1.0000   1.0000   1.0000
     1.0000   1.0000

          k = 0.1667 0.2887 0.1985 (  2733 PWs)   bands (ev):

   -12.7763 -12.6829  -1.7735  -1.7487  -1.7001  -1.6707  -1.6046  -1.5734
    -1.3817  -1.3574  -1.3263  -1.2833   0.4289   0.8135   1.7691   2.0855
     2.4068   2.4713

     occupation numbers 
     1.0000   1.0000   1.0000   1.0000   1.0000   1.0000   1.0000   1.0000
     1.0000   1.0000   1.0000   1.0000   1.0000   1.0000   1.0000   1.0000
     1.0000   1.0000

          k = 0.1667 0.2887-0.2978 (  2728 PWs)   bands (ev):

   -12.7295 -12.7295  -1.7593  -1.7593  -1.6860  -1.6860  -1.6199  -1.6199
    -1.3458  -1.3458  -1.3284  -1.3284   0.6233   0.6233   2.1235   2.1235
     2.2750   2.2750

     occupation numbers 
     1.0000   1.0000   1.0000   1.0000   1.0000   1.0000   1.0000   1.0000
     1.0000   1.0000   1.0000   1.0000   1.0000   1.0000   1.0000   1.0000
     1.0000   1.0000

          k = 0.1667 0.4811 0.0000 (  2724 PWs)   bands (ev):

   -12.6948 -12.6042  -1.7790  -1.6784  -1.5642  -1.5135  -1.4717  -1.4569
    -1.3876  -1.3518  -1.2779  -1.1886   0.1377   0.4434   1.2226   1.4925
     2.2019   2.2800

     occupation numbers 
     1.0000   1.0000   1.0000   1.0000   1.0000   1.0000   1.0000   1.0000
     1.0000   1.0000   1.0000   1.0000   1.0000   1.0000   1.0000   1.0000
     1.0000   1.0000

          k = 0.1667 0.4811 0.0993 (  2725 PWs)   bands (ev):

   -12.6883 -12.6099  -1.7711  -1.6818  -1.5966  -1.5213  -1.4793  -1.4664
    -1.3838  -1.3407  -1.2764  -1.1975   0.1072   0.3914   1.3252   1.5989
     2.1535   2.3155

     occupation numbers 
     1.0000   1.0000   1.0000   1.0000   1.0000   1.0000   1.0000   1.0000
     1.0000   1.0000   1.0000   1.0000   1.0000   1.0000   1.0000   1.0000
     1.0000   1.0000

          k = 0.1667 0.4811 0.1985 (  2725 PWs)   bands (ev):

   -12.6711 -12.6257  -1.7548  -1.6911  -1.6389  -1.5519  -1.5011  -1.4900
    -1.3568  -1.3314  -1.2680  -1.2204   0.0930   0.2692   1.5249   1.8768
     2.0104   2.3451

     occupation numbers 
     1.0000   1.0000   1.0000   1.0000   1.0000   1.0000   1.0000   1.0000
     1.0000   1.0000   1.0000   1.0000   1.0000   1.0000   1.0000   1.0000
     1.0000   1.0000

          k = 0.1667 0.4811-0.2978 (  2722 PWs)   bands (ev):

   -12.6480 -12.6480  -1.7298  -1.7298  -1.6073  -1.6073  -1.5037  -1.5037
    -1.3359  -1.3359  -1.2476  -1.2476   0.1523   0.1523   1.7539   1.7539
     2.2102   2.2102

     occupation numbers 
     1.0000   1.0000   1.0000   1.0000   1.0000   1.0000   1.0000   1.0000
     1.0000   1.0000   1.0000   1.0000   1.0000   1.0000   1.0000   1.0000
     1.0000   1.0000

          k = 0.3333 0.5774 0.0000 (  2718 PWs)   bands (ev):

   -12.6229 -12.6229  -1.7927  -1.5681  -1.5681  -1.4672  -1.4151  -1.4151
    -1.3826  -1.3708  -1.2054  -1.2054   0.3204   0.3204   0.7197   1.8351
     1.8351   1.8631

     occupation numbers 
     1.0000   1.0000   1.0000   1.0000   1.0000   1.0000   1.0000   1.0000
     1.0000   1.0000   1.0000   1.0000   1.0000   1.0000   1.0000   1.0000
     1.0000   1.0000

          k = 0.3333 0.5774 0.0993 (  2727 PWs)   bands (ev):

   -12.6225 -12.6225  -1.7754  -1.5899  -1.5899  -1.4916  -1.4149  -1.4149
    -1.3872  -1.3729  -1.1974  -1.1974   0.2673   0.2673   0.7981   1.7842
     1.9467   1.9467

     occupation numbers 
     1.0000   1.0000   1.0000   1.0000   1.0000   1.0000   1.0000   1.0000
     1.0000   1.0000   1.0000   1.0000   1.0000   1.0000   1.0000   1.0000
     1.0000   1.0000

          k = 0.3333 0.5774 0.1985 (  2697 PWs)   bands (ev):

   -12.6215 -12.6215  -1.7248  -1.6301  -1.6301  -1.5610  -1.4151  -1.4151
    -1.3887  -1.3778  -1.1827  -1.1827   0.1790   0.1790   1.0078   1.5728
     2.1557   2.1557

     occupation numbers 
     1.0000   1.0000   1.0000   1.0000   1.0000   1.0000   1.0000   1.0000
     1.0000   1.0000   1.0000   1.0000   1.0000   1.0000   1.0000   1.0000
     1.0000   1.0000

          k = 0.3333 0.5774-0.2978 (  2694 PWs)   bands (ev):

   -12.6211 -12.6211  -1.6492  -1.6492  -1.6482  -1.6482  -1.4157  -1.4157
    -1.3842  -1.3842  -1.1762  -1.1762   0.1414   0.1414   1.2897   1.2897
     2.2555   2.2555

     occupation numbers 
     1.0000   1.0000   1.0000   1.0000   1.0000   1.0000   1.0000   1.0000
     1.0000   1.0000   1.0000   1.0000   1.0000   1.0000   1.0000   1.0000
     1.0000   1.0000

     highest occupied level (ev):     2.9973

!    total energy              =    -361.52359737 Ry
     estimated scf accuracy    <          1.5E-09 Ry

     The total energy is the sum of the following terms:
     one-electron contribution =    -190.30192964 Ry
     hartree contribution      =     131.42433877 Ry
     xc contribution           =    -108.99033831 Ry
     ewald contribution        =    -193.65566818 Ry

     convergence has been achieved in  23 iterations

     Forces acting on atoms (cartesian axes, Ry/au):

     atom    1 type  1   force =     0.00000000   -0.00000000   -0.00575895
     atom    2 type  1   force =     0.00000000    0.00000000   -0.00575895
     atom    3 type  2   force =     0.00000000    0.00000000    0.00575895
     atom    4 type  2   force =     0.00000000   -0.00000000    0.00575895
     The non-local contrib.  to forces
     atom    1 type  1   force =     0.00000000    0.00000000    0.08754086
     atom    2 type  1   force =     0.00000000   -0.00000000    0.08754086
     atom    3 type  2   force =     0.00000000    0.00000000    0.11190939
     atom    4 type  2   force =     0.00000000    0.00000000    0.11190939
     The ionic contribution  to forces
     atom    1 type  1   force =    -0.00000000    0.00000000    0.70254666
     atom    2 type  1   force =     0.00000000   -0.00000000    0.70254666
     atom    3 type  2   force =    -0.00000000    0.00000000   -0.70254666
     atom    4 type  2   force =     0.00000000   -0.00000000   -0.70254666
     The local contribution  to forces
     atom    1 type  1   force =    -0.00000002    0.00000001   -0.79101214
     atom    2 type  1   force =     0.00000007   -0.00000004   -0.79101214
     atom    3 type  2   force =    -0.00000001    0.00000000    0.59747239
     atom    4 type  2   force =     0.00000002   -0.00000001    0.59747239
     The core correction contribution to forces
     atom    1 type  1   force =    -0.00000000    0.00000000   -0.00483111
     atom    2 type  1   force =     0.00000001   -0.00000001   -0.00483111
     atom    3 type  2   force =     0.00000000   -0.00000000   -0.00106409
     atom    4 type  2   force =    -0.00000000    0.00000000   -0.00106409
     The Hubbard contrib.    to forces
     atom    1 type  1   force =     0.00000000    0.00000000    0.00000000
     atom    2 type  1   force =     0.00000000    0.00000000    0.00000000
     atom    3 type  2   force =     0.00000000    0.00000000    0.00000000
     atom    4 type  2   force =     0.00000000    0.00000000    0.00000000
     The SCF correction term to forces
     atom    1 type  1   force =     0.00000000   -0.00000000   -0.00000222
     atom    2 type  1   force =    -0.00000000    0.00000000   -0.00000222
     atom    3 type  2   force =     0.00000000   -0.00000000   -0.00001105
     atom    4 type  2   force =    -0.00000000    0.00000000   -0.00001105

     Total force =     0.011518     Total SCF correction =     0.000016

     init_run     :      2.04s CPU      2.11s WALL (       1 calls)
     electrons    :     26.24s CPU     27.07s WALL (       1 calls)
     forces       :      0.66s CPU      0.67s WALL (       1 calls)

     Called by init_run:
     wfcinit      :      0.28s CPU      0.30s WALL (       1 calls)
     wfcinit:atom :      0.01s CPU      0.01s WALL (       7 calls)
     wfcinit:wfcr :      0.24s CPU      0.26s WALL (       7 calls)
     potinit      :      0.43s CPU      0.44s WALL (       1 calls)
     hinit0       :      1.20s CPU      1.22s WALL (       1 calls)

     Called by electrons:
     c_bands      :     18.50s CPU     19.06s WALL (      23 calls)
     sum_band     :      4.10s CPU      4.28s WALL (      23 calls)
     v_of_rho     :      1.82s CPU      1.87s WALL (      24 calls)
     v_h          :      0.09s CPU      0.09s WALL (      24 calls)
     v_xc         :      1.80s CPU      1.85s WALL (      25 calls)
     newd         :      1.57s CPU      1.61s WALL (      24 calls)
     mix_rho      :      0.25s CPU      0.26s WALL (      23 calls)

     Called by c_bands:
     init_us_2    :      0.35s CPU      0.36s WALL (     336 calls)
     init_us_2:cp :      0.35s CPU      0.36s WALL (     336 calls)
     cegterg      :     16.66s CPU     17.22s WALL (     161 calls)

     Called by sum_band:
     sum_band:wei :      0.00s CPU      0.00s WALL (      23 calls)
     sum_band:loo :      2.11s CPU      2.20s WALL (      23 calls)
     sum_band:buf :      0.02s CPU      0.02s WALL (     161 calls)
     sum_band:ini :      0.17s CPU      0.17s WALL (     161 calls)
     sum_band:cal :      0.25s CPU      0.25s WALL (     161 calls)
     sum_band:bec :      0.01s CPU      0.01s WALL (     161 calls)
     addusdens    :      1.67s CPU      1.73s WALL (      23 calls)
     addusd:skk   :      0.01s CPU      0.01s WALL (      46 calls)
     addusd:dgemm :      0.33s CPU      0.36s WALL (      46 calls)
     addusd:qvan2 :      1.15s CPU      1.16s WALL (      46 calls)

     Called by *egterg:
     cdiaghg      :      1.03s CPU      1.04s WALL (    1174 calls)
     cegterg:over :      1.27s CPU      1.28s WALL (    1013 calls)
     cegterg:upda :      0.58s CPU      0.58s WALL (    1013 calls)
     cegterg:last :      0.89s CPU      0.89s WALL (     476 calls)
     h_psi        :     11.95s CPU     12.49s WALL (    1181 calls)
     s_psi        :      0.68s CPU      0.69s WALL (    1181 calls)
     g_psi        :      0.11s CPU      0.11s WALL (    1013 calls)

     Called by h_psi:
     h_psi:calbec :      1.02s CPU      1.06s WALL (    1181 calls)
     vloc_psi     :     10.12s CPU     10.62s WALL (    1181 calls)
     add_vuspsi   :      0.75s CPU      0.76s WALL (    1181 calls)

     General routines
     calbec       :      1.30s CPU      1.34s WALL (    1370 calls)
     fft          :      1.00s CPU      1.07s WALL (     321 calls)
     ffts         :      0.17s CPU      0.17s WALL (      47 calls)
     fftw         :     10.42s CPU     10.95s WALL (   22582 calls)
     interpolate  :      0.22s CPU      0.23s WALL (      24 calls)

     Parallel routines

     PWSCF        :     29.32s CPU     30.24s WALL


   This run was terminated on:  11: 1:49  26Aug2025            

=------------------------------------------------------------------------------=
   JOB DONE.
=------------------------------------------------------------------------------=
