
     Program PWSCF v.7.0 starts on 26Aug2025 at  9:59:41 

     This program is part of the open-source Quantum ESPRESSO suite
     for quantum simulation of materials; please cite
         "P. Giannozzi et al., J. Phys.:Condens. Matter 21 395502 (2009);
         "P. Giannozzi et al., J. Phys.:Condens. Matter 29 465901 (2017);
         "P. Giannozzi et al., J. Chem. Phys. 152 154105 (2020);
          URL http://www.quantum-espresso.org", 
     in publications or presentations arising from this work. More details at
     http://www.quantum-espresso.org/quote

     Parallel version (MPI & OpenMP), running on       8 processor cores
     Number of MPI processes:                 8
     Threads/MPI process:                     1

     MPI processes distributed on     1 nodes
     K-points division:     npool     =       4
     R & G space division:  proc/nbgrp/npool/nimage =       2
     111600 MiB available memory on the printing compute node when the environment starts

     Reading input from /home/jvc/QEspresso7.2/ZnO_database/scripts/cell111.in/ZnO-2.94-1.71-111.in
Warning: card &CELL ignored
Warning: card / ignored
Warning: card &FCP ignored
Warning: card / ignored
Warning: card &RISM ignored
Warning: card / ignored

     Current dimensions of program PWSCF are:
     Max number of different atomic species (ntypx) = 10
     Max number of k-points (npk) =  40000
     Max angular momentum in pseudopotentials (lmaxx) =  4
     file Zn.upf: wavefunction(s)  3D renormalized
     Message from routine setup:
     using ibrav=0 with symmetry is DISCOURAGED, use correct ibrav instead

     Subspace diagonalization in iterative solution of the eigenvalue problem:
     a serial algorithm will be used


     Parallelization info
     --------------------
     sticks:   dense  smooth     PW     G-vecs:    dense   smooth      PW
     Min         423     216     63                17195     6111    1028
     Max         424     217     64                17204     6112    1029
     Sum         847     433    127                34399    12223    2057

     Using Slab Decomposition



     bravais-lattice index     =            0
     lattice parameter (alat)  =       5.5610  a.u.
     unit-cell volume          =     254.8518 (a.u.)^3
     number of atoms/cell      =            4
     number of atomic types    =            2
     number of electrons       =        36.00
     number of Kohn-Sham states=           18
     kinetic-energy cutoff     =      50.0000  Ry
     charge density cutoff     =     400.0000  Ry
     scf convergence threshold =      1.0E-08
     mixing beta               =       0.3000
     number of iterations used =            8  plain     mixing
     Exchange-correlation= PBE
                           (   1   4   3   4   0   0   0)

     celldm(1)=   5.560969  celldm(2)=   0.000000  celldm(3)=   0.000000
     celldm(4)=   0.000000  celldm(5)=   0.000000  celldm(6)=   0.000000

     crystal axes: (cart. coord. in units of alat)
               a(1) = (   1.000000   0.000000   0.000000 )  
               a(2) = (  -0.500000   0.866025   0.000000 )  
               a(3) = (   0.000000   0.000000   1.711220 )  

     reciprocal axes: (cart. coord. in units 2 pi/alat)
               b(1) = (  1.000000  0.577350 -0.000000 )  
               b(2) = (  0.000000  1.154701  0.000000 )  
               b(3) = (  0.000000 -0.000000  0.584378 )  


     PseudoPot. # 1 for Zn read from file:
     /home/jvc/QEspresso7.2/ZnO_database/pseudos/Zn.upf
     MD5 check sum: 7f56cabf9682ed8c977c2f7d0c5985c5
     Pseudo is Ultrasoft + core correction, Zval = 12.0
     Generated using &quot;atomic&quot; code by A. Dal Corso  v.6.2.2
     Using radial grid of 1201 points,  6 beta functions with: 
                l(1) =   0
                l(2) =   0
                l(3) =   1
                l(4) =   1
                l(5) =   2
                l(6) =   2
     Q(r) pseudized with 0 coefficients 


     PseudoPot. # 2 for O  read from file:
     /home/jvc/QEspresso7.2/ZnO_database/pseudos/O.upf
     MD5 check sum: 91400c9766925bcf19f520983a725ff0
     Pseudo is Ultrasoft + core correction, Zval =  6.0
     Generated using &quot;atomic&quot; code by A. Dal Corso  v.6.3MaX
     Using radial grid of 1095 points,  4 beta functions with: 
                l(1) =   0
                l(2) =   0
                l(3) =   1
                l(4) =   1
     Q(r) pseudized with 0 coefficients 


     atomic species   valence    mass     pseudopotential
        Zn            12.00    65.38000     Zn( 1.00)
        O              6.00    15.99900     O ( 1.00)

     12 Sym. Ops. (no inversion) found ( 6 have fractional translation)


                                    s                        frac. trans.

      isym =  1     identity                                     

 cryst.   s( 1) = (     1          0          0      )
                  (     0          1          0      )
                  (     0          0          1      )

 cart.    s( 1) = (  1.0000000  0.0000000  0.0000000 )
                  (  0.0000000  1.0000000  0.0000000 )
                  (  0.0000000  0.0000000  1.0000000 )


      isym =  2     180 deg rotation - cart. axis [0,0,1]        

 cryst.   s( 2) = (    -1          0          0      )    f =(  0.0000000 )
                  (     0         -1          0      )       (  0.0000000 )
                  (     0          0          1      )       (  0.5000000 )

 cart.    s( 2) = ( -1.0000000  0.0000000  0.0000000 )    f =(  0.0000000 )
                  (  0.0000000 -1.0000000  0.0000000 )       (  0.0000000 )
                  (  0.0000000  0.0000000  1.0000000 )       (  0.8556099 )


      isym =  3      60 deg rotation - cryst. axis [0,0,1]       

 cryst.   s( 3) = (     1          1          0      )    f =( -0.0000000 )
                  (    -1          0          0      )       ( -0.0000000 )
                  (     0          0          1      )       (  0.5000000 )

 cart.    s( 3) = (  0.5000000 -0.8660254  0.0000000 )    f =( -0.0000000 )
                  (  0.8660254  0.5000000  0.0000000 )       ( -0.0000000 )
                  (  0.0000000  0.0000000  1.0000000 )       (  0.8556099 )


      isym =  4      60 deg rotation - cryst. axis [0,0,-1]      

 cryst.   s( 4) = (     0         -1          0      )    f =(  0.0000000 )
                  (     1          1          0      )       (  0.0000000 )
                  (     0          0          1      )       (  0.5000000 )

 cart.    s( 4) = (  0.5000000  0.8660254  0.0000000 )    f =( -0.0000000 )
                  ( -0.8660254  0.5000000  0.0000000 )       (  0.0000000 )
                  (  0.0000000  0.0000000  1.0000000 )       (  0.8556099 )


      isym =  5     120 deg rotation - cryst. axis [0,0,1]       

 cryst.   s( 5) = (     0          1          0      )
                  (    -1         -1          0      )
                  (     0          0          1      )

 cart.    s( 5) = ( -0.5000000 -0.8660254  0.0000000 )
                  (  0.8660254 -0.5000000  0.0000000 )
                  (  0.0000000  0.0000000  1.0000000 )


      isym =  6     120 deg rotation - cryst. axis [0,0,-1]      

 cryst.   s( 6) = (    -1         -1          0      )
                  (     1          0          0      )
                  (     0          0          1      )

 cart.    s( 6) = ( -0.5000000  0.8660254  0.0000000 )
                  ( -0.8660254 -0.5000000  0.0000000 )
                  (  0.0000000  0.0000000  1.0000000 )


      isym =  7     inv. 180 deg rotation - cart. axis [0,1,0]   

 cryst.   s( 7) = (     1          0          0      )    f =( -0.0000000 )
                  (    -1         -1          0      )       (  0.0000000 )
                  (     0          0          1      )       (  0.5000000 )

 cart.    s( 7) = (  1.0000000  0.0000000  0.0000000 )    f =( -0.0000000 )
                  (  0.0000000 -1.0000000  0.0000000 )       (  0.0000000 )
                  (  0.0000000  0.0000000  1.0000000 )       (  0.8556099 )


      isym =  8     inv. 180 deg rotation - cart. axis [1,0,0]   

 cryst.   s( 8) = (    -1          0          0      )
                  (     1          1          0      )
                  (     0          0          1      )

 cart.    s( 8) = ( -1.0000000 -0.0000000  0.0000000 )
                  (  0.0000000  1.0000000  0.0000000 )
                  (  0.0000000  0.0000000  1.0000000 )


      isym =  9     inv. 180 deg rotation - cryst. axis [1,-1,0] 

 cryst.   s( 9) = (     0          1          0      )    f =(  0.0000000 )
                  (     1          0          0      )       ( -0.0000000 )
                  (     0          0          1      )       (  0.5000000 )

 cart.    s( 9) = ( -0.5000000  0.8660254  0.0000000 )    f =(  0.0000000 )
                  (  0.8660254  0.5000000  0.0000000 )       ( -0.0000000 )
                  (  0.0000000  0.0000000  1.0000000 )       (  0.8556099 )


      isym = 10     inv. 180 deg rotation - cryst. axis [2,1,0]  

 cryst.   s(10) = (    -1         -1          0      )    f =(  0.0000000 )
                  (     0          1          0      )       (  0.0000000 )
                  (     0          0          1      )       (  0.5000000 )

 cart.    s(10) = ( -0.5000000 -0.8660254  0.0000000 )    f =( -0.0000000 )
                  ( -0.8660254  0.5000000  0.0000000 )       (  0.0000000 )
                  (  0.0000000  0.0000000  1.0000000 )       (  0.8556099 )


      isym = 11     inv. 180 deg rotation - cryst. axis [0,1,0]  

 cryst.   s(11) = (     1          1          0      )
                  (     0         -1          0      )
                  (     0          0          1      )

 cart.    s(11) = (  0.5000000  0.8660254  0.0000000 )
                  (  0.8660254 -0.5000000  0.0000000 )
                  (  0.0000000  0.0000000  1.0000000 )


      isym = 12     inv. 180 deg rotation - cryst. axis [1,1,0]  

 cryst.   s(12) = (     0         -1          0      )
                  (    -1          0          0      )
                  (     0          0          1      )

 cart.    s(12) = (  0.5000000 -0.8660254  0.0000000 )
                  ( -0.8660254 -0.5000000  0.0000000 )
                  (  0.0000000  0.0000000  1.0000000 )


   Cartesian axes

     site n.     atom                  positions (alat units)
         1           Zn  tau(   1) = (   0.5000000   0.2886751   0.8566941  )
         2           Zn  tau(   2) = (  -0.0000000   0.5773503   0.0010842  )
         3           O   tau(   3) = (   0.5000000   0.2886751   1.5053197  )
         4           O   tau(   4) = (  -0.0000000   0.5773503   0.6497098  )

   Crystallographic axes

     site n.     atom                  positions (cryst. coord.)
         1           Zn  tau(   1) = (  0.6666667  0.3333333  0.5006336  )
         2           Zn  tau(   2) = (  0.3333333  0.6666667  0.0006336  )
         3           O   tau(   3) = (  0.6666667  0.3333333  0.8796764  )
         4           O   tau(   4) = (  0.3333333  0.6666667  0.3796764  )

     number of k points=    28
                       cart. coord. in units 2pi/alat
        k(    1) = (   0.0000000   0.0000000   0.0000000), wk =   0.0092593
        k(    2) = (   0.0000000   0.0000000   0.0973964), wk =   0.0185185
        k(    3) = (   0.0000000   0.0000000   0.1947928), wk =   0.0185185
        k(    4) = (   0.0000000   0.0000000  -0.2921892), wk =   0.0092593
        k(    5) = (   0.0000000   0.1924501   0.0000000), wk =   0.0555556
        k(    6) = (   0.0000000   0.1924501   0.0973964), wk =   0.1111111
        k(    7) = (   0.0000000   0.1924501   0.1947928), wk =   0.1111111
        k(    8) = (   0.0000000   0.1924501  -0.2921892), wk =   0.0555556
        k(    9) = (   0.0000000   0.3849002   0.0000000), wk =   0.0555556
        k(   10) = (   0.0000000   0.3849002   0.0973964), wk =   0.1111111
        k(   11) = (   0.0000000   0.3849002   0.1947928), wk =   0.1111111
        k(   12) = (   0.0000000   0.3849002  -0.2921892), wk =   0.0555556
        k(   13) = (   0.0000000  -0.5773503   0.0000000), wk =   0.0277778
        k(   14) = (   0.0000000  -0.5773503   0.0973964), wk =   0.0555556
        k(   15) = (   0.0000000  -0.5773503   0.1947928), wk =   0.0555556
        k(   16) = (   0.0000000  -0.5773503  -0.2921892), wk =   0.0277778
        k(   17) = (   0.1666667   0.2886751   0.0000000), wk =   0.0555556
        k(   18) = (   0.1666667   0.2886751   0.0973964), wk =   0.1111111
        k(   19) = (   0.1666667   0.2886751   0.1947928), wk =   0.1111111
        k(   20) = (   0.1666667   0.2886751  -0.2921892), wk =   0.0555556
        k(   21) = (   0.1666667   0.4811252   0.0000000), wk =   0.1111111
        k(   22) = (   0.1666667   0.4811252   0.0973964), wk =   0.2222222
        k(   23) = (   0.1666667   0.4811252   0.1947928), wk =   0.2222222
        k(   24) = (   0.1666667   0.4811252  -0.2921892), wk =   0.1111111
        k(   25) = (   0.3333333   0.5773503   0.0000000), wk =   0.0185185
        k(   26) = (   0.3333333   0.5773503   0.0973964), wk =   0.0370370
        k(   27) = (   0.3333333   0.5773503   0.1947928), wk =   0.0370370
        k(   28) = (   0.3333333   0.5773503  -0.2921892), wk =   0.0185185

                       cryst. coord.
        k(    1) = (   0.0000000   0.0000000   0.0000000), wk =   0.0092593
        k(    2) = (   0.0000000   0.0000000   0.1666667), wk =   0.0185185
        k(    3) = (   0.0000000   0.0000000   0.3333333), wk =   0.0185185
        k(    4) = (   0.0000000   0.0000000  -0.5000000), wk =   0.0092593
        k(    5) = (   0.0000000   0.1666667   0.0000000), wk =   0.0555556
        k(    6) = (   0.0000000   0.1666667   0.1666667), wk =   0.1111111
        k(    7) = (   0.0000000   0.1666667   0.3333333), wk =   0.1111111
        k(    8) = (   0.0000000   0.1666667  -0.5000000), wk =   0.0555556
        k(    9) = (   0.0000000   0.3333333   0.0000000), wk =   0.0555556
        k(   10) = (   0.0000000   0.3333333   0.1666667), wk =   0.1111111
        k(   11) = (   0.0000000   0.3333333   0.3333333), wk =   0.1111111
        k(   12) = (   0.0000000   0.3333333  -0.5000000), wk =   0.0555556
        k(   13) = (   0.0000000  -0.5000000   0.0000000), wk =   0.0277778
        k(   14) = (   0.0000000  -0.5000000   0.1666667), wk =   0.0555556
        k(   15) = (   0.0000000  -0.5000000   0.3333333), wk =   0.0555556
        k(   16) = (   0.0000000  -0.5000000  -0.5000000), wk =   0.0277778
        k(   17) = (   0.1666667   0.1666667   0.0000000), wk =   0.0555556
        k(   18) = (   0.1666667   0.1666667   0.1666667), wk =   0.1111111
        k(   19) = (   0.1666667   0.1666667   0.3333333), wk =   0.1111111
        k(   20) = (   0.1666667   0.1666667  -0.5000000), wk =   0.0555556
        k(   21) = (   0.1666667   0.3333333   0.0000000), wk =   0.1111111
        k(   22) = (   0.1666667   0.3333333   0.1666667), wk =   0.2222222
        k(   23) = (   0.1666667   0.3333333   0.3333333), wk =   0.2222222
        k(   24) = (   0.1666667   0.3333333  -0.5000000), wk =   0.1111111
        k(   25) = (   0.3333333   0.3333333   0.0000000), wk =   0.0185185
        k(   26) = (   0.3333333   0.3333333   0.1666667), wk =   0.0370370
        k(   27) = (   0.3333333   0.3333333   0.3333333), wk =   0.0370370
        k(   28) = (   0.3333333   0.3333333  -0.5000000), wk =   0.0185185

     Dense  grid:    34399 G-vectors     FFT dimensions: (  36,  36,  64)

     Smooth grid:    12223 G-vectors     FFT dimensions: (  25,  25,  48)

     Dynamical RAM for                 wfc:       0.21 MB

     Dynamical RAM for     wfc (w. buffer):       1.67 MB

     Dynamical RAM for           str. fact:       0.53 MB

     Dynamical RAM for           local pot:       0.00 MB

     Dynamical RAM for          nlocal pot:       0.60 MB

     Dynamical RAM for                qrad:       3.21 MB

     Dynamical RAM for          rho,v,vnew:       1.74 MB

     Dynamical RAM for               rhoin:       0.58 MB

     Dynamical RAM for            rho*nmix:       4.20 MB

     Dynamical RAM for           G-vectors:       1.03 MB

     Dynamical RAM for          h,s,v(r/c):       0.06 MB

     Dynamical RAM for          <psi|beta>:       0.01 MB

     Dynamical RAM for                 psi:       0.42 MB

     Dynamical RAM for                hpsi:       0.42 MB

     Dynamical RAM for                spsi:       0.42 MB

     Dynamical RAM for      wfcinit/wfcrot:       0.62 MB

     Dynamical RAM for           addusdens:      12.53 MB

     Dynamical RAM for          addusforce:      12.61 MB

     Estimated static dynamical RAM per process >      11.73 MB

     Estimated max dynamical RAM per process >      28.54 MB

     Estimated total dynamical RAM >     203.09 MB

     Check: negative core charge=   -0.000001

     Initial potential from superposition of free atoms

     starting charge      35.9925, renormalised to      36.0000
     Starting wfcs are   26 randomized atomic wfcs

     total cpu time spent up to now is        2.1 secs

     per-process dynamical memory:    24.5 Mb

     Self-consistent Calculation

     iteration #  1     ecut=    50.00 Ry     beta= 0.30
     Davidson diagonalization with overlap

---- Real-time Memory Report at c_bands before calling an iterative solver
            60 MiB given to the printing process from OS
            23 MiB allocation reported by mallinfo(arena+hblkhd)
        111303 MiB available memory on the node where the printing process lives
------------------
     ethr =  1.00E-02,  avg # of iterations =  2.0

     total cpu time spent up to now is        2.6 secs

     total energy              =    -361.36407024 Ry
     estimated scf accuracy    <       0.67965109 Ry

     iteration #  2     ecut=    50.00 Ry     beta= 0.30
     Davidson diagonalization with overlap

---- Real-time Memory Report at c_bands before calling an iterative solver
            65 MiB given to the printing process from OS
            35 MiB allocation reported by mallinfo(arena+hblkhd)
        111294 MiB available memory on the node where the printing process lives
------------------
     ethr =  1.89E-03,  avg # of iterations =  2.0

     total cpu time spent up to now is        3.2 secs

     total energy              =    -361.39986677 Ry
     estimated scf accuracy    <       0.13913941 Ry

     iteration #  3     ecut=    50.00 Ry     beta= 0.30
     Davidson diagonalization with overlap

---- Real-time Memory Report at c_bands before calling an iterative solver
            65 MiB given to the printing process from OS
            35 MiB allocation reported by mallinfo(arena+hblkhd)
        111294 MiB available memory on the node where the printing process lives
------------------
     ethr =  3.86E-04,  avg # of iterations =  5.9

     total cpu time spent up to now is        4.0 secs

     total energy              =    -361.48688025 Ry
     estimated scf accuracy    <       0.09693944 Ry

     iteration #  4     ecut=    50.00 Ry     beta= 0.30
     Davidson diagonalization with overlap

---- Real-time Memory Report at c_bands before calling an iterative solver
            66 MiB given to the printing process from OS
            35 MiB allocation reported by mallinfo(arena+hblkhd)
        111296 MiB available memory on the node where the printing process lives
------------------
     ethr =  2.69E-04,  avg # of iterations =  2.0

     total cpu time spent up to now is        4.5 secs

     total energy              =    -361.48135360 Ry
     estimated scf accuracy    <       0.02969629 Ry

     iteration #  5     ecut=    50.00 Ry     beta= 0.30
     Davidson diagonalization with overlap

---- Real-time Memory Report at c_bands before calling an iterative solver
            66 MiB given to the printing process from OS
            35 MiB allocation reported by mallinfo(arena+hblkhd)
        111296 MiB available memory on the node where the printing process lives
------------------
     ethr =  8.25E-05,  avg # of iterations =  9.2

     total cpu time spent up to now is        5.7 secs

     total energy              =    -361.54223942 Ry
     estimated scf accuracy    <       0.51194611 Ry

     iteration #  6     ecut=    50.00 Ry     beta= 0.30
     Davidson diagonalization with overlap

---- Real-time Memory Report at c_bands before calling an iterative solver
            66 MiB given to the printing process from OS
            35 MiB allocation reported by mallinfo(arena+hblkhd)
        111296 MiB available memory on the node where the printing process lives
------------------
     ethr =  8.25E-05,  avg # of iterations =  5.0

     total cpu time spent up to now is        6.4 secs

     total energy              =    -361.45728539 Ry
     estimated scf accuracy    <       0.23344154 Ry

     iteration #  7     ecut=    50.00 Ry     beta= 0.30
     Davidson diagonalization with overlap

---- Real-time Memory Report at c_bands before calling an iterative solver
            66 MiB given to the printing process from OS
            36 MiB allocation reported by mallinfo(arena+hblkhd)
        111295 MiB available memory on the node where the printing process lives
------------------
     ethr =  8.25E-05,  avg # of iterations =  6.8

     total cpu time spent up to now is        7.3 secs

     total energy              =    -361.49341602 Ry
     estimated scf accuracy    <       0.00367678 Ry

     iteration #  8     ecut=    50.00 Ry     beta= 0.30
     Davidson diagonalization with overlap

---- Real-time Memory Report at c_bands before calling an iterative solver
            66 MiB given to the printing process from OS
            36 MiB allocation reported by mallinfo(arena+hblkhd)
        111295 MiB available memory on the node where the printing process lives
------------------
     ethr =  1.02E-05,  avg # of iterations =  7.0

     total cpu time spent up to now is        8.2 secs

     total energy              =    -361.49644967 Ry
     estimated scf accuracy    <       0.00432385 Ry

     iteration #  9     ecut=    50.00 Ry     beta= 0.30
     Davidson diagonalization with overlap

---- Real-time Memory Report at c_bands before calling an iterative solver
            66 MiB given to the printing process from OS
            36 MiB allocation reported by mallinfo(arena+hblkhd)
        111294 MiB available memory on the node where the printing process lives
------------------
     ethr =  1.02E-05,  avg # of iterations =  1.0

     total cpu time spent up to now is        8.7 secs

     total energy              =    -361.49562091 Ry
     estimated scf accuracy    <       0.00257940 Ry

     iteration # 10     ecut=    50.00 Ry     beta= 0.30
     Davidson diagonalization with overlap

---- Real-time Memory Report at c_bands before calling an iterative solver
            67 MiB given to the printing process from OS
            36 MiB allocation reported by mallinfo(arena+hblkhd)
        111294 MiB available memory on the node where the printing process lives
------------------
     ethr =  7.16E-06,  avg # of iterations =  2.2

     total cpu time spent up to now is        9.2 secs

     total energy              =    -361.49568011 Ry
     estimated scf accuracy    <       0.00052842 Ry

     iteration # 11     ecut=    50.00 Ry     beta= 0.30
     Davidson diagonalization with overlap

---- Real-time Memory Report at c_bands before calling an iterative solver
            67 MiB given to the printing process from OS
            36 MiB allocation reported by mallinfo(arena+hblkhd)
        111294 MiB available memory on the node where the printing process lives
------------------
     ethr =  1.47E-06,  avg # of iterations =  6.1

     total cpu time spent up to now is       10.0 secs

     total energy              =    -361.49610818 Ry
     estimated scf accuracy    <       0.00013553 Ry

     iteration # 12     ecut=    50.00 Ry     beta= 0.30
     Davidson diagonalization with overlap

---- Real-time Memory Report at c_bands before calling an iterative solver
            67 MiB given to the printing process from OS
            36 MiB allocation reported by mallinfo(arena+hblkhd)
        111294 MiB available memory on the node where the printing process lives
------------------
     ethr =  3.76E-07,  avg # of iterations =  2.3

     total cpu time spent up to now is       10.6 secs

     total energy              =    -361.49605228 Ry
     estimated scf accuracy    <       0.00014934 Ry

     iteration # 13     ecut=    50.00 Ry     beta= 0.30
     Davidson diagonalization with overlap

---- Real-time Memory Report at c_bands before calling an iterative solver
            67 MiB given to the printing process from OS
            36 MiB allocation reported by mallinfo(arena+hblkhd)
        111294 MiB available memory on the node where the printing process lives
------------------
     ethr =  3.76E-07,  avg # of iterations =  2.1

     total cpu time spent up to now is       11.1 secs

     total energy              =    -361.49603916 Ry
     estimated scf accuracy    <       0.00003429 Ry

     iteration # 14     ecut=    50.00 Ry     beta= 0.30
     Davidson diagonalization with overlap

---- Real-time Memory Report at c_bands before calling an iterative solver
            67 MiB given to the printing process from OS
            36 MiB allocation reported by mallinfo(arena+hblkhd)
        111294 MiB available memory on the node where the printing process lives
------------------
     ethr =  9.52E-08,  avg # of iterations =  7.1

     total cpu time spent up to now is       12.0 secs

     total energy              =    -361.49607746 Ry
     estimated scf accuracy    <       0.00006301 Ry

     iteration # 15     ecut=    50.00 Ry     beta= 0.30
     Davidson diagonalization with overlap

---- Real-time Memory Report at c_bands before calling an iterative solver
            67 MiB given to the printing process from OS
            36 MiB allocation reported by mallinfo(arena+hblkhd)
        111294 MiB available memory on the node where the printing process lives
------------------
     ethr =  9.52E-08,  avg # of iterations =  1.1

     total cpu time spent up to now is       12.5 secs

     total energy              =    -361.49607159 Ry
     estimated scf accuracy    <       0.00003415 Ry

     iteration # 16     ecut=    50.00 Ry     beta= 0.30
     Davidson diagonalization with overlap

---- Real-time Memory Report at c_bands before calling an iterative solver
            67 MiB given to the printing process from OS
            36 MiB allocation reported by mallinfo(arena+hblkhd)
        111294 MiB available memory on the node where the printing process lives
------------------
     ethr =  9.49E-08,  avg # of iterations =  2.0

     total cpu time spent up to now is       13.0 secs

     total energy              =    -361.49607257 Ry
     estimated scf accuracy    <       0.00001030 Ry

     iteration # 17     ecut=    50.00 Ry     beta= 0.30
     Davidson diagonalization with overlap

---- Real-time Memory Report at c_bands before calling an iterative solver
            67 MiB given to the printing process from OS
            36 MiB allocation reported by mallinfo(arena+hblkhd)
        111295 MiB available memory on the node where the printing process lives
------------------
     ethr =  2.86E-08,  avg # of iterations =  2.0

     total cpu time spent up to now is       13.5 secs

     total energy              =    -361.49607161 Ry
     estimated scf accuracy    <       0.00000469 Ry

     iteration # 18     ecut=    50.00 Ry     beta= 0.30
     Davidson diagonalization with overlap

---- Real-time Memory Report at c_bands before calling an iterative solver
            67 MiB given to the printing process from OS
            36 MiB allocation reported by mallinfo(arena+hblkhd)
        111295 MiB available memory on the node where the printing process lives
------------------
     ethr =  1.30E-08,  avg # of iterations =  5.1

     total cpu time spent up to now is       14.2 secs

     total energy              =    -361.49607511 Ry
     estimated scf accuracy    <       0.00000007 Ry

     iteration # 19     ecut=    50.00 Ry     beta= 0.30
     Davidson diagonalization with overlap

---- Real-time Memory Report at c_bands before calling an iterative solver
            67 MiB given to the printing process from OS
            36 MiB allocation reported by mallinfo(arena+hblkhd)
        111297 MiB available memory on the node where the printing process lives
------------------
     c_bands:  2 eigenvalues not converged
     ethr =  1.88E-10,  avg # of iterations = 12.9

     total cpu time spent up to now is       15.8 secs

     total energy              =    -361.49607167 Ry
     estimated scf accuracy    <       0.00001216 Ry

     iteration # 20     ecut=    50.00 Ry     beta= 0.30
     Davidson diagonalization with overlap

---- Real-time Memory Report at c_bands before calling an iterative solver
            67 MiB given to the printing process from OS
            36 MiB allocation reported by mallinfo(arena+hblkhd)
        111301 MiB available memory on the node where the printing process lives
------------------
     ethr =  1.88E-10,  avg # of iterations = 12.1

     total cpu time spent up to now is       17.3 secs

     End of self-consistent calculation

          k = 0.0000 0.0000 0.0000 (  1533 PWs)   bands (ev):

    -9.0456  -8.0425   3.3714   4.0292   4.0292   4.1084   4.2624   4.2624
     6.1030   6.1030   6.3951   6.3951   6.8528  10.4488  10.4488  10.9810
    11.3717  11.3717

     occupation numbers 
     1.0000   1.0000   1.0000   1.0000   1.0000   1.0000   1.0000   1.0000
     1.0000   1.0000   1.0000   1.0000   1.0000   1.0000   1.0000   1.0000
     1.0000   1.0000

          k = 0.0000 0.0000 0.0974 (  1539 PWs)   bands (ev):

    -8.9839  -8.1158   3.3780   4.0266   4.0398   4.0398   4.2410   4.2410
     6.1276   6.1276   6.3808   6.3808   7.1047  10.4394  10.5101  10.5101
    11.3098  11.3098

     occupation numbers 
     1.0000   1.0000   1.0000   1.0000   1.0000   1.0000   1.0000   1.0000
     1.0000   1.0000   1.0000   1.0000   1.0000   1.0000   1.0000   1.0000
     1.0000   1.0000

          k = 0.0000 0.0000 0.1948 (  1528 PWs)   bands (ev):

    -8.8116  -8.3112   3.4390   3.8235   4.0718   4.0718   4.1872   4.1872
     6.1916   6.1916   6.3387   6.3387   7.7631   9.5566  10.6781  10.6781
    11.1403  11.1403

     occupation numbers 
     1.0000   1.0000   1.0000   1.0000   1.0000   1.0000   1.0000   1.0000
     1.0000   1.0000   1.0000   1.0000   1.0000   1.0000   1.0000   1.0000
     1.0000   1.0000

          k = 0.0000 0.0000-0.2922 (  1510 PWs)   bands (ev):

    -8.5671  -8.5671   3.5977   3.5977   4.1243   4.1243   4.1243   4.1243
     6.2708   6.2708   6.2708   6.2708   8.6329   8.6329  10.9089  10.9089
    10.9089  10.9089

     occupation numbers 
     1.0000   1.0000   1.0000   1.0000   1.0000   1.0000   1.0000   1.0000
     1.0000   1.0000   1.0000   1.0000   1.0000   1.0000   1.0000   1.0000
     1.0000   1.0000

          k = 0.0000 0.1925 0.0000 (  1525 PWs)   bands (ev):

    -8.8048  -7.9155   3.6089   3.8552   4.1371   4.1563   4.2895   4.4365
     5.9786   6.0936   6.4089   6.4921   6.7892   9.3281   9.9940  10.2231
    10.7733  11.0903

     occupation numbers 
     1.0000   1.0000   1.0000   1.0000   1.0000   1.0000   1.0000   1.0000
     1.0000   1.0000   1.0000   1.0000   1.0000   1.0000   1.0000   1.0000
     1.0000   1.0000

          k = 0.0000 0.1925 0.0974 (  1525 PWs)   bands (ev):

    -8.7489  -7.9788   3.5486   3.7649   4.1698   4.1778   4.2775   4.4117
     6.0210   6.1178   6.3911   6.4465   7.0928   9.3900  10.0234  10.0687
    10.6625  11.0178

     occupation numbers 
     1.0000   1.0000   1.0000   1.0000   1.0000   1.0000   1.0000   1.0000
     1.0000   1.0000   1.0000   1.0000   1.0000   1.0000   1.0000   1.0000
     1.0000   1.0000

          k = 0.0000 0.1925 0.1948 (  1519 PWs)   bands (ev):

    -8.5934  -8.1491   3.4675   3.6159   4.2026   4.2104   4.2564   4.3491
     6.1257   6.1817   6.3397   6.3636   7.8120   9.3671   9.7225  10.2717
    10.3477  10.8193

     occupation numbers 
     1.0000   1.0000   1.0000   1.0000   1.0000   1.0000   1.0000   1.0000
     1.0000   1.0000   1.0000   1.0000   1.0000   1.0000   1.0000   1.0000
     1.0000   1.0000

          k = 0.0000 0.1925-0.2922 (  1510 PWs)   bands (ev):

    -8.3750  -8.3750   3.4919   3.4919   4.2262   4.2262   4.2744   4.2744
     6.2512   6.2512   6.2640   6.2640   8.6676   8.6676   9.9759   9.9759
    10.5466  10.5466

     occupation numbers 
     1.0000   1.0000   1.0000   1.0000   1.0000   1.0000   1.0000   1.0000
     1.0000   1.0000   1.0000   1.0000   1.0000   1.0000   1.0000   1.0000
     1.0000   1.0000

          k = 0.0000 0.3849 0.0000 (  1525 PWs)   bands (ev):

    -8.2596  -7.6827   3.3463   3.8405   4.3686   4.5143   4.7787   4.8504
     5.8345   6.2134   6.4451   6.4720   6.9355   7.4880   8.7699   9.0340
    10.0783  10.4642

     occupation numbers 
     1.0000   1.0000   1.0000   1.0000   1.0000   1.0000   1.0000   1.0000
     1.0000   1.0000   1.0000   1.0000   1.0000   1.0000   1.0000   1.0000
     1.0000   1.0000

          k = 0.0000 0.3849 0.0974 (  1521 PWs)   bands (ev):

    -8.2205  -7.7205   3.3118   3.6837   4.3947   4.5197   4.7367   4.8101
     5.9115   6.2273   6.4262   6.5221   7.1225   7.5982   8.6961   9.1384
    10.0506  10.3732

     occupation numbers 
     1.0000   1.0000   1.0000   1.0000   1.0000   1.0000   1.0000   1.0000
     1.0000   1.0000   1.0000   1.0000   1.0000   1.0000   1.0000   1.0000
     1.0000   1.0000

          k = 0.0000 0.3849 0.1948 (  1522 PWs)   bands (ev):

    -8.1138  -7.8246   3.2525   3.4228   4.4694   4.5347   4.6545   4.7071
     6.0808   6.2656   6.3784   6.4379   7.5680   7.8742   8.6901   9.4139
     9.8051  10.1228

     occupation numbers 
     1.0000   1.0000   1.0000   1.0000   1.0000   1.0000   1.0000   1.0000
     1.0000   1.0000   1.0000   1.0000   1.0000   1.0000   1.0000   1.0000
     1.0000   1.0000

          k = 0.0000 0.3849-0.2922 (  1532 PWs)   bands (ev):

    -7.9686  -7.9686   3.2675   3.2675   4.5793   4.5793   4.5813   4.5813
     6.2704   6.2704   6.3197   6.3197   7.8524   7.8524   9.2261   9.2261
     9.7743   9.7743

     occupation numbers 
     1.0000   1.0000   1.0000   1.0000   1.0000   1.0000   1.0000   1.0000
     1.0000   1.0000   1.0000   1.0000   1.0000   1.0000   1.0000   1.0000
     1.0000   1.0000

          k = 0.0000-0.5774 0.0000 (  1528 PWs)   bands (ev):

    -7.9150  -7.6138   3.4802   3.4817   4.4411   4.7807   5.0027   5.1087
     6.0953   6.3818   6.4894   6.6053   6.7346   7.0730   7.7756   8.4720
     9.5092  10.1049

     occupation numbers 
     1.0000   1.0000   1.0000   1.0000   1.0000   1.0000   1.0000   1.0000
     1.0000   1.0000   1.0000   1.0000   1.0000   1.0000   1.0000   1.0000
     1.0000   1.0000

          k = 0.0000-0.5774 0.0974 (  1522 PWs)   bands (ev):

    -7.8921  -7.6310   3.3983   3.4138   4.4763   4.7644   4.9630   5.0506
     6.1846   6.3856   6.4741   6.6021   6.7578   7.0175   8.0395   8.5993
     9.5527  10.0045

     occupation numbers 
     1.0000   1.0000   1.0000   1.0000   1.0000   1.0000   1.0000   1.0000
     1.0000   1.0000   1.0000   1.0000   1.0000   1.0000   1.0000   1.0000
     1.0000   1.0000

          k = 0.0000-0.5774 0.1948 (  1530 PWs)   bands (ev):

    -7.8314  -7.6802   3.2531   3.2762   4.5773   4.7627   4.8803   4.9045
     6.3456   6.3967   6.4432   6.5642   6.8157   6.9407   8.6304   8.9253
     9.5366   9.7273

     occupation numbers 
     1.0000   1.0000   1.0000   1.0000   1.0000   1.0000   1.0000   1.0000
     1.0000   1.0000   1.0000   1.0000   1.0000   1.0000   1.0000   1.0000
     1.0000   1.0000

          k = 0.0000-0.5774-0.2922 (  1532 PWs)   bands (ev):

    -7.7530  -7.7530   3.1979   3.1979   4.7299   4.7299   4.8049   4.8049
     6.4157   6.4157   6.4783   6.4783   6.8777   6.8777   9.2217   9.2217
     9.3374   9.3374

     occupation numbers 
     1.0000   1.0000   1.0000   1.0000   1.0000   1.0000   1.0000   1.0000
     1.0000   1.0000   1.0000   1.0000   1.0000   1.0000   1.0000   1.0000
     1.0000   1.0000

          k = 0.1667 0.2887 0.0000 (  1524 PWs)   bands (ev):

    -8.4092  -7.7357   3.5594   3.8342   4.3152   4.3608   4.5163   4.7689
     5.8676   6.1133   6.4280   6.5605   6.8694   8.2019   8.7552   9.2902
    10.3581  10.4387

     occupation numbers 
     1.0000   1.0000   1.0000   1.0000   1.0000   1.0000   1.0000   1.0000
     1.0000   1.0000   1.0000   1.0000   1.0000   1.0000   1.0000   1.0000
     1.0000   1.0000

          k = 0.1667 0.2887 0.0974 (  1521 PWs)   bands (ev):

    -8.3647  -7.7811   3.5171   3.7007   4.2893   4.3434   4.5475   4.7403
     5.9303   6.1577   6.4093   6.5449   7.1462   8.2968   8.7803   9.2514
    10.2875  10.3422

     occupation numbers 
     1.0000   1.0000   1.0000   1.0000   1.0000   1.0000   1.0000   1.0000
     1.0000   1.0000   1.0000   1.0000   1.0000   1.0000   1.0000   1.0000
     1.0000   1.0000

          k = 0.1667 0.2887 0.1948 (  1525 PWs)   bands (ev):

    -8.2426  -7.9053   3.4280   3.4841   4.2916   4.3189   4.5676   4.6703
     6.0833   6.2249   6.3605   6.4358   7.8163   8.6083   8.6741   9.3372
     9.9703  10.0855

     occupation numbers 
     1.0000   1.0000   1.0000   1.0000   1.0000   1.0000   1.0000   1.0000
     1.0000   1.0000   1.0000   1.0000   1.0000   1.0000   1.0000   1.0000
     1.0000   1.0000

          k = 0.1667 0.2887-0.2922 (  1534 PWs)   bands (ev):

    -8.0745  -8.0745   3.3882   3.3882   4.3060   4.3060   4.6011   4.6011
     6.2617   6.2617   6.3005   6.3005   8.3594   8.3594   9.1962   9.1962
     9.7775   9.7775

     occupation numbers 
     1.0000   1.0000   1.0000   1.0000   1.0000   1.0000   1.0000   1.0000
     1.0000   1.0000   1.0000   1.0000   1.0000   1.0000   1.0000   1.0000
     1.0000   1.0000

          k = 0.1667 0.4811 0.0000 (  1518 PWs)   bands (ev):

    -7.9314  -7.6080   3.6013   3.8377   4.3791   4.6580   5.0130   5.0830
     5.9354   6.1207   6.5108   6.6012   6.9161   7.4160   7.6266   8.1988
     9.4351   9.7876

     occupation numbers 
     1.0000   1.0000   1.0000   1.0000   1.0000   1.0000   1.0000   1.0000
     1.0000   1.0000   1.0000   1.0000   1.0000   1.0000   1.0000   1.0000
     1.0000   1.0000

          k = 0.1667 0.4811 0.0974 (  1519 PWs)   bands (ev):

    -7.9072  -7.6268   3.5519   3.7409   4.3647   4.6081   4.9671   5.0371
     5.9858   6.2469   6.5048   6.6985   6.8324   7.4912   7.7510   8.3047
     9.4175   9.7388

     occupation numbers 
     1.0000   1.0000   1.0000   1.0000   1.0000   1.0000   1.0000   1.0000
     1.0000   1.0000   1.0000   1.0000   1.0000   1.0000   1.0000   1.0000
     1.0000   1.0000

          k = 0.1667 0.4811 0.1948 (  1524 PWs)   bands (ev):

    -7.8427  -7.6804   3.4543   3.5449   4.3770   4.5245   4.9136   4.9519
     6.1319   6.3161   6.5090   6.6827   6.9617   7.4150   8.1810   8.6379
     9.2433   9.6423

     occupation numbers 
     1.0000   1.0000   1.0000   1.0000   1.0000   1.0000   1.0000   1.0000
     1.0000   1.0000   1.0000   1.0000   1.0000   1.0000   1.0000   1.0000
     1.0000   1.0000

          k = 0.1667 0.4811-0.2922 (  1520 PWs)   bands (ev):

    -7.7589  -7.7589   3.4284   3.4284   4.4418   4.4418   4.9029   4.9029
     6.2689   6.2689   6.5605   6.5605   7.2199   7.2199   8.6223   8.6223
     9.3615   9.3615

     occupation numbers 
     1.0000   1.0000   1.0000   1.0000   1.0000   1.0000   1.0000   1.0000
     1.0000   1.0000   1.0000   1.0000   1.0000   1.0000   1.0000   1.0000
     1.0000   1.0000

          k = 0.3333 0.5774 0.0000 (  1506 PWs)   bands (ev):

    -7.6700  -7.6700   3.8248   4.3617   4.4998   4.4998   5.2446   5.2446
     5.8759   6.0473   6.0473   6.1051   6.9481   7.3915   7.3915   8.7794
     8.7794   8.8122

     occupation numbers 
     1.0000   1.0000   1.0000   1.0000   1.0000   1.0000   1.0000   1.0000
     1.0000   1.0000   1.0000   1.0000   1.0000   1.0000   1.0000   1.0000
     1.0000   1.0000

          k = 0.3333 0.5774 0.0974 (  1518 PWs)   bands (ev):

    -7.6664  -7.6664   3.8502   4.3083   4.3277   4.3277   5.2311   5.2311
     5.8982   6.0926   6.2450   6.2450   7.0658   7.3233   7.3233   8.6712
     8.9177   8.9177

     occupation numbers 
     1.0000   1.0000   1.0000   1.0000   1.0000   1.0000   1.0000   1.0000
     1.0000   1.0000   1.0000   1.0000   1.0000   1.0000   1.0000   1.0000
     1.0000   1.0000

          k = 0.3333 0.5774 0.1948 (  1509 PWs)   bands (ev):

    -7.6592  -7.6592   3.9248   4.0562   4.0562   4.1823   5.2169   5.2169
     5.9496   6.0580   6.5924   6.5924   7.1593   7.1593   7.3883   8.3047
     9.1942   9.1942

     occupation numbers 
     1.0000   1.0000   1.0000   1.0000   1.0000   1.0000   1.0000   1.0000
     1.0000   1.0000   1.0000   1.0000   1.0000   1.0000   1.0000   1.0000
     1.0000   1.0000

          k = 0.3333 0.5774-0.2922 (  1506 PWs)   bands (ev):

    -7.6556  -7.6556   3.9421   3.9421   4.0416   4.0416   5.2119   5.2119
     6.0074   6.0074   6.8316   6.8316   6.9906   6.9906   7.8357   7.8357
     9.3343   9.3343

     occupation numbers 
     1.0000   1.0000   1.0000   1.0000   1.0000   1.0000   1.0000   1.0000
     1.0000   1.0000   1.0000   1.0000   1.0000   1.0000   1.0000   1.0000
     1.0000   1.0000

     highest occupied level (ev):    11.3717

!    total energy              =    -361.49607391 Ry
     estimated scf accuracy    <          3.8E-09 Ry

     The total energy is the sum of the following terms:
     one-electron contribution =    -124.03917486 Ry
     hartree contribution      =     107.81472245 Ry
     xc contribution           =    -110.16397732 Ry
     ewald contribution        =    -235.10764418 Ry

     convergence has been achieved in  20 iterations

     Forces acting on atoms (cartesian axes, Ry/au):

     atom    1 type  1   force =    -0.00000000   -0.00000000    0.05424104
     atom    2 type  1   force =    -0.00000000    0.00000000    0.05424104
     atom    3 type  2   force =     0.00000000    0.00000000   -0.05424104
     atom    4 type  2   force =     0.00000000   -0.00000000   -0.05424104
     The non-local contrib.  to forces
     atom    1 type  1   force =    -0.00000000    0.00000000    0.17890183
     atom    2 type  1   force =    -0.00000000    0.00000000    0.17890183
     atom    3 type  2   force =     0.00000000    0.00000000    0.12944977
     atom    4 type  2   force =     0.00000000    0.00000000    0.12944977
     The ionic contribution  to forces
     atom    1 type  1   force =    -0.00000000    0.00000000    1.50501276
     atom    2 type  1   force =     0.00000000   -0.00000000    1.50501276
     atom    3 type  2   force =    -0.00000000    0.00000000   -1.50501276
     atom    4 type  2   force =     0.00000000   -0.00000000   -1.50501276
     The local contribution  to forces
     atom    1 type  1   force =    -0.00000002    0.00000001   -1.61376997
     atom    2 type  1   force =     0.00000006   -0.00000003   -1.61376997
     atom    3 type  2   force =    -0.00000000    0.00000000    1.32204327
     atom    4 type  2   force =     0.00000001   -0.00000001    1.32204328
     The core correction contribution to forces
     atom    1 type  1   force =    -0.00000000    0.00000000   -0.01589938
     atom    2 type  1   force =     0.00000001   -0.00000000   -0.01589938
     atom    3 type  2   force =     0.00000000   -0.00000000   -0.00080818
     atom    4 type  2   force =    -0.00000000    0.00000000   -0.00080818
     The Hubbard contrib.    to forces
     atom    1 type  1   force =     0.00000000    0.00000000    0.00000000
     atom    2 type  1   force =     0.00000000    0.00000000    0.00000000
     atom    3 type  2   force =     0.00000000    0.00000000    0.00000000
     atom    4 type  2   force =     0.00000000    0.00000000    0.00000000
     The SCF correction term to forces
     atom    1 type  1   force =     0.00000000   -0.00000000   -0.00000277
     atom    2 type  1   force =    -0.00000000    0.00000000   -0.00000277
     atom    3 type  2   force =     0.00000000   -0.00000000    0.00008827
     atom    4 type  2   force =    -0.00000000    0.00000000    0.00008827

     Total force =     0.108482     Total SCF correction =     0.000125

     init_run     :      1.71s CPU      1.76s WALL (       1 calls)
     electrons    :     14.61s CPU     15.13s WALL (       1 calls)
     forces       :      0.39s CPU      0.39s WALL (       1 calls)

     Called by init_run:
     wfcinit      :      0.17s CPU      0.18s WALL (       1 calls)
     wfcinit:atom :      0.00s CPU      0.00s WALL (       7 calls)
     wfcinit:wfcr :      0.15s CPU      0.16s WALL (       7 calls)
     potinit      :      0.24s CPU      0.25s WALL (       1 calls)
     hinit0       :      1.07s CPU      1.08s WALL (       1 calls)

     Called by electrons:
     c_bands      :     10.95s CPU     11.35s WALL (      20 calls)
     sum_band     :      2.01s CPU      2.10s WALL (      20 calls)
     v_of_rho     :      0.79s CPU      0.81s WALL (      21 calls)
     v_h          :      0.04s CPU      0.04s WALL (      21 calls)
     v_xc         :      0.79s CPU      0.81s WALL (      22 calls)
     newd         :      0.74s CPU      0.77s WALL (      21 calls)
     mix_rho      :      0.11s CPU      0.11s WALL (      20 calls)

     Called by c_bands:
     init_us_2    :      0.17s CPU      0.17s WALL (     294 calls)
     init_us_2:cp :      0.17s CPU      0.17s WALL (     294 calls)
     cegterg      :      9.42s CPU      9.81s WALL (     140 calls)

     Called by sum_band:
     sum_band:wei :      0.00s CPU      0.00s WALL (      20 calls)
     sum_band:loo :      1.03s CPU      1.08s WALL (      20 calls)
     sum_band:buf :      0.01s CPU      0.01s WALL (     140 calls)
     sum_band:ini :      0.08s CPU      0.08s WALL (     140 calls)
     sum_band:cal :      0.12s CPU      0.12s WALL (     140 calls)
     sum_band:bec :      0.00s CPU      0.00s WALL (     140 calls)
     addusdens    :      0.82s CPU      0.84s WALL (      20 calls)
     addusd:skk   :      0.00s CPU      0.00s WALL (      40 calls)
     addusd:dgemm :      0.16s CPU      0.17s WALL (      40 calls)
     addusd:qvan2 :      0.56s CPU      0.57s WALL (      40 calls)

     Called by *egterg:
     cdiaghg      :      0.74s CPU      0.75s WALL (     850 calls)
     cegterg:over :      0.60s CPU      0.60s WALL (     710 calls)
     cegterg:upda :      0.27s CPU      0.27s WALL (     710 calls)
     cegterg:last :      0.55s CPU      0.55s WALL (     503 calls)
     h_psi        :      6.79s CPU      7.17s WALL (     857 calls)
     s_psi        :      0.36s CPU      0.36s WALL (     857 calls)
     g_psi        :      0.06s CPU      0.06s WALL (     710 calls)

     Called by h_psi:
     h_psi:calbec :      0.52s CPU      0.55s WALL (     857 calls)
     vloc_psi     :      5.87s CPU      6.22s WALL (     857 calls)
     add_vuspsi   :      0.37s CPU      0.38s WALL (     857 calls)

     General routines
     calbec       :      0.66s CPU      0.69s WALL (    1025 calls)
     fft          :      0.53s CPU      0.55s WALL (     282 calls)
     ffts         :      0.10s CPU      0.10s WALL (      41 calls)
     fftw         :      5.95s CPU      6.30s WALL (   21652 calls)
     interpolate  :      0.12s CPU      0.12s WALL (      21 calls)

     Parallel routines

     PWSCF        :     17.07s CPU     17.66s WALL


   This run was terminated on:   9:59:59  26Aug2025            

=------------------------------------------------------------------------------=
   JOB DONE.
=------------------------------------------------------------------------------=
