
     Program PWSCF v.7.2 starts on 30Jul2025 at 22:28:28 

     This program is part of the open-source Quantum ESPRESSO suite
     for quantum simulation of materials; please cite
         "P. Giannozzi et al., J. Phys.:Condens. Matter 21 395502 (2009);
         "P. Giannozzi et al., J. Phys.:Condens. Matter 29 465901 (2017);
         "P. Giannozzi et al., J. Chem. Phys. 152 154105 (2020);
          URL http://www.quantum-espresso.org", 
     in publications or presentations arising from this work. More details at
     http://www.quantum-espresso.org/quote

     Parallel version (MPI), running on    32 processors

     MPI processes distributed on     1 nodes
     125570 MiB available memory on the printing compute node when the environment starts

     Reading input from /home/jvc/QEspresso7.2/ZnO_database/scripts/cell331.in/ZnO-3.34-1.65-331.in
Warning: card &CELL ignored
Warning: card / ignored
Warning: card &FCP ignored
Warning: card / ignored
Warning: card &RISM ignored
Warning: card / ignored

     Current dimensions of program PWSCF are:
     Max number of different atomic species (ntypx) = 10
     Max number of k-points (npk) =  40000
     Max angular momentum in pseudopotentials (lmaxx) =  4
     file Zn.upf: wavefunction(s)  3D renormalized
     Found identity + ( -0.0000  0.3333  0.0000) symmetry
     This is a supercell, fractional translations are disabled
     Message from routine setup:
     using ibrav=0 with symmetry is DISCOURAGED, use correct ibrav instead

     K-points division:     npool     =       8
     R & G space division:  proc/nbgrp/npool/nimage =       4
     Subspace diagonalization in iterative solution of the eigenvalue problem:
     one sub-group per band group will be used
     custom distributed-memory algorithm (size of sub-group:  2*  2 procs)


     Parallelization info
     --------------------
     sticks:   dense  smooth     PW     G-vecs:    dense   smooth      PW
     Min        2366    1185    324               100203    35453    5149
     Max        2368    1186    327               100204    35454    5150
     Sum        9469    4741   1303               400815   141813   20597

     Using Slab Decomposition



     bravais-lattice index     =            0
     lattice parameter (alat)  =      18.5365  a.u.
     unit-cell volume          =    2968.1791 (a.u.)^3
     number of atoms/cell      =           36
     number of atomic types    =            2
     number of electrons       =       324.00
     number of Kohn-Sham states=          162
     kinetic-energy cutoff     =      50.0000  Ry
     charge density cutoff     =     400.0000  Ry
     scf convergence threshold =      1.0E-08
     mixing beta               =       0.3000
     number of iterations used =            8  plain     mixing
     Exchange-correlation= PBE
                           (   1   4   3   4   0   0   0)

     celldm(1)=  18.536466  celldm(2)=   0.000000  celldm(3)=   0.000000
     celldm(4)=   0.000000  celldm(5)=   0.000000  celldm(6)=   0.000000

     crystal axes: (cart. coord. in units of alat)
               a(1) = (   1.000000   0.000000   0.000000 )  
               a(2) = (  -0.500000   0.866025   0.000000 )  
               a(3) = (   0.000000   0.000000   0.538119 )  

     reciprocal axes: (cart. coord. in units 2 pi/alat)
               b(1) = (  1.000000  0.577350 -0.000000 )  
               b(2) = (  0.000000  1.154701  0.000000 )  
               b(3) = (  0.000000 -0.000000  1.858323 )  


     PseudoPot. # 1 for Zn read from file:
     /home/jvc/QEspresso7.2/ZnO_database/pseudos/Zn.upf
     MD5 check sum: 7f56cabf9682ed8c977c2f7d0c5985c5
     Pseudo is Ultrasoft + core correction, Zval = 12.0
     Generated using &quot;atomic&quot; code by A. Dal Corso  v.6.2.2
     Using radial grid of 1201 points,  6 beta functions with: 
                l(1) =   0
                l(2) =   0
                l(3) =   1
                l(4) =   1
                l(5) =   2
                l(6) =   2
     Q(r) pseudized with 0 coefficients 


     PseudoPot. # 2 for O  read from file:
     /home/jvc/QEspresso7.2/ZnO_database/pseudos/O.upf
     MD5 check sum: 91400c9766925bcf19f520983a725ff0
     Pseudo is Ultrasoft + core correction, Zval =  6.0
     Generated using &quot;atomic&quot; code by A. Dal Corso  v.6.3MaX
     Using radial grid of 1095 points,  4 beta functions with: 
                l(1) =   0
                l(2) =   0
                l(3) =   1
                l(4) =   1
     Q(r) pseudized with 0 coefficients 


     atomic species   valence    mass     pseudopotential
        Zn            12.00    65.38000     Zn( 1.00)
        O              6.00    15.99900     O ( 1.00)

      6 Sym. Ops. (no inversion) found


                                    s                        frac. trans.

      isym =  1     identity                                     

 cryst.   s( 1) = (     1          0          0      )
                  (     0          1          0      )
                  (     0          0          1      )

 cart.    s( 1) = (  1.0000000  0.0000000  0.0000000 )
                  (  0.0000000  1.0000000  0.0000000 )
                  (  0.0000000  0.0000000  1.0000000 )


      isym =  2     120 deg rotation - cryst. axis [0,0,1]       

 cryst.   s( 2) = (     0          1          0      )
                  (    -1         -1          0      )
                  (     0          0          1      )

 cart.    s( 2) = ( -0.5000000 -0.8660254  0.0000000 )
                  (  0.8660254 -0.5000000  0.0000000 )
                  (  0.0000000  0.0000000  1.0000000 )


      isym =  3     120 deg rotation - cryst. axis [0,0,-1]      

 cryst.   s( 3) = (    -1         -1          0      )
                  (     1          0          0      )
                  (     0          0          1      )

 cart.    s( 3) = ( -0.5000000  0.8660254  0.0000000 )
                  ( -0.8660254 -0.5000000  0.0000000 )
                  (  0.0000000  0.0000000  1.0000000 )


      isym =  4     inv. 180 deg rotation - cart. axis [1,0,0]   

 cryst.   s( 4) = (    -1          0          0      )
                  (     1          1          0      )
                  (     0          0          1      )

 cart.    s( 4) = ( -1.0000000  0.0000000  0.0000000 )
                  (  0.0000000  1.0000000  0.0000000 )
                  (  0.0000000  0.0000000  1.0000000 )


      isym =  5     inv. 180 deg rotation - cryst. axis [0,1,0]  

 cryst.   s( 5) = (     1          1          0      )
                  (     0         -1          0      )
                  (     0          0          1      )

 cart.    s( 5) = (  0.5000000  0.8660254  0.0000000 )
                  (  0.8660254 -0.5000000  0.0000000 )
                  (  0.0000000  0.0000000  1.0000000 )


      isym =  6     inv. 180 deg rotation - cryst. axis [1,1,0]  

 cryst.   s( 6) = (     0         -1          0      )
                  (    -1          0          0      )
                  (     0          0          1      )

 cart.    s( 6) = (  0.5000000 -0.8660254  0.0000000 )
                  ( -0.8660254 -0.5000000  0.0000000 )
                  (  0.0000000  0.0000000  1.0000000 )


   Cartesian axes

     site n.     atom                  positions (alat units)
         1           Zn  tau(   1) = (   0.1666667   0.0962250   0.2694007  )
         2           Zn  tau(   2) = (   0.0000000   0.1924501   0.0003409  )
         3           O   tau(   3) = (   0.1666667   0.0962250   0.4733710  )
         4           O   tau(   4) = (   0.0000000   0.1924501   0.2043113  )
         5           Zn  tau(   5) = (   0.0000000   0.3849002   0.2694007  )
         6           Zn  tau(   6) = (  -0.1666667   0.4811252   0.0003409  )
         7           O   tau(   7) = (   0.0000000   0.3849002   0.4733710  )
         8           O   tau(   8) = (  -0.1666667   0.4811252   0.2043113  )
         9           Zn  tau(   9) = (  -0.1666667   0.6735753   0.2694007  )
        10           Zn  tau(  10) = (  -0.3333333   0.7698004   0.0003409  )
        11           O   tau(  11) = (  -0.1666667   0.6735753   0.4733710  )
        12           O   tau(  12) = (  -0.3333333   0.7698004   0.2043113  )
        13           Zn  tau(  13) = (   0.5000000   0.0962250   0.2694007  )
        14           Zn  tau(  14) = (   0.3333333   0.1924501   0.0003409  )
        15           O   tau(  15) = (   0.5000000   0.0962250   0.4733710  )
        16           O   tau(  16) = (   0.3333333   0.1924501   0.2043113  )
        17           Zn  tau(  17) = (   0.3333333   0.3849002   0.2694007  )
        18           Zn  tau(  18) = (   0.1666667   0.4811252   0.0003409  )
        19           O   tau(  19) = (   0.3333333   0.3849002   0.4733710  )
        20           O   tau(  20) = (   0.1666667   0.4811252   0.2043113  )
        21           Zn  tau(  21) = (   0.1666667   0.6735753   0.2694007  )
        22           Zn  tau(  22) = (   0.0000000   0.7698004   0.0003409  )
        23           O   tau(  23) = (   0.1666667   0.6735753   0.4733710  )
        24           O   tau(  24) = (   0.0000000   0.7698004   0.2043113  )
        25           Zn  tau(  25) = (   0.8333333   0.0962250   0.2694007  )
        26           Zn  tau(  26) = (   0.6666667   0.1924501   0.0003409  )
        27           O   tau(  27) = (   0.8333333   0.0962250   0.4733710  )
        28           O   tau(  28) = (   0.6666667   0.1924501   0.2043113  )
        29           Zn  tau(  29) = (   0.6666667   0.3849002   0.2694007  )
        30           Zn  tau(  30) = (   0.5000000   0.4811252   0.0003409  )
        31           O   tau(  31) = (   0.6666667   0.3849002   0.4733710  )
        32           O   tau(  32) = (   0.5000000   0.4811252   0.2043113  )
        33           Zn  tau(  33) = (   0.5000000   0.6735753   0.2694007  )
        34           Zn  tau(  34) = (   0.3333333   0.7698004   0.0003409  )
        35           O   tau(  35) = (   0.5000000   0.6735753   0.4733710  )
        36           O   tau(  36) = (   0.3333333   0.7698004   0.2043113  )

   Crystallographic axes

     site n.     atom                  positions (cryst. coord.)
         1           Zn  tau(   1) = (  0.2222222  0.1111111  0.5006336  )
         2           Zn  tau(   2) = (  0.1111111  0.2222222  0.0006336  )
         3           O   tau(   3) = (  0.2222222  0.1111111  0.8796764  )
         4           O   tau(   4) = (  0.1111111  0.2222222  0.3796764  )
         5           Zn  tau(   5) = (  0.2222222  0.4444444  0.5006336  )
         6           Zn  tau(   6) = (  0.1111111  0.5555556  0.0006336  )
         7           O   tau(   7) = (  0.2222222  0.4444444  0.8796764  )
         8           O   tau(   8) = (  0.1111111  0.5555556  0.3796764  )
         9           Zn  tau(   9) = (  0.2222222  0.7777778  0.5006336  )
        10           Zn  tau(  10) = (  0.1111111  0.8888889  0.0006336  )
        11           O   tau(  11) = (  0.2222222  0.7777778  0.8796764  )
        12           O   tau(  12) = (  0.1111111  0.8888889  0.3796764  )
        13           Zn  tau(  13) = (  0.5555556  0.1111111  0.5006336  )
        14           Zn  tau(  14) = (  0.4444444  0.2222222  0.0006336  )
        15           O   tau(  15) = (  0.5555556  0.1111111  0.8796764  )
        16           O   tau(  16) = (  0.4444444  0.2222222  0.3796764  )
        17           Zn  tau(  17) = (  0.5555556  0.4444444  0.5006336  )
        18           Zn  tau(  18) = (  0.4444444  0.5555556  0.0006336  )
        19           O   tau(  19) = (  0.5555556  0.4444444  0.8796764  )
        20           O   tau(  20) = (  0.4444444  0.5555556  0.3796764  )
        21           Zn  tau(  21) = (  0.5555556  0.7777778  0.5006336  )
        22           Zn  tau(  22) = (  0.4444444  0.8888889  0.0006336  )
        23           O   tau(  23) = (  0.5555556  0.7777778  0.8796764  )
        24           O   tau(  24) = (  0.4444444  0.8888889  0.3796764  )
        25           Zn  tau(  25) = (  0.8888889  0.1111111  0.5006336  )
        26           Zn  tau(  26) = (  0.7777778  0.2222222  0.0006336  )
        27           O   tau(  27) = (  0.8888889  0.1111111  0.8796764  )
        28           O   tau(  28) = (  0.7777778  0.2222222  0.3796764  )
        29           Zn  tau(  29) = (  0.8888889  0.4444444  0.5006336  )
        30           Zn  tau(  30) = (  0.7777778  0.5555556  0.0006336  )
        31           O   tau(  31) = (  0.8888889  0.4444444  0.8796764  )
        32           O   tau(  32) = (  0.7777778  0.5555556  0.3796764  )
        33           Zn  tau(  33) = (  0.8888889  0.7777778  0.5006336  )
        34           Zn  tau(  34) = (  0.7777778  0.8888889  0.0006336  )
        35           O   tau(  35) = (  0.8888889  0.7777778  0.8796764  )
        36           O   tau(  36) = (  0.7777778  0.8888889  0.3796764  )

     number of k points=     8
                       cart. coord. in units 2pi/alat
        k(    1) = (   0.0000000   0.0000000   0.0000000), wk =   0.0833333
        k(    2) = (   0.0000000   0.0000000   0.3097206), wk =   0.1666667
        k(    3) = (   0.0000000   0.0000000   0.6194412), wk =   0.1666667
        k(    4) = (   0.0000000   0.0000000  -0.9291617), wk =   0.0833333
        k(    5) = (   0.0000000  -0.5773503   0.0000000), wk =   0.2500000
        k(    6) = (   0.0000000  -0.5773503   0.3097206), wk =   0.5000000
        k(    7) = (   0.0000000  -0.5773503   0.6194412), wk =   0.5000000
        k(    8) = (   0.0000000  -0.5773503  -0.9291617), wk =   0.2500000

                       cryst. coord.
        k(    1) = (   0.0000000   0.0000000   0.0000000), wk =   0.0833333
        k(    2) = (   0.0000000   0.0000000   0.1666667), wk =   0.1666667
        k(    3) = (   0.0000000   0.0000000   0.3333333), wk =   0.1666667
        k(    4) = (   0.0000000   0.0000000  -0.5000000), wk =   0.0833333
        k(    5) = (   0.0000000  -0.5000000   0.0000000), wk =   0.2500000
        k(    6) = (   0.0000000  -0.5000000   0.1666667), wk =   0.5000000
        k(    7) = (   0.0000000  -0.5000000   0.3333333), wk =   0.5000000
        k(    8) = (   0.0000000  -0.5000000  -0.5000000), wk =   0.2500000

     Dense  grid:   400815 G-vectors     FFT dimensions: ( 120, 120,  64)

     Smooth grid:   141813 G-vectors     FFT dimensions: (  90,  90,  45)

     Dynamical RAM for                 wfc:      10.95 MB

     Dynamical RAM for     wfc (w. buffer):      10.95 MB

     Dynamical RAM for           str. fact:       3.06 MB

     Dynamical RAM for           local pot:       0.00 MB

     Dynamical RAM for          nlocal pot:      31.64 MB

     Dynamical RAM for                qrad:       3.21 MB

     Dynamical RAM for          rho,v,vnew:       9.86 MB

     Dynamical RAM for               rhoin:       3.29 MB

     Dynamical RAM for            rho*nmix:      24.46 MB

     Dynamical RAM for           G-vectors:       6.00 MB

     Dynamical RAM for          h,s,v(r/c):       1.20 MB

     Dynamical RAM for          <psi|beta>:       1.16 MB

     Dynamical RAM for                 psi:      21.90 MB

     Dynamical RAM for                hpsi:      21.90 MB

     Dynamical RAM for                spsi:      21.90 MB

     Dynamical RAM for      wfcinit/wfcrot:      32.89 MB

     Dynamical RAM for           addusdens:      40.33 MB

     Dynamical RAM for          addusforce:      46.32 MB

     Estimated static dynamical RAM per process >      81.38 MB

     Estimated max dynamical RAM per process >     173.91 MB

     Estimated total dynamical RAM >       4.77 GB

     Check: negative core charge=   -0.000002

     Initial potential from superposition of free atoms

     starting charge     323.9329, renormalised to     324.0000
     Starting wfcs are  234 randomized atomic wfcs

     total cpu time spent up to now is       13.3 secs

     Self-consistent Calculation

     iteration #  1     ecut=    50.00 Ry     beta= 0.30
     Davidson diagonalization with overlap

---- Real-time Memory Report at c_bands before calling an iterative solver
           149 MiB given to the printing process from OS
             0 MiB allocation reported by mallinfo(arena+hblkhd)
        121184 MiB available memory on the node where the printing process lives
------------------
     ethr =  1.00E-02,  avg # of iterations =  2.0

     total cpu time spent up to now is       20.1 secs

     total energy              =   -3253.31595779 Ry
     estimated scf accuracy    <       6.22738029 Ry

     iteration #  2     ecut=    50.00 Ry     beta= 0.30
     Davidson diagonalization with overlap

---- Real-time Memory Report at c_bands before calling an iterative solver
           190 MiB given to the printing process from OS
             0 MiB allocation reported by mallinfo(arena+hblkhd)
        120378 MiB available memory on the node where the printing process lives
------------------
     ethr =  1.92E-03,  avg # of iterations =  2.0

     total cpu time spent up to now is       28.4 secs

     total energy              =   -3254.19696996 Ry
     estimated scf accuracy    <       0.80586473 Ry

     iteration #  3     ecut=    50.00 Ry     beta= 0.30
     Davidson diagonalization with overlap

---- Real-time Memory Report at c_bands before calling an iterative solver
           195 MiB given to the printing process from OS
             0 MiB allocation reported by mallinfo(arena+hblkhd)
        120630 MiB available memory on the node where the printing process lives
------------------
     ethr =  2.49E-04,  avg # of iterations =  7.1

     total cpu time spent up to now is       43.0 secs

     total energy              =   -3254.48306231 Ry
     estimated scf accuracy    <       0.54469613 Ry

     iteration #  4     ecut=    50.00 Ry     beta= 0.30
     Davidson diagonalization with overlap

---- Real-time Memory Report at c_bands before calling an iterative solver
           198 MiB given to the printing process from OS
             0 MiB allocation reported by mallinfo(arena+hblkhd)
        120724 MiB available memory on the node where the printing process lives
------------------
     ethr =  1.68E-04,  avg # of iterations =  9.0

     total cpu time spent up to now is       61.5 secs

     total energy              =   -3254.87628047 Ry
     estimated scf accuracy    <       2.34544869 Ry

     iteration #  5     ecut=    50.00 Ry     beta= 0.30
     Davidson diagonalization with overlap

---- Real-time Memory Report at c_bands before calling an iterative solver
           199 MiB given to the printing process from OS
             0 MiB allocation reported by mallinfo(arena+hblkhd)
        120905 MiB available memory on the node where the printing process lives
------------------
     ethr =  1.68E-04,  avg # of iterations =  2.0

     total cpu time spent up to now is       68.3 secs

     total energy              =   -3253.79288826 Ry
     estimated scf accuracy    <       1.37379207 Ry

     iteration #  6     ecut=    50.00 Ry     beta= 0.30
     Davidson diagonalization with overlap

---- Real-time Memory Report at c_bands before calling an iterative solver
           199 MiB given to the printing process from OS
             0 MiB allocation reported by mallinfo(arena+hblkhd)
        120863 MiB available memory on the node where the printing process lives
------------------
     ethr =  1.68E-04,  avg # of iterations = 12.1

     total cpu time spent up to now is       89.0 secs

     total energy              =   -3254.38657941 Ry
     estimated scf accuracy    <       5.10687405 Ry

     iteration #  7     ecut=    50.00 Ry     beta= 0.30
     Davidson diagonalization with overlap

---- Real-time Memory Report at c_bands before calling an iterative solver
           201 MiB given to the printing process from OS
             0 MiB allocation reported by mallinfo(arena+hblkhd)
        121053 MiB available memory on the node where the printing process lives
------------------
     ethr =  1.68E-04,  avg # of iterations =  7.0

     total cpu time spent up to now is      103.1 secs

     total energy              =   -3254.74979147 Ry
     estimated scf accuracy    <       0.55762700 Ry

     iteration #  8     ecut=    50.00 Ry     beta= 0.30
     Davidson diagonalization with overlap

---- Real-time Memory Report at c_bands before calling an iterative solver
           203 MiB given to the printing process from OS
             0 MiB allocation reported by mallinfo(arena+hblkhd)
        121065 MiB available memory on the node where the printing process lives
------------------
     ethr =  1.68E-04,  avg # of iterations =  1.2

     total cpu time spent up to now is      109.8 secs

     total energy              =   -3254.74452897 Ry
     estimated scf accuracy    <       0.36173709 Ry

     iteration #  9     ecut=    50.00 Ry     beta= 0.30
     Davidson diagonalization with overlap

---- Real-time Memory Report at c_bands before calling an iterative solver
           203 MiB given to the printing process from OS
             0 MiB allocation reported by mallinfo(arena+hblkhd)
        120859 MiB available memory on the node where the printing process lives
------------------
     ethr =  1.12E-04,  avg # of iterations =  1.5

     total cpu time spent up to now is      116.5 secs

     total energy              =   -3254.59533964 Ry
     estimated scf accuracy    <       0.29453425 Ry

     iteration # 10     ecut=    50.00 Ry     beta= 0.30
     Davidson diagonalization with overlap

---- Real-time Memory Report at c_bands before calling an iterative solver
           203 MiB given to the printing process from OS
             0 MiB allocation reported by mallinfo(arena+hblkhd)
        120903 MiB available memory on the node where the printing process lives
------------------
     ethr =  9.09E-05,  avg # of iterations =  6.4

     total cpu time spent up to now is      128.8 secs

     total energy              =   -3254.73445676 Ry
     estimated scf accuracy    <       0.06849478 Ry

     iteration # 11     ecut=    50.00 Ry     beta= 0.30
     Davidson diagonalization with overlap

---- Real-time Memory Report at c_bands before calling an iterative solver
           206 MiB given to the printing process from OS
             0 MiB allocation reported by mallinfo(arena+hblkhd)
        121102 MiB available memory on the node where the printing process lives
------------------
     ethr =  2.11E-05,  avg # of iterations =  2.5

     total cpu time spent up to now is      136.1 secs

     total energy              =   -3254.73605178 Ry
     estimated scf accuracy    <       0.04099433 Ry

     iteration # 12     ecut=    50.00 Ry     beta= 0.30
     Davidson diagonalization with overlap

---- Real-time Memory Report at c_bands before calling an iterative solver
           206 MiB given to the printing process from OS
             0 MiB allocation reported by mallinfo(arena+hblkhd)
        120935 MiB available memory on the node where the printing process lives
------------------
     ethr =  1.27E-05,  avg # of iterations =  1.4

     total cpu time spent up to now is      142.7 secs

     total energy              =   -3254.73490235 Ry
     estimated scf accuracy    <       0.03578932 Ry

     iteration # 13     ecut=    50.00 Ry     beta= 0.30
     Davidson diagonalization with overlap

---- Real-time Memory Report at c_bands before calling an iterative solver
           206 MiB given to the printing process from OS
             0 MiB allocation reported by mallinfo(arena+hblkhd)
        120761 MiB available memory on the node where the printing process lives
------------------
     ethr =  1.10E-05,  avg # of iterations =  1.1

     total cpu time spent up to now is      149.2 secs

     total energy              =   -3254.73853718 Ry
     estimated scf accuracy    <       0.02939163 Ry

     iteration # 14     ecut=    50.00 Ry     beta= 0.30
     Davidson diagonalization with overlap

---- Real-time Memory Report at c_bands before calling an iterative solver
           206 MiB given to the printing process from OS
             0 MiB allocation reported by mallinfo(arena+hblkhd)
        120884 MiB available memory on the node where the printing process lives
------------------
     ethr =  9.07E-06,  avg # of iterations =  1.5

     total cpu time spent up to now is      155.8 secs

     total energy              =   -3254.73981475 Ry
     estimated scf accuracy    <       0.03409525 Ry

     iteration # 15     ecut=    50.00 Ry     beta= 0.30
     Davidson diagonalization with overlap

---- Real-time Memory Report at c_bands before calling an iterative solver
           206 MiB given to the printing process from OS
             0 MiB allocation reported by mallinfo(arena+hblkhd)
        120866 MiB available memory on the node where the printing process lives
------------------
     ethr =  9.07E-06,  avg # of iterations =  1.0

     total cpu time spent up to now is      161.9 secs

     total energy              =   -3254.74890363 Ry
     estimated scf accuracy    <       0.03443832 Ry

     iteration # 16     ecut=    50.00 Ry     beta= 0.30
     Davidson diagonalization with overlap

---- Real-time Memory Report at c_bands before calling an iterative solver
           206 MiB given to the printing process from OS
             0 MiB allocation reported by mallinfo(arena+hblkhd)
        120806 MiB available memory on the node where the printing process lives
------------------
     ethr =  9.07E-06,  avg # of iterations =  1.4

     total cpu time spent up to now is      168.5 secs

     total energy              =   -3254.74080994 Ry
     estimated scf accuracy    <       0.05405087 Ry

     iteration # 17     ecut=    50.00 Ry     beta= 0.30
     Davidson diagonalization with overlap

---- Real-time Memory Report at c_bands before calling an iterative solver
           206 MiB given to the printing process from OS
             0 MiB allocation reported by mallinfo(arena+hblkhd)
        120890 MiB available memory on the node where the printing process lives
------------------
     ethr =  9.07E-06,  avg # of iterations =  1.0

     total cpu time spent up to now is      174.6 secs

     total energy              =   -3254.72129448 Ry
     estimated scf accuracy    <       0.03975132 Ry

     iteration # 18     ecut=    50.00 Ry     beta= 0.30
     Davidson diagonalization with overlap

---- Real-time Memory Report at c_bands before calling an iterative solver
           206 MiB given to the printing process from OS
             0 MiB allocation reported by mallinfo(arena+hblkhd)
        120786 MiB available memory on the node where the printing process lives
------------------
     ethr =  9.07E-06,  avg # of iterations =  5.8

     total cpu time spent up to now is      184.8 secs

     total energy              =   -3254.73044073 Ry
     estimated scf accuracy    <       0.00005912 Ry

     iteration # 19     ecut=    50.00 Ry     beta= 0.30
     Davidson diagonalization with overlap

---- Real-time Memory Report at c_bands before calling an iterative solver
           206 MiB given to the printing process from OS
             0 MiB allocation reported by mallinfo(arena+hblkhd)
        121091 MiB available memory on the node where the printing process lives
------------------
     ethr =  1.82E-08,  avg # of iterations = 18.8

     total cpu time spent up to now is      219.5 secs

     total energy              =   -3254.73049038 Ry
     estimated scf accuracy    <       0.02241930 Ry

     iteration # 20     ecut=    50.00 Ry     beta= 0.30
     Davidson diagonalization with overlap

---- Real-time Memory Report at c_bands before calling an iterative solver
           206 MiB given to the printing process from OS
             0 MiB allocation reported by mallinfo(arena+hblkhd)
        121114 MiB available memory on the node where the printing process lives
------------------
     ethr =  1.82E-08,  avg # of iterations = 17.8

     total cpu time spent up to now is      251.3 secs

     total energy              =   -3254.73155554 Ry
     estimated scf accuracy    <       0.00195250 Ry

     iteration # 21     ecut=    50.00 Ry     beta= 0.30
     Davidson diagonalization with overlap

---- Real-time Memory Report at c_bands before calling an iterative solver
           206 MiB given to the printing process from OS
             0 MiB allocation reported by mallinfo(arena+hblkhd)
        121110 MiB available memory on the node where the printing process lives
------------------
     ethr =  1.82E-08,  avg # of iterations = 14.2

     total cpu time spent up to now is      276.5 secs

     total energy              =   -3254.73217525 Ry
     estimated scf accuracy    <       0.00003293 Ry

     iteration # 22     ecut=    50.00 Ry     beta= 0.30
     Davidson diagonalization with overlap

---- Real-time Memory Report at c_bands before calling an iterative solver
           206 MiB given to the printing process from OS
             0 MiB allocation reported by mallinfo(arena+hblkhd)
        121147 MiB available memory on the node where the printing process lives
------------------
     ethr =  1.02E-08,  avg # of iterations = 13.9

     total cpu time spent up to now is      300.9 secs

     total energy              =   -3254.73189858 Ry
     estimated scf accuracy    <       0.00153090 Ry

     iteration # 23     ecut=    50.00 Ry     beta= 0.30
     Davidson diagonalization with overlap

---- Real-time Memory Report at c_bands before calling an iterative solver
           207 MiB given to the printing process from OS
             0 MiB allocation reported by mallinfo(arena+hblkhd)
        121076 MiB available memory on the node where the printing process lives
------------------
     ethr =  1.02E-08,  avg # of iterations = 10.8

     total cpu time spent up to now is      322.7 secs

     total energy              =   -3254.73202458 Ry
     estimated scf accuracy    <       0.00015787 Ry

     iteration # 24     ecut=    50.00 Ry     beta= 0.30
     Davidson diagonalization with overlap

---- Real-time Memory Report at c_bands before calling an iterative solver
           207 MiB given to the printing process from OS
             0 MiB allocation reported by mallinfo(arena+hblkhd)
        121061 MiB available memory on the node where the printing process lives
------------------
     ethr =  1.02E-08,  avg # of iterations =  2.0

     total cpu time spent up to now is      329.4 secs

     total energy              =   -3254.73203840 Ry
     estimated scf accuracy    <       0.00014962 Ry

     iteration # 25     ecut=    50.00 Ry     beta= 0.30
     Davidson diagonalization with overlap

---- Real-time Memory Report at c_bands before calling an iterative solver
           207 MiB given to the printing process from OS
             0 MiB allocation reported by mallinfo(arena+hblkhd)
        121030 MiB available memory on the node where the printing process lives
------------------
     ethr =  1.02E-08,  avg # of iterations =  1.0

     total cpu time spent up to now is      335.5 secs

     total energy              =   -3254.73201096 Ry
     estimated scf accuracy    <       0.00017378 Ry

     iteration # 26     ecut=    50.00 Ry     beta= 0.30
     Davidson diagonalization with overlap

---- Real-time Memory Report at c_bands before calling an iterative solver
           207 MiB given to the printing process from OS
             0 MiB allocation reported by mallinfo(arena+hblkhd)
        120871 MiB available memory on the node where the printing process lives
------------------
     ethr =  1.02E-08,  avg # of iterations =  1.4

     total cpu time spent up to now is      342.2 secs

     total energy              =   -3254.73196798 Ry
     estimated scf accuracy    <       0.00012324 Ry

     iteration # 27     ecut=    50.00 Ry     beta= 0.30
     Davidson diagonalization with overlap

---- Real-time Memory Report at c_bands before calling an iterative solver
           207 MiB given to the printing process from OS
             0 MiB allocation reported by mallinfo(arena+hblkhd)
        120847 MiB available memory on the node where the printing process lives
------------------
     ethr =  1.02E-08,  avg # of iterations =  7.5

     total cpu time spent up to now is      356.4 secs

     total energy              =   -3254.73198879 Ry
     estimated scf accuracy    <       0.00000193 Ry

     iteration # 28     ecut=    50.00 Ry     beta= 0.30
     Davidson diagonalization with overlap

---- Real-time Memory Report at c_bands before calling an iterative solver
           207 MiB given to the printing process from OS
             0 MiB allocation reported by mallinfo(arena+hblkhd)
        121116 MiB available memory on the node where the printing process lives
------------------
     ethr =  5.95E-10,  avg # of iterations = 12.4

     total cpu time spent up to now is      378.0 secs

     total energy              =   -3254.73199030 Ry
     estimated scf accuracy    <       0.00001888 Ry

     iteration # 29     ecut=    50.00 Ry     beta= 0.30
     Davidson diagonalization with overlap

---- Real-time Memory Report at c_bands before calling an iterative solver
           207 MiB given to the printing process from OS
             0 MiB allocation reported by mallinfo(arena+hblkhd)
        121097 MiB available memory on the node where the printing process lives
------------------
     ethr =  5.95E-10,  avg # of iterations =  7.1

     total cpu time spent up to now is      392.2 secs

     total energy              =   -3254.73198919 Ry
     estimated scf accuracy    <       0.00000308 Ry

     iteration # 30     ecut=    50.00 Ry     beta= 0.30
     Davidson diagonalization with overlap

---- Real-time Memory Report at c_bands before calling an iterative solver
           207 MiB given to the printing process from OS
             0 MiB allocation reported by mallinfo(arena+hblkhd)
        121159 MiB available memory on the node where the printing process lives
------------------
     ethr =  5.95E-10,  avg # of iterations = 10.9

     total cpu time spent up to now is      411.6 secs

     total energy              =   -3254.73199311 Ry
     estimated scf accuracy    <       0.00000766 Ry

     iteration # 31     ecut=    50.00 Ry     beta= 0.30
     Davidson diagonalization with overlap

---- Real-time Memory Report at c_bands before calling an iterative solver
           207 MiB given to the printing process from OS
             0 MiB allocation reported by mallinfo(arena+hblkhd)
        121096 MiB available memory on the node where the printing process lives
------------------
     ethr =  5.95E-10,  avg # of iterations =  2.0

     total cpu time spent up to now is      418.3 secs

     total energy              =   -3254.73199026 Ry
     estimated scf accuracy    <       0.00000758 Ry

     iteration # 32     ecut=    50.00 Ry     beta= 0.30
     Davidson diagonalization with overlap

---- Real-time Memory Report at c_bands before calling an iterative solver
           207 MiB given to the printing process from OS
             0 MiB allocation reported by mallinfo(arena+hblkhd)
        120990 MiB available memory on the node where the printing process lives
------------------
     ethr =  5.95E-10,  avg # of iterations =  5.1

     total cpu time spent up to now is      429.7 secs

     total energy              =   -3254.73199118 Ry
     estimated scf accuracy    <       0.00000048 Ry

     iteration # 33     ecut=    50.00 Ry     beta= 0.30
     Davidson diagonalization with overlap

---- Real-time Memory Report at c_bands before calling an iterative solver
           207 MiB given to the printing process from OS
             0 MiB allocation reported by mallinfo(arena+hblkhd)
        121090 MiB available memory on the node where the printing process lives
------------------
     ethr =  1.49E-10,  avg # of iterations =  4.1

     total cpu time spent up to now is      437.3 secs

     total energy              =   -3254.73199101 Ry
     estimated scf accuracy    <       0.00000047 Ry

     iteration # 34     ecut=    50.00 Ry     beta= 0.30
     Davidson diagonalization with overlap

---- Real-time Memory Report at c_bands before calling an iterative solver
           207 MiB given to the printing process from OS
             0 MiB allocation reported by mallinfo(arena+hblkhd)
        121019 MiB available memory on the node where the printing process lives
------------------
     ethr =  1.45E-10,  avg # of iterations =  5.6

     total cpu time spent up to now is      446.2 secs

     total energy              =   -3254.73199111 Ry
     estimated scf accuracy    <       0.00000005 Ry

     iteration # 35     ecut=    50.00 Ry     beta= 0.30
     Davidson diagonalization with overlap

---- Real-time Memory Report at c_bands before calling an iterative solver
           207 MiB given to the printing process from OS
             0 MiB allocation reported by mallinfo(arena+hblkhd)
        121046 MiB available memory on the node where the printing process lives
------------------
     ethr =  1.68E-11,  avg # of iterations =  5.8

     total cpu time spent up to now is      457.8 secs

     total energy              =   -3254.73199111 Ry
     estimated scf accuracy    <       0.00000004 Ry

     iteration # 36     ecut=    50.00 Ry     beta= 0.30
     Davidson diagonalization with overlap

---- Real-time Memory Report at c_bands before calling an iterative solver
           207 MiB given to the printing process from OS
             0 MiB allocation reported by mallinfo(arena+hblkhd)
        121093 MiB available memory on the node where the printing process lives
------------------
     ethr =  1.34E-11,  avg # of iterations =  5.2

     total cpu time spent up to now is      468.2 secs

     End of self-consistent calculation

          k = 0.0000 0.0000 0.0000 ( 17759 PWs)   bands (ev):

   -10.9984 -10.5470 -10.5470 -10.5470 -10.5469 -10.5469 -10.5469 -10.3182
   -10.1943 -10.1943 -10.1942 -10.1942 -10.1574 -10.1574 -10.1574 -10.1574
   -10.1574 -10.1574   1.0419   1.0419   1.0419   1.0420   1.0420   1.0420
     1.2800   1.2800   1.3159   1.3159   1.3565   1.3780   1.3780   1.3780
     1.3780   1.3780   1.3780   1.4392   1.5014   1.5014   1.5195   1.5196
     1.5196   1.5196   1.5196   1.5196   1.6688   1.6688   1.6688   1.6688
     1.7197   1.7197   1.7197   1.7197   1.7197   1.7197   1.9005   1.9005
     1.9005   1.9005   1.9005   1.9005   2.0258   2.0258   2.0312   2.0312
     2.0312   2.0312   2.0312   2.0312   2.2690   2.2690   2.2690   2.2690
     2.3484   2.3484   2.3484   2.3484   2.3484   2.3484   2.3627   2.3627
     2.4282   2.4282   2.4858   2.4858   2.4988   2.4988   2.4988   2.4988
     2.4988   2.4988   2.5316   2.5316   2.5316   2.5316   2.6248   2.6248
     2.6552   2.6552   2.6552   2.6552   2.6552   2.6552   2.8130   2.8130
     2.8130   2.8131   2.8131   2.8131   2.8918   3.0838   3.0838   3.0838
     3.0838   3.0838   3.0838   3.2410   3.2410   3.4120   3.4120   3.4120
     3.4120   3.7941   3.7941   3.7941   3.7941   3.7941   3.7941   4.6506
     4.6506   4.6506   4.6506   4.6506   4.6507   5.0283   5.0283   5.0283
     5.0283   5.0972   5.0973   5.0973   5.0973   5.0973   5.0973   5.2182
     5.2182   6.0931   6.0931   6.0931   6.0931   6.0931   6.0931   6.1251
     6.1251   6.3016   6.3016   6.3016   6.3016   6.3016   6.3016   6.8050
     6.8873   6.8873

     occupation numbers 
     1.0000   1.0000   1.0000   1.0000   1.0000   1.0000   1.0000   1.0000
     1.0000   1.0000   1.0000   1.0000   1.0000   1.0000   1.0000   1.0000
     1.0000   1.0000   1.0000   1.0000   1.0000   1.0000   1.0000   1.0000
     1.0000   1.0000   1.0000   1.0000   1.0000   1.0000   1.0000   1.0000
     1.0000   1.0000   1.0000   1.0000   1.0000   1.0000   1.0000   1.0000
     1.0000   1.0000   1.0000   1.0000   1.0000   1.0000   1.0000   1.0000
     1.0000   1.0000   1.0000   1.0000   1.0000   1.0000   1.0000   1.0000
     1.0000   1.0000   1.0000   1.0000   1.0000   1.0000   1.0000   1.0000
     1.0000   1.0000   1.0000   1.0000   1.0000   1.0000   1.0000   1.0000
     1.0000   1.0000   1.0000   1.0000   1.0000   1.0000   1.0000   1.0000
     1.0000   1.0000   1.0000   1.0000   1.0000   1.0000   1.0000   1.0000
     1.0000   1.0000   1.0000   1.0000   1.0000   1.0000   1.0000   1.0000
     1.0000   1.0000   1.0000   1.0000   1.0000   1.0000   1.0000   1.0000
     1.0000   1.0000   1.0000   1.0000   1.0000   1.0000   1.0000   1.0000
     1.0000   1.0000   1.0000   1.0000   1.0000   1.0000   1.0000   1.0000
     1.0000   1.0000   1.0000   1.0000   1.0000   1.0000   1.0000   1.0000
     1.0000   1.0000   1.0000   1.0000   1.0000   1.0000   1.0000   1.0000
     1.0000   1.0000   1.0000   1.0000   1.0000   1.0000   1.0000   1.0000
     1.0000   1.0000   1.0000   1.0000   1.0000   1.0000   1.0000   1.0000
     1.0000   1.0000   1.0000   1.0000   1.0000   1.0000   1.0000   1.0000
     1.0000   1.0000

          k = 0.0000 0.0000 0.3097 ( 17645 PWs)   bands (ev):

   -10.9551 -10.5201 -10.5201 -10.5201 -10.5201 -10.5201 -10.5201 -10.3661
   -10.1919 -10.1919 -10.1919 -10.1919 -10.1825 -10.1825 -10.1825 -10.1825
   -10.1825 -10.1825   1.0114   1.0114   1.0114   1.0114   1.0114   1.0114
     1.2878   1.2878   1.2878   1.2878   1.2878   1.2878   1.3081   1.3081
     1.3102   1.3169   1.3225   1.3225   1.4826   1.4826   1.5395   1.5395
     1.5395   1.5395   1.5395   1.5395   1.5787   1.5787   1.5787   1.5787
     1.6945   1.6945   1.6945   1.6945   1.6945   1.6945   1.8679   1.8679
     1.8679   1.8679   1.8679   1.8679   1.8969   1.8969   1.8969   1.8969
     1.8969   1.8969   1.9187   1.9187   2.1585   2.1585   2.1585   2.1585
     2.3793   2.3793   2.3853   2.3853   2.3853   2.3853   2.3853   2.3853
     2.4460   2.4460   2.4792   2.4792   2.5083   2.5083   2.5083   2.5083
     2.5083   2.5083   2.6172   2.6172   2.6425   2.6425   2.6425   2.6425
     2.6425   2.6425   2.6812   2.6812   2.6812   2.6812   2.7606   2.7606
     2.7606   2.7606   2.7606   2.7606   3.2007   3.3424   3.3424   3.3424
     3.3424   3.3424   3.3424   3.3685   3.3685   3.3685   3.3685   3.4090
     3.4090   3.9351   3.9351   3.9351   3.9351   3.9351   3.9351   4.6229
     4.6229   4.6229   4.6229   4.6229   4.6229   5.0893   5.0893   5.1856
     5.1856   5.1856   5.1856   5.1856   5.1856   5.1982   5.1982   5.1982
     5.1982   6.1085   6.1085   6.1085   6.1085   6.1085   6.1085   6.1772
     6.1772   6.2255   6.2255   6.2255   6.2255   6.2255   6.2255   6.2430
     6.8375   6.8375

     occupation numbers 
     1.0000   1.0000   1.0000   1.0000   1.0000   1.0000   1.0000   1.0000
     1.0000   1.0000   1.0000   1.0000   1.0000   1.0000   1.0000   1.0000
     1.0000   1.0000   1.0000   1.0000   1.0000   1.0000   1.0000   1.0000
     1.0000   1.0000   1.0000   1.0000   1.0000   1.0000   1.0000   1.0000
     1.0000   1.0000   1.0000   1.0000   1.0000   1.0000   1.0000   1.0000
     1.0000   1.0000   1.0000   1.0000   1.0000   1.0000   1.0000   1.0000
     1.0000   1.0000   1.0000   1.0000   1.0000   1.0000   1.0000   1.0000
     1.0000   1.0000   1.0000   1.0000   1.0000   1.0000   1.0000   1.0000
     1.0000   1.0000   1.0000   1.0000   1.0000   1.0000   1.0000   1.0000
     1.0000   1.0000   1.0000   1.0000   1.0000   1.0000   1.0000   1.0000
     1.0000   1.0000   1.0000   1.0000   1.0000   1.0000   1.0000   1.0000
     1.0000   1.0000   1.0000   1.0000   1.0000   1.0000   1.0000   1.0000
     1.0000   1.0000   1.0000   1.0000   1.0000   1.0000   1.0000   1.0000
     1.0000   1.0000   1.0000   1.0000   1.0000   1.0000   1.0000   1.0000
     1.0000   1.0000   1.0000   1.0000   1.0000   1.0000   1.0000   1.0000
     1.0000   1.0000   1.0000   1.0000   1.0000   1.0000   1.0000   1.0000
     1.0000   1.0000   1.0000   1.0000   1.0000   1.0000   1.0000   1.0000
     1.0000   1.0000   1.0000   1.0000   1.0000   1.0000   1.0000   1.0000
     1.0000   1.0000   1.0000   1.0000   1.0000   1.0000   1.0000   1.0000
     1.0000   1.0000   1.0000   1.0000   1.0000   1.0000   1.0000   1.0000
     1.0000   1.0000

          k = 0.0000 0.0000 0.6194 ( 17704 PWs)   bands (ev):

   -10.8351 -10.4951 -10.4471 -10.4471 -10.4471 -10.4471 -10.4471 -10.4471
   -10.2519 -10.2519 -10.2519 -10.2519 -10.2519 -10.2519 -10.1872 -10.1872
   -10.1872 -10.1872   0.9559   0.9559   0.9559   0.9559   0.9559   0.9559
     1.0906   1.0906   1.0906   1.0906   1.0906   1.0906   1.1614   1.2062
     1.3451   1.3451   1.3917   1.3917   1.4031   1.4031   1.4031   1.4031
     1.4366   1.4366   1.5967   1.5967   1.5967   1.5967   1.5967   1.5967
     1.6673   1.6673   1.6673   1.6674   1.6674   1.6674   1.7170   1.7170
     1.7583   1.7583   1.7583   1.7583   1.7583   1.7583   1.7846   1.7846
     1.7846   1.7846   1.7846   1.7846   2.0771   2.0771   2.0771   2.0771
     2.4064   2.4064   2.4607   2.4607   2.4787   2.4787   2.4787   2.4787
     2.4787   2.4787   2.4918   2.4918   2.5339   2.5339   2.5339   2.5339
     2.5339   2.5339   2.5917   2.5917   2.6096   2.6096   2.6096   2.6096
     2.6096   2.6096   2.6819   2.6819   2.6819   2.6819   2.6819   2.6819
     2.8530   2.8530   2.8530   2.8530   3.2872   3.2872   3.2873   3.2873
     3.6415   3.6415   3.6415   3.6415   3.6415   3.6415   3.8035   3.8035
     3.8753   4.0473   4.0473   4.0473   4.0473   4.0473   4.0473   4.7452
     4.7452   4.9084   4.9084   4.9084   4.9084   4.9084   4.9084   5.4185
     5.4185   5.4185   5.4185   5.4185   5.4186   5.4566   5.5234   5.5234
     5.5234   5.5234   5.9793   5.9793   5.9793   5.9793   5.9793   5.9793
     6.0154   6.0155   6.0155   6.0155   6.0155   6.0155   6.3190   6.3190
     6.7004   6.7004

     occupation numbers 
     1.0000   1.0000   1.0000   1.0000   1.0000   1.0000   1.0000   1.0000
     1.0000   1.0000   1.0000   1.0000   1.0000   1.0000   1.0000   1.0000
     1.0000   1.0000   1.0000   1.0000   1.0000   1.0000   1.0000   1.0000
     1.0000   1.0000   1.0000   1.0000   1.0000   1.0000   1.0000   1.0000
     1.0000   1.0000   1.0000   1.0000   1.0000   1.0000   1.0000   1.0000
     1.0000   1.0000   1.0000   1.0000   1.0000   1.0000   1.0000   1.0000
     1.0000   1.0000   1.0000   1.0000   1.0000   1.0000   1.0000   1.0000
     1.0000   1.0000   1.0000   1.0000   1.0000   1.0000   1.0000   1.0000
     1.0000   1.0000   1.0000   1.0000   1.0000   1.0000   1.0000   1.0000
     1.0000   1.0000   1.0000   1.0000   1.0000   1.0000   1.0000   1.0000
     1.0000   1.0000   1.0000   1.0000   1.0000   1.0000   1.0000   1.0000
     1.0000   1.0000   1.0000   1.0000   1.0000   1.0000   1.0000   1.0000
     1.0000   1.0000   1.0000   1.0000   1.0000   1.0000   1.0000   1.0000
     1.0000   1.0000   1.0000   1.0000   1.0000   1.0000   1.0000   1.0000
     1.0000   1.0000   1.0000   1.0000   1.0000   1.0000   1.0000   1.0000
     1.0000   1.0000   1.0000   1.0000   1.0000   1.0000   1.0000   1.0000
     1.0000   1.0000   1.0000   1.0000   1.0000   1.0000   1.0000   1.0000
     1.0000   1.0000   1.0000   1.0000   1.0000   1.0000   1.0000   1.0000
     1.0000   1.0000   1.0000   1.0000   1.0000   1.0000   1.0000   1.0000
     1.0000   1.0000   1.0000   1.0000   1.0000   1.0000   1.0000   1.0000
     1.0000   1.0000

          k = 0.0000 0.0000-0.9292 ( 17746 PWs)   bands (ev):

   -10.6674 -10.6674 -10.3487 -10.3487 -10.3487 -10.3486 -10.3486 -10.3486
   -10.3486 -10.3486 -10.3486 -10.3486 -10.3486 -10.3486 -10.1848 -10.1848
   -10.1848 -10.1848   0.9620   0.9620   0.9620   0.9620   0.9620   0.9620
     0.9620   0.9620   0.9620   0.9620   0.9620   0.9620   1.1297   1.1297
     1.3212   1.3212   1.3212   1.3212   1.3852   1.3852   1.3852   1.3852
     1.5305   1.5305   1.5305   1.5305   1.6841   1.6841   1.6841   1.6841
     1.6841   1.6841   1.6841   1.6841   1.6841   1.6841   1.6841   1.6842
     1.6874   1.6874   1.6874   1.6874   1.6874   1.6874   1.6874   1.6874
     1.6874   1.6874   1.6874   1.6874   2.0556   2.0556   2.0556   2.0556
     2.4346   2.4346   2.4346   2.4346   2.5468   2.5468   2.5468   2.5468
     2.5701   2.5701   2.5701   2.5702   2.5702   2.5702   2.5702   2.5702
     2.5702   2.5702   2.5702   2.5702   2.5851   2.5851   2.5851   2.5851
     2.5851   2.5851   2.5851   2.5851   2.5851   2.5851   2.5851   2.5851
     2.9254   2.9254   2.9255   2.9255   3.2429   3.2429   3.2429   3.2429
     3.8757   3.8758   3.8758   3.8758   3.8758   3.8758   3.8758   3.8758
     3.8758   3.8758   3.8758   3.8758   4.2827   4.2827   4.2827   4.2827
     4.6601   4.6601   5.5303   5.5303   5.5303   5.5303   5.5303   5.5303
     5.5303   5.5303   5.5303   5.5303   5.5303   5.5303   5.6818   5.6818
     5.6818   5.6818   5.7224   5.7224   5.7224   5.7224   5.7224   5.7224
     5.7224   5.7224   5.7224   5.7224   5.7224   5.7224   6.5108   6.5108
     6.5109   6.5109

     occupation numbers 
     1.0000   1.0000   1.0000   1.0000   1.0000   1.0000   1.0000   1.0000
     1.0000   1.0000   1.0000   1.0000   1.0000   1.0000   1.0000   1.0000
     1.0000   1.0000   1.0000   1.0000   1.0000   1.0000   1.0000   1.0000
     1.0000   1.0000   1.0000   1.0000   1.0000   1.0000   1.0000   1.0000
     1.0000   1.0000   1.0000   1.0000   1.0000   1.0000   1.0000   1.0000
     1.0000   1.0000   1.0000   1.0000   1.0000   1.0000   1.0000   1.0000
     1.0000   1.0000   1.0000   1.0000   1.0000   1.0000   1.0000   1.0000
     1.0000   1.0000   1.0000   1.0000   1.0000   1.0000   1.0000   1.0000
     1.0000   1.0000   1.0000   1.0000   1.0000   1.0000   1.0000   1.0000
     1.0000   1.0000   1.0000   1.0000   1.0000   1.0000   1.0000   1.0000
     1.0000   1.0000   1.0000   1.0000   1.0000   1.0000   1.0000   1.0000
     1.0000   1.0000   1.0000   1.0000   1.0000   1.0000   1.0000   1.0000
     1.0000   1.0000   1.0000   1.0000   1.0000   1.0000   1.0000   1.0000
     1.0000   1.0000   1.0000   1.0000   1.0000   1.0000   1.0000   1.0000
     1.0000   1.0000   1.0000   1.0000   1.0000   1.0000   1.0000   1.0000
     1.0000   1.0000   1.0000   1.0000   1.0000   1.0000   1.0000   1.0000
     1.0000   1.0000   1.0000   1.0000   1.0000   1.0000   1.0000   1.0000
     1.0000   1.0000   1.0000   1.0000   1.0000   1.0000   1.0000   1.0000
     1.0000   1.0000   1.0000   1.0000   1.0000   1.0000   1.0000   1.0000
     1.0000   1.0000   1.0000   1.0000   1.0000   1.0000   1.0000   1.0000
     1.0000   1.0000

          k = 0.0000-0.5774 0.0000 ( 17704 PWs)   bands (ev):

   -10.8593 -10.8593 -10.6322 -10.6322 -10.3567 -10.3567 -10.3567 -10.3567
   -10.3492 -10.2581 -10.2581 -10.1782 -10.1782 -10.1407 -10.1367 -10.1367
   -10.1367 -10.1367   1.1141   1.1448   1.1448   1.1787   1.1787   1.2098
     1.2098   1.2098   1.2098   1.3230   1.3347   1.3347   1.3939   1.3939
     1.4175   1.4175   1.4530   1.4530   1.4530   1.4530   1.4978   1.4978
     1.5272   1.5272   1.5609   1.5839   1.5839   1.5839   1.5839   1.5845
     1.5845   1.6182   1.6182   1.6647   1.6647   1.7926   1.7926   1.7926
     1.7926   1.8373   1.8373   1.9413   1.9538   1.9688   1.9688   2.0460
     2.0460   2.0460   2.0460   2.0753   2.1149   2.1149   2.1149   2.1149
     2.3226   2.3226   2.3719   2.3719   2.4055   2.4055   2.4055   2.4055
     2.4269   2.4269   2.4472   2.4472   2.4641   2.4731   2.4731   2.4731
     2.4731   2.5909   2.6358   2.6358   2.6484   2.6484   2.6705   2.6836
     2.6836   2.6836   2.6836   2.7417   2.7479   2.7479   2.8198   2.8198
     2.8614   2.8614   2.8732   2.8732   2.8732   2.8732   3.0203   3.0203
     3.0747   3.0747   3.0747   3.0747   3.2047   3.4268   3.6813   3.6813
     3.6813   3.6813   4.1031   4.1031   4.1031   4.1031   4.1406   4.4220
     4.4220   4.4220   4.4220   4.4227   4.4227   4.6354   4.6354   4.7139
     5.2257   5.2257   5.2290   5.2290   5.6135   5.6135   5.6135   5.6135
     5.6402   5.7794   5.7794   5.7885   5.7885   5.7976   5.7976   5.7976
     5.7976   6.0830   6.2537   6.2537   6.2864   6.2864   6.6256   6.6256
     6.7030   6.7030

     occupation numbers 
     1.0000   1.0000   1.0000   1.0000   1.0000   1.0000   1.0000   1.0000
     1.0000   1.0000   1.0000   1.0000   1.0000   1.0000   1.0000   1.0000
     1.0000   1.0000   1.0000   1.0000   1.0000   1.0000   1.0000   1.0000
     1.0000   1.0000   1.0000   1.0000   1.0000   1.0000   1.0000   1.0000
     1.0000   1.0000   1.0000   1.0000   1.0000   1.0000   1.0000   1.0000
     1.0000   1.0000   1.0000   1.0000   1.0000   1.0000   1.0000   1.0000
     1.0000   1.0000   1.0000   1.0000   1.0000   1.0000   1.0000   1.0000
     1.0000   1.0000   1.0000   1.0000   1.0000   1.0000   1.0000   1.0000
     1.0000   1.0000   1.0000   1.0000   1.0000   1.0000   1.0000   1.0000
     1.0000   1.0000   1.0000   1.0000   1.0000   1.0000   1.0000   1.0000
     1.0000   1.0000   1.0000   1.0000   1.0000   1.0000   1.0000   1.0000
     1.0000   1.0000   1.0000   1.0000   1.0000   1.0000   1.0000   1.0000
     1.0000   1.0000   1.0000   1.0000   1.0000   1.0000   1.0000   1.0000
     1.0000   1.0000   1.0000   1.0000   1.0000   1.0000   1.0000   1.0000
     1.0000   1.0000   1.0000   1.0000   1.0000   1.0000   1.0000   1.0000
     1.0000   1.0000   1.0000   1.0000   1.0000   1.0000   1.0000   1.0000
     1.0000   1.0000   1.0000   1.0000   1.0000   1.0000   1.0000   1.0000
     1.0000   1.0000   1.0000   1.0000   1.0000   1.0000   1.0000   1.0000
     1.0000   1.0000   1.0000   1.0000   1.0000   1.0000   1.0000   1.0000
     1.0000   1.0000   1.0000   1.0000   1.0000   1.0000   1.0000   1.0000
     1.0000   1.0000

          k = 0.0000-0.5774 0.3097 ( 17726 PWs)   bands (ev):

   -10.8203 -10.8203 -10.6015 -10.6015 -10.3401 -10.3401 -10.3401 -10.3401
   -10.3334 -10.2996 -10.2995 -10.2081 -10.2081 -10.1526 -10.1495 -10.1494
   -10.1494 -10.1494   1.0697   1.1086   1.1086   1.1496   1.1496   1.1780
     1.1780   1.1780   1.1780   1.2255   1.2850   1.2850   1.3367   1.3367
     1.3762   1.3762   1.3762   1.3762   1.4035   1.4035   1.4548   1.4548
     1.5188   1.5188   1.5573   1.5573   1.5637   1.5637   1.5637   1.5637
     1.5871   1.5905   1.5905   1.5969   1.5969   1.7730   1.7730   1.7730
     1.7730   1.8092   1.8092   1.8094   1.8094   1.9133   1.9195   1.9824
     1.9824   1.9824   1.9824   2.0290   2.0290   2.0290   2.0290   2.0308
     2.3642   2.3642   2.4013   2.4013   2.4172   2.4172   2.4172   2.4172
     2.4440   2.4440   2.4789   2.4789   2.5266   2.5393   2.5393   2.5393
     2.5393   2.5930   2.6255   2.6255   2.6363   2.6363   2.6574   2.6724
     2.6724   2.6804   2.6804   2.6804   2.6804   2.7411   2.7500   2.7500
     2.8696   2.8696   2.8696   2.8696   3.1154   3.1154   3.1154   3.1154
     3.1660   3.2560   3.2560   3.3752   3.3752   3.3762   3.6971   3.6971
     3.6971   3.6971   4.2091   4.2092   4.2092   4.2092   4.4237   4.5551
     4.5551   4.6101   4.6101   4.6168   4.6168   4.6168   4.6168   4.8200
     5.2328   5.2328   5.2750   5.2751   5.5972   5.5972   5.5972   5.5972
     5.6315   5.6315   5.7267   5.7986   5.7986   5.7986   5.7986   5.8520
     5.8520   5.9987   6.1732   6.1732   6.2739   6.2739   6.5472   6.5473
     6.6436   6.6436

     occupation numbers 
     1.0000   1.0000   1.0000   1.0000   1.0000   1.0000   1.0000   1.0000
     1.0000   1.0000   1.0000   1.0000   1.0000   1.0000   1.0000   1.0000
     1.0000   1.0000   1.0000   1.0000   1.0000   1.0000   1.0000   1.0000
     1.0000   1.0000   1.0000   1.0000   1.0000   1.0000   1.0000   1.0000
     1.0000   1.0000   1.0000   1.0000   1.0000   1.0000   1.0000   1.0000
     1.0000   1.0000   1.0000   1.0000   1.0000   1.0000   1.0000   1.0000
     1.0000   1.0000   1.0000   1.0000   1.0000   1.0000   1.0000   1.0000
     1.0000   1.0000   1.0000   1.0000   1.0000   1.0000   1.0000   1.0000
     1.0000   1.0000   1.0000   1.0000   1.0000   1.0000   1.0000   1.0000
     1.0000   1.0000   1.0000   1.0000   1.0000   1.0000   1.0000   1.0000
     1.0000   1.0000   1.0000   1.0000   1.0000   1.0000   1.0000   1.0000
     1.0000   1.0000   1.0000   1.0000   1.0000   1.0000   1.0000   1.0000
     1.0000   1.0000   1.0000   1.0000   1.0000   1.0000   1.0000   1.0000
     1.0000   1.0000   1.0000   1.0000   1.0000   1.0000   1.0000   1.0000
     1.0000   1.0000   1.0000   1.0000   1.0000   1.0000   1.0000   1.0000
     1.0000   1.0000   1.0000   1.0000   1.0000   1.0000   1.0000   1.0000
     1.0000   1.0000   1.0000   1.0000   1.0000   1.0000   1.0000   1.0000
     1.0000   1.0000   1.0000   1.0000   1.0000   1.0000   1.0000   1.0000
     1.0000   1.0000   1.0000   1.0000   1.0000   1.0000   1.0000   1.0000
     1.0000   1.0000   1.0000   1.0000   1.0000   1.0000   1.0000   1.0000
     1.0000   1.0000

          k = 0.0000-0.5774 0.6194 ( 17738 PWs)   bands (ev):

   -10.7128 -10.7127 -10.5178 -10.5178 -10.4120 -10.4120 -10.2961 -10.2961
   -10.2961 -10.2961 -10.2914 -10.2904 -10.2904 -10.1868 -10.1858 -10.1858
   -10.1858 -10.1858   0.9826   1.0368   1.0368   1.0471   1.0820   1.0820
     1.1038   1.1038   1.1038   1.1038   1.1268   1.1268   1.1443   1.1443
     1.1968   1.1968   1.1968   1.1968   1.4331   1.4331   1.4425   1.4425
     1.5169   1.5169   1.5221   1.5221   1.5381   1.5381   1.5437   1.5437
     1.5839   1.5839   1.5839   1.5839   1.6641   1.6853   1.6853   1.7338
     1.7338   1.7338   1.7338   1.7417   1.7417   1.8687   1.8803   1.8904
     1.8904   1.8904   1.8904   1.9133   1.9133   1.9133   1.9133   1.9178
     2.4609   2.4609   2.4695   2.4695   2.4884   2.4884   2.4958   2.4958
     2.4958   2.4958   2.5183   2.5183   2.5677   2.5677   2.5677   2.5677
     2.5935   2.5935   2.6003   2.6056   2.6056   2.6172   2.6172   2.6268
     2.6329   2.6725   2.6725   2.6913   2.6913   2.6913   2.6913   2.7317
     2.8116   2.8116   2.8116   2.8116   3.1456   3.2568   3.2568   3.2568
     3.2568   3.2754   3.5916   3.5916   3.5916   3.5916   3.8659   3.8659
     3.9343   3.9343   4.4657   4.4657   4.5350   4.5350   4.5350   4.5350
     4.9825   4.9825   5.0141   5.0817   5.0817   5.0817   5.0817   5.0927
     5.1229   5.1229   5.3664   5.3664   5.3813   5.3813   5.3813   5.3814
     5.5974   5.5974   5.7659   5.7927   5.8447   5.8447   5.8448   5.8448
     5.9570   5.9570   6.0234   6.0234   6.0904   6.0904   6.2837   6.2837
     6.4801   6.4801

     occupation numbers 
     1.0000   1.0000   1.0000   1.0000   1.0000   1.0000   1.0000   1.0000
     1.0000   1.0000   1.0000   1.0000   1.0000   1.0000   1.0000   1.0000
     1.0000   1.0000   1.0000   1.0000   1.0000   1.0000   1.0000   1.0000
     1.0000   1.0000   1.0000   1.0000   1.0000   1.0000   1.0000   1.0000
     1.0000   1.0000   1.0000   1.0000   1.0000   1.0000   1.0000   1.0000
     1.0000   1.0000   1.0000   1.0000   1.0000   1.0000   1.0000   1.0000
     1.0000   1.0000   1.0000   1.0000   1.0000   1.0000   1.0000   1.0000
     1.0000   1.0000   1.0000   1.0000   1.0000   1.0000   1.0000   1.0000
     1.0000   1.0000   1.0000   1.0000   1.0000   1.0000   1.0000   1.0000
     1.0000   1.0000   1.0000   1.0000   1.0000   1.0000   1.0000   1.0000
     1.0000   1.0000   1.0000   1.0000   1.0000   1.0000   1.0000   1.0000
     1.0000   1.0000   1.0000   1.0000   1.0000   1.0000   1.0000   1.0000
     1.0000   1.0000   1.0000   1.0000   1.0000   1.0000   1.0000   1.0000
     1.0000   1.0000   1.0000   1.0000   1.0000   1.0000   1.0000   1.0000
     1.0000   1.0000   1.0000   1.0000   1.0000   1.0000   1.0000   1.0000
     1.0000   1.0000   1.0000   1.0000   1.0000   1.0000   1.0000   1.0000
     1.0000   1.0000   1.0000   1.0000   1.0000   1.0000   1.0000   1.0000
     1.0000   1.0000   1.0000   1.0000   1.0000   1.0000   1.0000   1.0000
     1.0000   1.0000   1.0000   1.0000   1.0000   1.0000   1.0000   1.0000
     1.0000   1.0000   1.0000   1.0000   1.0000   1.0000   1.0000   1.0000
     1.0000   1.0000

          k = 0.0000-0.5774-0.9292 ( 17732 PWs)   bands (ev):

   -10.5637 -10.5636 -10.5636 -10.5636 -10.4038 -10.4038 -10.4038 -10.4038
   -10.2391 -10.2391 -10.2391 -10.2391 -10.2391 -10.2391 -10.2390 -10.2390
   -10.2371 -10.2371   0.9527   0.9527   1.0209   1.0209   1.0209   1.0209
     1.0549   1.0549   1.0549   1.0549   1.0856   1.0856   1.0857   1.0857
     1.0857   1.0857   1.0857   1.0857   1.4698   1.4698   1.4698   1.4698
     1.4827   1.4827   1.4827   1.4827   1.5328   1.5328   1.5328   1.5328
     1.6623   1.6623   1.6623   1.6623   1.6623   1.6623   1.6623   1.6623
     1.6781   1.6781   1.6781   1.6781   1.7821   1.7821   1.8586   1.8587
     1.8597   1.8597   1.8597   1.8597   1.8597   1.8597   1.8597   1.8597
     2.5440   2.5440   2.5440   2.5440   2.5485   2.5485   2.5485   2.5485
     2.5519   2.5519   2.5519   2.5519   2.5532   2.5532   2.5532   2.5532
     2.5532   2.5532   2.5532   2.5532   2.5835   2.5835   2.5835   2.5835
     2.6133   2.6133   2.6978   2.6978   2.7389   2.7389   2.7389   2.7389
     2.7390   2.7390   2.7390   2.7390   3.1878   3.1878   3.4275   3.4275
     3.4275   3.4275   3.4275   3.4275   3.4275   3.4275   4.2135   4.2135
     4.2135   4.2135   4.6007   4.6007   4.6007   4.6007   4.9299   4.9299
     4.9299   4.9299   4.9299   4.9299   4.9299   4.9299   5.4385   5.4385
     5.5301   5.5301   5.5301   5.5301   5.5539   5.5539   5.6423   5.6423
     5.6423   5.6423   5.6423   5.6423   5.6423   5.6423   5.7236   5.7236
     5.7237   5.7237   5.9120   5.9120   5.9120   5.9120   6.2537   6.2537
     6.2537   6.2537

     occupation numbers 
     1.0000   1.0000   1.0000   1.0000   1.0000   1.0000   1.0000   1.0000
     1.0000   1.0000   1.0000   1.0000   1.0000   1.0000   1.0000   1.0000
     1.0000   1.0000   1.0000   1.0000   1.0000   1.0000   1.0000   1.0000
     1.0000   1.0000   1.0000   1.0000   1.0000   1.0000   1.0000   1.0000
     1.0000   1.0000   1.0000   1.0000   1.0000   1.0000   1.0000   1.0000
     1.0000   1.0000   1.0000   1.0000   1.0000   1.0000   1.0000   1.0000
     1.0000   1.0000   1.0000   1.0000   1.0000   1.0000   1.0000   1.0000
     1.0000   1.0000   1.0000   1.0000   1.0000   1.0000   1.0000   1.0000
     1.0000   1.0000   1.0000   1.0000   1.0000   1.0000   1.0000   1.0000
     1.0000   1.0000   1.0000   1.0000   1.0000   1.0000   1.0000   1.0000
     1.0000   1.0000   1.0000   1.0000   1.0000   1.0000   1.0000   1.0000
     1.0000   1.0000   1.0000   1.0000   1.0000   1.0000   1.0000   1.0000
     1.0000   1.0000   1.0000   1.0000   1.0000   1.0000   1.0000   1.0000
     1.0000   1.0000   1.0000   1.0000   1.0000   1.0000   1.0000   1.0000
     1.0000   1.0000   1.0000   1.0000   1.0000   1.0000   1.0000   1.0000
     1.0000   1.0000   1.0000   1.0000   1.0000   1.0000   1.0000   1.0000
     1.0000   1.0000   1.0000   1.0000   1.0000   1.0000   1.0000   1.0000
     1.0000   1.0000   1.0000   1.0000   1.0000   1.0000   1.0000   1.0000
     1.0000   1.0000   1.0000   1.0000   1.0000   1.0000   1.0000   1.0000
     1.0000   1.0000   1.0000   1.0000   1.0000   1.0000   1.0000   1.0000
     1.0000   1.0000

     highest occupied level (ev):     6.8873

!    total energy              =   -3254.73199112 Ry
     estimated scf accuracy    <          1.9E-09 Ry

     The total energy is the sum of the following terms:
     one-electron contribution =   -1390.72712481 Ry
     hartree contribution      =    1064.60281692 Ry
     xc contribution           =    -985.91509535 Ry
     ewald contribution        =   -1942.69258788 Ry

     convergence has been achieved in  36 iterations

     Forces acting on atoms (cartesian axes, Ry/au):

     atom    1 type  1   force =    -0.00000127   -0.00000073    0.00006307
     atom    2 type  1   force =     0.00000000   -0.00000024    0.00005936
     atom    3 type  2   force =    -0.00000091   -0.00000052   -0.00006160
     atom    4 type  2   force =    -0.00000000   -0.00000141   -0.00006070
     atom    5 type  1   force =     0.00000000    0.00000128    0.00006183
     atom    6 type  1   force =     0.00000075    0.00000043    0.00006061
     atom    7 type  2   force =     0.00000000    0.00000240   -0.00006139
     atom    8 type  2   force =     0.00000175    0.00000101   -0.00006010
     atom    9 type  1   force =     0.00000111   -0.00000064    0.00006183
     atom   10 type  1   force =    -0.00000021    0.00000012    0.00005936
     atom   11 type  2   force =     0.00000208   -0.00000120   -0.00006139
     atom   12 type  2   force =    -0.00000122    0.00000071   -0.00006070
     atom   13 type  1   force =     0.00000000   -0.00000239    0.00006287
     atom   14 type  1   force =    -0.00000196   -0.00000113    0.00005871
     atom   15 type  2   force =     0.00000000    0.00000004   -0.00006183
     atom   16 type  2   force =     0.00000002    0.00000001   -0.00006084
     atom   17 type  1   force =    -0.00000207    0.00000119    0.00006287
     atom   18 type  1   force =    -0.00000075    0.00000043    0.00006061
     atom   19 type  2   force =     0.00000004   -0.00000002   -0.00006183
     atom   20 type  2   force =    -0.00000175    0.00000101   -0.00006010
     atom   21 type  1   force =    -0.00000111   -0.00000064    0.00006183
     atom   22 type  1   force =    -0.00000000   -0.00000086    0.00006061
     atom   23 type  2   force =    -0.00000208   -0.00000120   -0.00006139
     atom   24 type  2   force =     0.00000000   -0.00000202   -0.00006010
     atom   25 type  1   force =     0.00000127   -0.00000073    0.00006307
     atom   26 type  1   force =     0.00000196   -0.00000113    0.00005871
     atom   27 type  2   force =     0.00000091   -0.00000052   -0.00006160
     atom   28 type  2   force =    -0.00000002    0.00000001   -0.00006084
     atom   29 type  1   force =     0.00000207    0.00000119    0.00006287
     atom   30 type  1   force =     0.00000000    0.00000227    0.00005871
     atom   31 type  2   force =    -0.00000004   -0.00000002   -0.00006183
     atom   32 type  2   force =    -0.00000000   -0.00000003   -0.00006084
     atom   33 type  1   force =     0.00000000    0.00000147    0.00006307
     atom   34 type  1   force =     0.00000021    0.00000012    0.00005936
     atom   35 type  2   force =    -0.00000000    0.00000105   -0.00006160
     atom   36 type  2   force =     0.00000122    0.00000071   -0.00006070
     The non-local contrib.  to forces
     atom    1 type  1   force =     0.00000215    0.00000124   -0.00483406
     atom    2 type  1   force =     0.00000000    0.00000182   -0.00483330
     atom    3 type  2   force =    -0.00000134   -0.00000077    0.00575274
     atom    4 type  2   force =     0.00000000   -0.00000063    0.00575410
     atom    5 type  1   force =     0.00000000   -0.00000222   -0.00483433
     atom    6 type  1   force =    -0.00000174   -0.00000100   -0.00483288
     atom    7 type  2   force =     0.00000000    0.00000136    0.00575277
     atom    8 type  2   force =     0.00000239    0.00000138    0.00575353
     atom    9 type  1   force =    -0.00000192    0.00000111   -0.00483433
     atom   10 type  1   force =     0.00000158   -0.00000091   -0.00483330
     atom   11 type  2   force =     0.00000118   -0.00000068    0.00575277
     atom   12 type  2   force =    -0.00000055    0.00000032    0.00575410
     atom   13 type  1   force =     0.00000000    0.00000098   -0.00483439
     atom   14 type  1   force =     0.00000007    0.00000004   -0.00483258
     atom   15 type  2   force =     0.00000000    0.00000032    0.00575311
     atom   16 type  2   force =    -0.00000068   -0.00000039    0.00575298
     atom   17 type  1   force =     0.00000085   -0.00000049   -0.00483439
     atom   18 type  1   force =     0.00000174   -0.00000100   -0.00483288
     atom   19 type  2   force =     0.00000027   -0.00000016    0.00575311
     atom   20 type  2   force =    -0.00000239    0.00000138    0.00575353
     atom   21 type  1   force =     0.00000192    0.00000111   -0.00483433
     atom   22 type  1   force =    -0.00000000    0.00000201   -0.00483288
     atom   23 type  2   force =    -0.00000118   -0.00000068    0.00575277
     atom   24 type  2   force =     0.00000000   -0.00000276    0.00575353
     atom   25 type  1   force =    -0.00000215    0.00000124   -0.00483406
     atom   26 type  1   force =    -0.00000007    0.00000004   -0.00483258
     atom   27 type  2   force =     0.00000134   -0.00000077    0.00575274
     atom   28 type  2   force =     0.00000068   -0.00000039    0.00575298
     atom   29 type  1   force =    -0.00000085   -0.00000049   -0.00483439
     atom   30 type  1   force =    -0.00000000   -0.00000009   -0.00483258
     atom   31 type  2   force =    -0.00000027   -0.00000016    0.00575311
     atom   32 type  2   force =     0.00000000    0.00000079    0.00575298
     atom   33 type  1   force =     0.00000000   -0.00000248   -0.00483406
     atom   34 type  1   force =    -0.00000158   -0.00000091   -0.00483330
     atom   35 type  2   force =     0.00000000    0.00000154    0.00575274
     atom   36 type  2   force =     0.00000055    0.00000032    0.00575410
     The ionic contribution  to forces
     atom    1 type  1   force =     0.00000001    0.00000001    0.06271747
     atom    2 type  1   force =     0.00000000    0.00000002    0.06271747
     atom    3 type  2   force =     0.00000001    0.00000000   -0.06271747
     atom    4 type  2   force =    -0.00000000    0.00000001   -0.06271747
     atom    5 type  1   force =     0.00000001    0.00000001    0.06271747
     atom    6 type  1   force =     0.00000001   -0.00000000    0.06271747
     atom    7 type  2   force =     0.00000000    0.00000000   -0.06271747
     atom    8 type  2   force =     0.00000001    0.00000000   -0.06271747
     atom    9 type  1   force =     0.00000001   -0.00000001    0.06271747
     atom   10 type  1   force =     0.00000000   -0.00000000    0.06271747
     atom   11 type  2   force =     0.00000001   -0.00000000   -0.06271747
     atom   12 type  2   force =    -0.00000000    0.00000000   -0.06271747
     atom   13 type  1   force =    -0.00000001    0.00000001    0.06271747
     atom   14 type  1   force =     0.00000001    0.00000001    0.06271747
     atom   15 type  2   force =    -0.00000000    0.00000001   -0.06271747
     atom   16 type  2   force =     0.00000000    0.00000000   -0.06271747
     atom   17 type  1   force =    -0.00000001    0.00000001    0.06271747
     atom   18 type  1   force =     0.00000001   -0.00000001    0.06271747
     atom   19 type  2   force =    -0.00000001    0.00000001   -0.06271747
     atom   20 type  2   force =     0.00000001   -0.00000001   -0.06271747
     atom   21 type  1   force =    -0.00000001   -0.00000001    0.06271747
     atom   22 type  1   force =     0.00000001   -0.00000001    0.06271747
     atom   23 type  2   force =    -0.00000000   -0.00000000   -0.06271747
     atom   24 type  2   force =     0.00000000   -0.00000001   -0.06271747
     atom   25 type  1   force =    -0.00000000    0.00000000    0.06271747
     atom   26 type  1   force =    -0.00000001    0.00000001    0.06271747
     atom   27 type  2   force =     0.00000000   -0.00000000   -0.06271747
     atom   28 type  2   force =    -0.00000001    0.00000000   -0.06271747
     atom   29 type  1   force =    -0.00000001    0.00000000    0.06271747
     atom   30 type  1   force =    -0.00000001   -0.00000001    0.06271747
     atom   31 type  2   force =    -0.00000001   -0.00000000   -0.06271747
     atom   32 type  2   force =    -0.00000000   -0.00000000   -0.06271747
     atom   33 type  1   force =    -0.00000000   -0.00000002    0.06271747
     atom   34 type  1   force =    -0.00000001   -0.00000001    0.06271747
     atom   35 type  2   force =     0.00000000   -0.00000001   -0.06271747
     atom   36 type  2   force =    -0.00000001   -0.00000000   -0.06271747
     The local contribution  to forces
     atom    1 type  1   force =    -0.00000232   -0.00000134   -0.05828889
     atom    2 type  1   force =     0.00000000   -0.00000199   -0.05828544
     atom    3 type  2   force =     0.00000054    0.00000031    0.05696634
     atom    4 type  2   force =     0.00000000   -0.00000163    0.05696334
     atom    5 type  1   force =    -0.00000000    0.00000192   -0.05828745
     atom    6 type  1   force =     0.00000190    0.00000094   -0.05828784
     atom    7 type  2   force =    -0.00000000    0.00000432    0.05696572
     atom    8 type  2   force =    -0.00000115   -0.00000070    0.05696663
     atom    9 type  1   force =     0.00000166   -0.00000096   -0.05828745
     atom   10 type  1   force =    -0.00000172    0.00000099   -0.05828544
     atom   11 type  2   force =     0.00000373   -0.00000216    0.05696572
     atom   12 type  2   force =    -0.00000141    0.00000081    0.05696334
     atom   13 type  1   force =    -0.00000013    0.00000045   -0.05828767
     atom   14 type  1   force =     0.00000120    0.00000069   -0.05828664
     atom   15 type  2   force =    -0.00000004    0.00000116    0.05696505
     atom   16 type  2   force =     0.00000305    0.00000176    0.05696490
     atom   17 type  1   force =     0.00000020   -0.00000011   -0.05828767
     atom   18 type  1   force =    -0.00000164    0.00000094   -0.05828784
     atom   19 type  2   force =     0.00000095   -0.00000055    0.05696505
     atom   20 type  2   force =     0.00000122   -0.00000070    0.05696663
     atom   21 type  1   force =    -0.00000167   -0.00000096   -0.05828745
     atom   22 type  1   force =     0.00000013   -0.00000212   -0.05828784
     atom   23 type  2   force =    -0.00000374   -0.00000216    0.05696572
     atom   24 type  2   force =     0.00000004    0.00000135    0.05696663
     atom   25 type  1   force =     0.00000232   -0.00000134   -0.05828889
     atom   26 type  1   force =    -0.00000119    0.00000069   -0.05828664
     atom   27 type  2   force =    -0.00000054    0.00000031    0.05696634
     atom   28 type  2   force =    -0.00000304    0.00000176    0.05696490
     atom   29 type  1   force =    -0.00000046   -0.00000011   -0.05828767
     atom   30 type  1   force =     0.00000000   -0.00000138   -0.05828664
     atom   31 type  2   force =    -0.00000102   -0.00000055    0.05696505
     atom   32 type  2   force =     0.00000000   -0.00000352    0.05696490
     atom   33 type  1   force =    -0.00000000    0.00000268   -0.05828889
     atom   34 type  1   force =     0.00000172    0.00000099   -0.05828544
     atom   35 type  2   force =    -0.00000000   -0.00000062    0.05696634
     atom   36 type  2   force =     0.00000142    0.00000081    0.05696334
     The core correction contribution to forces
     atom    1 type  1   force =     0.00000001    0.00000001    0.00046412
     atom    2 type  1   force =     0.00000000   -0.00000003    0.00046397
     atom    3 type  2   force =     0.00000001    0.00000001   -0.00006501
     atom    4 type  2   force =     0.00000000    0.00000000   -0.00006504
     atom    5 type  1   force =    -0.00000000    0.00000006    0.00046411
     atom    6 type  1   force =     0.00000005    0.00000001    0.00046401
     atom    7 type  2   force =    -0.00000000   -0.00000000   -0.00006501
     atom    8 type  2   force =    -0.00000003   -0.00000002   -0.00006502
     atom    9 type  1   force =     0.00000005   -0.00000003    0.00046411
     atom   10 type  1   force =    -0.00000003    0.00000001    0.00046397
     atom   11 type  2   force =    -0.00000000    0.00000000   -0.00006501
     atom   12 type  2   force =     0.00000000   -0.00000000   -0.00006504
     atom   13 type  1   force =    -0.00000002    0.00000001    0.00046407
     atom   14 type  1   force =    -0.00000000   -0.00000000    0.00046403
     atom   15 type  2   force =     0.00000000    0.00000000   -0.00006502
     atom   16 type  2   force =     0.00000002    0.00000001   -0.00006501
     atom   17 type  1   force =    -0.00000002    0.00000001    0.00046407
     atom   18 type  1   force =    -0.00000001    0.00000001    0.00046401
     atom   19 type  2   force =     0.00000000   -0.00000000   -0.00006502
     atom   20 type  2   force =     0.00000003   -0.00000002   -0.00006502
     atom   21 type  1   force =    -0.00000005   -0.00000003    0.00046411
     atom   22 type  1   force =     0.00000002   -0.00000004    0.00046401
     atom   23 type  2   force =     0.00000000    0.00000000   -0.00006501
     atom   24 type  2   force =    -0.00000000    0.00000004   -0.00006502
     atom   25 type  1   force =    -0.00000001    0.00000001    0.00046412
     atom   26 type  1   force =     0.00000000   -0.00000000    0.00046403
     atom   27 type  2   force =    -0.00000001    0.00000001   -0.00006501
     atom   28 type  2   force =    -0.00000002    0.00000001   -0.00006501
     atom   29 type  1   force =    -0.00000002    0.00000001    0.00046407
     atom   30 type  1   force =     0.00000000    0.00000001    0.00046403
     atom   31 type  2   force =    -0.00000000   -0.00000000   -0.00006502
     atom   32 type  2   force =     0.00000000   -0.00000002   -0.00006501
     atom   33 type  1   force =    -0.00000000   -0.00000001    0.00046412
     atom   34 type  1   force =     0.00000003    0.00000001    0.00046397
     atom   35 type  2   force =    -0.00000000   -0.00000002   -0.00006501
     atom   36 type  2   force =    -0.00000000   -0.00000000   -0.00006504
     The Hubbard contrib.    to forces
     atom    1 type  1   force =     0.00000000    0.00000000    0.00000000
     atom    2 type  1   force =     0.00000000    0.00000000    0.00000000
     atom    3 type  2   force =     0.00000000    0.00000000    0.00000000
     atom    4 type  2   force =     0.00000000    0.00000000    0.00000000
     atom    5 type  1   force =     0.00000000    0.00000000    0.00000000
     atom    6 type  1   force =     0.00000000    0.00000000    0.00000000
     atom    7 type  2   force =     0.00000000    0.00000000    0.00000000
     atom    8 type  2   force =     0.00000000    0.00000000    0.00000000
     atom    9 type  1   force =     0.00000000    0.00000000    0.00000000
     atom   10 type  1   force =     0.00000000    0.00000000    0.00000000
     atom   11 type  2   force =     0.00000000    0.00000000    0.00000000
     atom   12 type  2   force =     0.00000000    0.00000000    0.00000000
     atom   13 type  1   force =     0.00000000    0.00000000    0.00000000
     atom   14 type  1   force =     0.00000000    0.00000000    0.00000000
     atom   15 type  2   force =     0.00000000    0.00000000    0.00000000
     atom   16 type  2   force =     0.00000000    0.00000000    0.00000000
     atom   17 type  1   force =     0.00000000    0.00000000    0.00000000
     atom   18 type  1   force =     0.00000000    0.00000000    0.00000000
     atom   19 type  2   force =     0.00000000    0.00000000    0.00000000
     atom   20 type  2   force =     0.00000000    0.00000000    0.00000000
     atom   21 type  1   force =     0.00000000    0.00000000    0.00000000
     atom   22 type  1   force =     0.00000000    0.00000000    0.00000000
     atom   23 type  2   force =     0.00000000    0.00000000    0.00000000
     atom   24 type  2   force =     0.00000000    0.00000000    0.00000000
     atom   25 type  1   force =     0.00000000    0.00000000    0.00000000
     atom   26 type  1   force =     0.00000000    0.00000000    0.00000000
     atom   27 type  2   force =     0.00000000    0.00000000    0.00000000
     atom   28 type  2   force =     0.00000000    0.00000000    0.00000000
     atom   29 type  1   force =     0.00000000    0.00000000    0.00000000
     atom   30 type  1   force =     0.00000000    0.00000000    0.00000000
     atom   31 type  2   force =     0.00000000    0.00000000    0.00000000
     atom   32 type  2   force =     0.00000000    0.00000000    0.00000000
     atom   33 type  1   force =     0.00000000    0.00000000    0.00000000
     atom   34 type  1   force =     0.00000000    0.00000000    0.00000000
     atom   35 type  2   force =     0.00000000    0.00000000    0.00000000
     atom   36 type  2   force =     0.00000000    0.00000000    0.00000000
     The SCF correction term to forces
     atom    1 type  1   force =    -0.00000112   -0.00000065    0.00000239
     atom    2 type  1   force =     0.00000000   -0.00000006   -0.00000539
     atom    3 type  2   force =    -0.00000013   -0.00000008   -0.00000024
     atom    4 type  2   force =     0.00000000    0.00000084    0.00000233
     atom    5 type  1   force =     0.00000000    0.00000150    0.00000000
     atom    6 type  1   force =     0.00000069    0.00000040   -0.00000218
     atom    7 type  2   force =    -0.00000000   -0.00000329    0.00000057
     atom    8 type  2   force =     0.00000058    0.00000033    0.00000019
     atom    9 type  1   force =     0.00000130   -0.00000075    0.00000000
     atom   10 type  1   force =    -0.00000005    0.00000003   -0.00000539
     atom   11 type  2   force =    -0.00000285    0.00000164    0.00000057
     atom   12 type  2   force =     0.00000073   -0.00000042    0.00000233
     atom   13 type  1   force =    -0.00000000   -0.00000375    0.00000135
     atom   14 type  1   force =    -0.00000324   -0.00000187   -0.00000561
     atom   15 type  2   force =    -0.00000000   -0.00000141    0.00000046
     atom   16 type  2   force =    -0.00000236   -0.00000137    0.00000173
     atom   17 type  1   force =    -0.00000325    0.00000187    0.00000135
     atom   18 type  1   force =    -0.00000069    0.00000040   -0.00000218
     atom   19 type  2   force =    -0.00000122    0.00000071    0.00000046
     atom   20 type  2   force =    -0.00000058    0.00000033    0.00000019
     atom   21 type  1   force =    -0.00000130   -0.00000075    0.00000000
     atom   22 type  1   force =     0.00000000   -0.00000080   -0.00000218
     atom   23 type  2   force =     0.00000285    0.00000164    0.00000057
     atom   24 type  2   force =     0.00000000   -0.00000067    0.00000019
     atom   25 type  1   force =     0.00000112   -0.00000065    0.00000239
     atom   26 type  1   force =     0.00000324   -0.00000187   -0.00000561
     atom   27 type  2   force =     0.00000013   -0.00000008   -0.00000024
     atom   28 type  2   force =     0.00000236   -0.00000137    0.00000173
     atom   29 type  1   force =     0.00000325    0.00000187    0.00000135
     atom   30 type  1   force =    -0.00000000    0.00000374   -0.00000561
     atom   31 type  2   force =     0.00000122    0.00000071    0.00000046
     atom   32 type  2   force =     0.00000000    0.00000273    0.00000173
     atom   33 type  1   force =    -0.00000000    0.00000130    0.00000239
     atom   34 type  1   force =     0.00000005    0.00000003   -0.00000539
     atom   35 type  2   force =    -0.00000000    0.00000015   -0.00000024
     atom   36 type  2   force =    -0.00000073   -0.00000042    0.00000233

     Total force =     0.000367     Total SCF correction =     0.000020

     init_run     :     13.70s CPU     12.90s WALL (       1 calls)
     electrons    :    610.42s CPU    454.84s WALL (       1 calls)
     forces       :      8.09s CPU      7.37s WALL (       1 calls)

     Called by init_run:
     wfcinit      :      3.90s CPU      2.97s WALL (       1 calls)
     wfcinit:atom :      0.02s CPU      0.04s WALL (       1 calls)
     wfcinit:wfcr :      3.74s CPU      2.77s WALL (       1 calls)
     potinit      :      3.52s CPU      3.60s WALL (       1 calls)
     hinit0       :      5.33s CPU      5.36s WALL (       1 calls)

     Called by electrons:
     c_bands      :    543.51s CPU    393.19s WALL (      36 calls)
     sum_band     :     46.24s CPU     40.31s WALL (      36 calls)
     v_of_rho     :     11.60s CPU     12.23s WALL (      37 calls)
     v_h          :      0.79s CPU      0.84s WALL (      37 calls)
     v_xc         :     11.11s CPU     11.70s WALL (      38 calls)
     newd         :      6.58s CPU      6.77s WALL (      37 calls)
     mix_rho      :      2.01s CPU      1.83s WALL (      36 calls)

     Called by c_bands:
     init_us_2    :      1.77s CPU      1.66s WALL (      73 calls)
     init_us_2:cp :      1.77s CPU      1.66s WALL (      73 calls)
     cegterg      :    507.85s CPU    358.60s WALL (      36 calls)

     Called by sum_band:
     sum_band:wei :      0.01s CPU      0.01s WALL (      36 calls)
     sum_band:loo :     36.02s CPU     30.68s WALL (      36 calls)
     sum_band:buf :      0.00s CPU      0.00s WALL (      36 calls)
     sum_band:ini :      0.80s CPU      0.78s WALL (      36 calls)
     sum_band:cal :     12.58s CPU      6.48s WALL (      36 calls)
     sum_band:bec :      0.07s CPU      0.06s WALL (      36 calls)
     addusdens    :      6.43s CPU      6.00s WALL (      36 calls)
                                        0.00s GPU  (      36 calls)
     addusd:skk   :      0.24s CPU      0.21s WALL (      72 calls)
                                        0.00s GPU  (      72 calls)

     Called by *egterg:
     cdiaghg      :     35.83s CPU     29.53s WALL (     216 calls)
     cegterg:over :     48.31s CPU     25.49s WALL (     180 calls)
     cegterg:upda :     31.48s CPU     16.78s WALL (     180 calls)
     cegterg:last :     77.40s CPU     41.21s WALL (     135 calls)
     cdiaghg:chol :      0.83s CPU      0.71s WALL (     216 calls)
     cdiaghg:inve :      0.50s CPU      0.34s WALL (     216 calls)
     cdiaghg:para :      5.19s CPU      3.63s WALL (     432 calls)
     h_psi        :    256.45s CPU    214.11s WALL (     217 calls)
     s_psi        :     50.04s CPU     25.73s WALL (     217 calls)
     g_psi        :      0.98s CPU      0.84s WALL (     180 calls)

     Called by h_psi:
     h_psi:calbec :     49.61s CPU     26.90s WALL (     217 calls)
     vloc_psi     :    155.62s CPU    159.67s WALL (     217 calls)
     add_vuspsi   :     50.18s CPU     25.99s WALL (     217 calls)

     General routines
     calbec       :     63.61s CPU     34.12s WALL (     257 calls)
     fft          :      8.30s CPU      8.85s WALL (     490 calls)
     ffts         :      0.64s CPU      0.62s WALL (      73 calls)
     fftw         :    144.50s CPU    148.25s WALL (   51380 calls)
     interpolate  :      0.96s CPU      1.04s WALL (      37 calls)

     Parallel routines

     PWSCF        :  10m34.21s CPU   7m57.12s WALL


   This run was terminated on:  22:36:25  30Jul2025            

=------------------------------------------------------------------------------=
   JOB DONE.
=------------------------------------------------------------------------------=
Note: The following floating-point exceptions are signalling: IEEE_INVALID_FLAG
Note: The following floating-point exceptions are signalling: IEEE_DENORMAL
Note: The following floating-point exceptions are signalling: IEEE_INVALID_FLAG
Note: The following floating-point exceptions are signalling: IEEE_INVALID_FLAG
Note: The following floating-point exceptions are signalling: IEEE_DENORMAL
Note: The following floating-point exceptions are signalling: IEEE_DENORMAL
Note: The following floating-point exceptions are signalling: IEEE_DENORMAL
Note: The following floating-point exceptions are signalling: IEEE_INVALID_FLAG
Note: The following floating-point exceptions are signalling: IEEE_INVALID_FLAG
Note: The following floating-point exceptions are signalling: IEEE_INVALID_FLAG
Note: The following floating-point exceptions are signalling: IEEE_DENORMAL
Note: The following floating-point exceptions are signalling: IEEE_DENORMAL
Note: The following floating-point exceptions are signalling: IEEE_INVALID_FLAG
Note: The following floating-point exceptions are signalling: IEEE_DENORMAL
Note: The following floating-point exceptions are signalling: IEEE_INVALID_FLAG
