
     Program PWSCF v.7.2 starts on 30Jul2025 at 17: 7:29 

     This program is part of the open-source Quantum ESPRESSO suite
     for quantum simulation of materials; please cite
         "P. Giannozzi et al., J. Phys.:Condens. Matter 21 395502 (2009);
         "P. Giannozzi et al., J. Phys.:Condens. Matter 29 465901 (2017);
         "P. Giannozzi et al., J. Chem. Phys. 152 154105 (2020);
          URL http://www.quantum-espresso.org", 
     in publications or presentations arising from this work. More details at
     http://www.quantum-espresso.org/quote

     Parallel version (MPI), running on    32 processors

     MPI processes distributed on     1 nodes
     125633 MiB available memory on the printing compute node when the environment starts

     Reading input from /home/jvc/QEspresso7.2/ZnO_database/scripts/cell331.in/ZnO-3.14-1.49-331.in
Warning: card &CELL ignored
Warning: card / ignored
Warning: card &FCP ignored
Warning: card / ignored
Warning: card &RISM ignored
Warning: card / ignored

     Current dimensions of program PWSCF are:
     Max number of different atomic species (ntypx) = 10
     Max number of k-points (npk) =  40000
     Max angular momentum in pseudopotentials (lmaxx) =  4
     file Zn.upf: wavefunction(s)  3D renormalized
     Found identity + ( -0.0000  0.3333  0.0000) symmetry
     This is a supercell, fractional translations are disabled
     Message from routine setup:
     using ibrav=0 with symmetry is DISCOURAGED, use correct ibrav instead

     K-points division:     npool     =       8
     R & G space division:  proc/nbgrp/npool/nimage =       4
     Subspace diagonalization in iterative solution of the eigenvalue problem:
     one sub-group per band group will be used
     custom distributed-memory algorithm (size of sub-group:  2*  2 procs)


     Parallelization info
     --------------------
     sticks:   dense  smooth     PW     G-vecs:    dense   smooth      PW
     Min        2366    1185    324               100203    35453    5149
     Max        2368    1186    327               100204    35454    5150
     Sum        9469    4741   1303               400815   141813   20597

     Using Slab Decomposition



     bravais-lattice index     =            0
     lattice parameter (alat)  =      18.5365  a.u.
     unit-cell volume          =    2968.1791 (a.u.)^3
     number of atoms/cell      =           36
     number of atomic types    =            2
     number of electrons       =       324.00
     number of Kohn-Sham states=          162
     kinetic-energy cutoff     =      50.0000  Ry
     charge density cutoff     =     400.0000  Ry
     scf convergence threshold =      1.0E-08
     mixing beta               =       0.3000
     number of iterations used =            8  plain     mixing
     Exchange-correlation= PBE
                           (   1   4   3   4   0   0   0)

     celldm(1)=  18.536466  celldm(2)=   0.000000  celldm(3)=   0.000000
     celldm(4)=   0.000000  celldm(5)=   0.000000  celldm(6)=   0.000000

     crystal axes: (cart. coord. in units of alat)
               a(1) = (   1.000000   0.000000   0.000000 )  
               a(2) = (  -0.500000   0.866025   0.000000 )  
               a(3) = (   0.000000   0.000000   0.538119 )  

     reciprocal axes: (cart. coord. in units 2 pi/alat)
               b(1) = (  1.000000  0.577350 -0.000000 )  
               b(2) = (  0.000000  1.154701  0.000000 )  
               b(3) = (  0.000000 -0.000000  1.858323 )  


     PseudoPot. # 1 for Zn read from file:
     /home/jvc/QEspresso7.2/ZnO_database/pseudos/Zn.upf
     MD5 check sum: 7f56cabf9682ed8c977c2f7d0c5985c5
     Pseudo is Ultrasoft + core correction, Zval = 12.0
     Generated using &quot;atomic&quot; code by A. Dal Corso  v.6.2.2
     Using radial grid of 1201 points,  6 beta functions with: 
                l(1) =   0
                l(2) =   0
                l(3) =   1
                l(4) =   1
                l(5) =   2
                l(6) =   2
     Q(r) pseudized with 0 coefficients 


     PseudoPot. # 2 for O  read from file:
     /home/jvc/QEspresso7.2/ZnO_database/pseudos/O.upf
     MD5 check sum: 91400c9766925bcf19f520983a725ff0
     Pseudo is Ultrasoft + core correction, Zval =  6.0
     Generated using &quot;atomic&quot; code by A. Dal Corso  v.6.3MaX
     Using radial grid of 1095 points,  4 beta functions with: 
                l(1) =   0
                l(2) =   0
                l(3) =   1
                l(4) =   1
     Q(r) pseudized with 0 coefficients 


     atomic species   valence    mass     pseudopotential
        Zn            12.00    65.38000     Zn( 1.00)
        O              6.00    15.99900     O ( 1.00)

      6 Sym. Ops. (no inversion) found


                                    s                        frac. trans.

      isym =  1     identity                                     

 cryst.   s( 1) = (     1          0          0      )
                  (     0          1          0      )
                  (     0          0          1      )

 cart.    s( 1) = (  1.0000000  0.0000000  0.0000000 )
                  (  0.0000000  1.0000000  0.0000000 )
                  (  0.0000000  0.0000000  1.0000000 )


      isym =  2     120 deg rotation - cryst. axis [0,0,1]       

 cryst.   s( 2) = (     0          1          0      )
                  (    -1         -1          0      )
                  (     0          0          1      )

 cart.    s( 2) = ( -0.5000000 -0.8660254  0.0000000 )
                  (  0.8660254 -0.5000000  0.0000000 )
                  (  0.0000000  0.0000000  1.0000000 )


      isym =  3     120 deg rotation - cryst. axis [0,0,-1]      

 cryst.   s( 3) = (    -1         -1          0      )
                  (     1          0          0      )
                  (     0          0          1      )

 cart.    s( 3) = ( -0.5000000  0.8660254  0.0000000 )
                  ( -0.8660254 -0.5000000  0.0000000 )
                  (  0.0000000  0.0000000  1.0000000 )


      isym =  4     inv. 180 deg rotation - cart. axis [1,0,0]   

 cryst.   s( 4) = (    -1          0          0      )
                  (     1          1          0      )
                  (     0          0          1      )

 cart.    s( 4) = ( -1.0000000  0.0000000  0.0000000 )
                  (  0.0000000  1.0000000  0.0000000 )
                  (  0.0000000  0.0000000  1.0000000 )


      isym =  5     inv. 180 deg rotation - cryst. axis [0,1,0]  

 cryst.   s( 5) = (     1          1          0      )
                  (     0         -1          0      )
                  (     0          0          1      )

 cart.    s( 5) = (  0.5000000  0.8660254  0.0000000 )
                  (  0.8660254 -0.5000000  0.0000000 )
                  (  0.0000000  0.0000000  1.0000000 )


      isym =  6     inv. 180 deg rotation - cryst. axis [1,1,0]  

 cryst.   s( 6) = (     0         -1          0      )
                  (    -1          0          0      )
                  (     0          0          1      )

 cart.    s( 6) = (  0.5000000 -0.8660254  0.0000000 )
                  ( -0.8660254 -0.5000000  0.0000000 )
                  (  0.0000000  0.0000000  1.0000000 )


   Cartesian axes

     site n.     atom                  positions (alat units)
         1           Zn  tau(   1) = (   0.1666667   0.0962250   0.2694007  )
         2           Zn  tau(   2) = (   0.0000000   0.1924501   0.0003409  )
         3           O   tau(   3) = (   0.1666667   0.0962250   0.4733710  )
         4           O   tau(   4) = (   0.0000000   0.1924501   0.2043113  )
         5           Zn  tau(   5) = (   0.0000000   0.3849002   0.2694007  )
         6           Zn  tau(   6) = (  -0.1666667   0.4811252   0.0003409  )
         7           O   tau(   7) = (   0.0000000   0.3849002   0.4733710  )
         8           O   tau(   8) = (  -0.1666667   0.4811252   0.2043113  )
         9           Zn  tau(   9) = (  -0.1666667   0.6735753   0.2694007  )
        10           Zn  tau(  10) = (  -0.3333333   0.7698004   0.0003409  )
        11           O   tau(  11) = (  -0.1666667   0.6735753   0.4733710  )
        12           O   tau(  12) = (  -0.3333333   0.7698004   0.2043113  )
        13           Zn  tau(  13) = (   0.5000000   0.0962250   0.2694007  )
        14           Zn  tau(  14) = (   0.3333333   0.1924501   0.0003409  )
        15           O   tau(  15) = (   0.5000000   0.0962250   0.4733710  )
        16           O   tau(  16) = (   0.3333333   0.1924501   0.2043113  )
        17           Zn  tau(  17) = (   0.3333333   0.3849002   0.2694007  )
        18           Zn  tau(  18) = (   0.1666667   0.4811252   0.0003409  )
        19           O   tau(  19) = (   0.3333333   0.3849002   0.4733710  )
        20           O   tau(  20) = (   0.1666667   0.4811252   0.2043113  )
        21           Zn  tau(  21) = (   0.1666667   0.6735753   0.2694007  )
        22           Zn  tau(  22) = (   0.0000000   0.7698004   0.0003409  )
        23           O   tau(  23) = (   0.1666667   0.6735753   0.4733710  )
        24           O   tau(  24) = (   0.0000000   0.7698004   0.2043113  )
        25           Zn  tau(  25) = (   0.8333333   0.0962250   0.2694007  )
        26           Zn  tau(  26) = (   0.6666667   0.1924501   0.0003409  )
        27           O   tau(  27) = (   0.8333333   0.0962250   0.4733710  )
        28           O   tau(  28) = (   0.6666667   0.1924501   0.2043113  )
        29           Zn  tau(  29) = (   0.6666667   0.3849002   0.2694007  )
        30           Zn  tau(  30) = (   0.5000000   0.4811252   0.0003409  )
        31           O   tau(  31) = (   0.6666667   0.3849002   0.4733710  )
        32           O   tau(  32) = (   0.5000000   0.4811252   0.2043113  )
        33           Zn  tau(  33) = (   0.5000000   0.6735753   0.2694007  )
        34           Zn  tau(  34) = (   0.3333333   0.7698004   0.0003409  )
        35           O   tau(  35) = (   0.5000000   0.6735753   0.4733710  )
        36           O   tau(  36) = (   0.3333333   0.7698004   0.2043113  )

   Crystallographic axes

     site n.     atom                  positions (cryst. coord.)
         1           Zn  tau(   1) = (  0.2222222  0.1111111  0.5006336  )
         2           Zn  tau(   2) = (  0.1111111  0.2222222  0.0006336  )
         3           O   tau(   3) = (  0.2222222  0.1111111  0.8796764  )
         4           O   tau(   4) = (  0.1111111  0.2222222  0.3796764  )
         5           Zn  tau(   5) = (  0.2222222  0.4444444  0.5006336  )
         6           Zn  tau(   6) = (  0.1111111  0.5555556  0.0006336  )
         7           O   tau(   7) = (  0.2222222  0.4444444  0.8796764  )
         8           O   tau(   8) = (  0.1111111  0.5555556  0.3796764  )
         9           Zn  tau(   9) = (  0.2222222  0.7777778  0.5006336  )
        10           Zn  tau(  10) = (  0.1111111  0.8888889  0.0006336  )
        11           O   tau(  11) = (  0.2222222  0.7777778  0.8796764  )
        12           O   tau(  12) = (  0.1111111  0.8888889  0.3796764  )
        13           Zn  tau(  13) = (  0.5555556  0.1111111  0.5006336  )
        14           Zn  tau(  14) = (  0.4444444  0.2222222  0.0006336  )
        15           O   tau(  15) = (  0.5555556  0.1111111  0.8796764  )
        16           O   tau(  16) = (  0.4444444  0.2222222  0.3796764  )
        17           Zn  tau(  17) = (  0.5555556  0.4444444  0.5006336  )
        18           Zn  tau(  18) = (  0.4444444  0.5555556  0.0006336  )
        19           O   tau(  19) = (  0.5555556  0.4444444  0.8796764  )
        20           O   tau(  20) = (  0.4444444  0.5555556  0.3796764  )
        21           Zn  tau(  21) = (  0.5555556  0.7777778  0.5006336  )
        22           Zn  tau(  22) = (  0.4444444  0.8888889  0.0006336  )
        23           O   tau(  23) = (  0.5555556  0.7777778  0.8796764  )
        24           O   tau(  24) = (  0.4444444  0.8888889  0.3796764  )
        25           Zn  tau(  25) = (  0.8888889  0.1111111  0.5006336  )
        26           Zn  tau(  26) = (  0.7777778  0.2222222  0.0006336  )
        27           O   tau(  27) = (  0.8888889  0.1111111  0.8796764  )
        28           O   tau(  28) = (  0.7777778  0.2222222  0.3796764  )
        29           Zn  tau(  29) = (  0.8888889  0.4444444  0.5006336  )
        30           Zn  tau(  30) = (  0.7777778  0.5555556  0.0006336  )
        31           O   tau(  31) = (  0.8888889  0.4444444  0.8796764  )
        32           O   tau(  32) = (  0.7777778  0.5555556  0.3796764  )
        33           Zn  tau(  33) = (  0.8888889  0.7777778  0.5006336  )
        34           Zn  tau(  34) = (  0.7777778  0.8888889  0.0006336  )
        35           O   tau(  35) = (  0.8888889  0.7777778  0.8796764  )
        36           O   tau(  36) = (  0.7777778  0.8888889  0.3796764  )

     number of k points=     8
                       cart. coord. in units 2pi/alat
        k(    1) = (   0.0000000   0.0000000   0.0000000), wk =   0.0833333
        k(    2) = (   0.0000000   0.0000000   0.3097206), wk =   0.1666667
        k(    3) = (   0.0000000   0.0000000   0.6194412), wk =   0.1666667
        k(    4) = (   0.0000000   0.0000000  -0.9291617), wk =   0.0833333
        k(    5) = (   0.0000000  -0.5773503   0.0000000), wk =   0.2500000
        k(    6) = (   0.0000000  -0.5773503   0.3097206), wk =   0.5000000
        k(    7) = (   0.0000000  -0.5773503   0.6194412), wk =   0.5000000
        k(    8) = (   0.0000000  -0.5773503  -0.9291617), wk =   0.2500000

                       cryst. coord.
        k(    1) = (   0.0000000   0.0000000   0.0000000), wk =   0.0833333
        k(    2) = (   0.0000000   0.0000000   0.1666667), wk =   0.1666667
        k(    3) = (   0.0000000   0.0000000   0.3333333), wk =   0.1666667
        k(    4) = (   0.0000000   0.0000000  -0.5000000), wk =   0.0833333
        k(    5) = (   0.0000000  -0.5000000   0.0000000), wk =   0.2500000
        k(    6) = (   0.0000000  -0.5000000   0.1666667), wk =   0.5000000
        k(    7) = (   0.0000000  -0.5000000   0.3333333), wk =   0.5000000
        k(    8) = (   0.0000000  -0.5000000  -0.5000000), wk =   0.2500000

     Dense  grid:   400815 G-vectors     FFT dimensions: ( 120, 120,  64)

     Smooth grid:   141813 G-vectors     FFT dimensions: (  90,  90,  45)

     Dynamical RAM for                 wfc:      10.95 MB

     Dynamical RAM for     wfc (w. buffer):      10.95 MB

     Dynamical RAM for           str. fact:       3.06 MB

     Dynamical RAM for           local pot:       0.00 MB

     Dynamical RAM for          nlocal pot:      31.64 MB

     Dynamical RAM for                qrad:       3.21 MB

     Dynamical RAM for          rho,v,vnew:       9.86 MB

     Dynamical RAM for               rhoin:       3.29 MB

     Dynamical RAM for            rho*nmix:      24.46 MB

     Dynamical RAM for           G-vectors:       6.00 MB

     Dynamical RAM for          h,s,v(r/c):       1.20 MB

     Dynamical RAM for          <psi|beta>:       1.16 MB

     Dynamical RAM for                 psi:      21.90 MB

     Dynamical RAM for                hpsi:      21.90 MB

     Dynamical RAM for                spsi:      21.90 MB

     Dynamical RAM for      wfcinit/wfcrot:      32.89 MB

     Dynamical RAM for           addusdens:      40.33 MB

     Dynamical RAM for          addusforce:      46.32 MB

     Estimated static dynamical RAM per process >      81.38 MB

     Estimated max dynamical RAM per process >     173.91 MB

     Estimated total dynamical RAM >       4.77 GB

     Check: negative core charge=   -0.000002

     Initial potential from superposition of free atoms

     starting charge     323.9329, renormalised to     324.0000
     Starting wfcs are  234 randomized atomic wfcs

     total cpu time spent up to now is       13.9 secs

     Self-consistent Calculation

     iteration #  1     ecut=    50.00 Ry     beta= 0.30
     Davidson diagonalization with overlap

---- Real-time Memory Report at c_bands before calling an iterative solver
           149 MiB given to the printing process from OS
             0 MiB allocation reported by mallinfo(arena+hblkhd)
        121120 MiB available memory on the node where the printing process lives
------------------
     ethr =  1.00E-02,  avg # of iterations =  2.0

     total cpu time spent up to now is       20.6 secs

     total energy              =   -3253.31595779 Ry
     estimated scf accuracy    <       6.22738029 Ry

     iteration #  2     ecut=    50.00 Ry     beta= 0.30
     Davidson diagonalization with overlap

---- Real-time Memory Report at c_bands before calling an iterative solver
           191 MiB given to the printing process from OS
             0 MiB allocation reported by mallinfo(arena+hblkhd)
        120549 MiB available memory on the node where the printing process lives
------------------
     ethr =  1.92E-03,  avg # of iterations =  2.0

     total cpu time spent up to now is       29.0 secs

     total energy              =   -3254.19696996 Ry
     estimated scf accuracy    <       0.80586473 Ry

     iteration #  3     ecut=    50.00 Ry     beta= 0.30
     Davidson diagonalization with overlap

---- Real-time Memory Report at c_bands before calling an iterative solver
           195 MiB given to the printing process from OS
             0 MiB allocation reported by mallinfo(arena+hblkhd)
        120516 MiB available memory on the node where the printing process lives
------------------
     ethr =  2.49E-04,  avg # of iterations =  7.1

     total cpu time spent up to now is       43.6 secs

     total energy              =   -3254.48306231 Ry
     estimated scf accuracy    <       0.54469613 Ry

     iteration #  4     ecut=    50.00 Ry     beta= 0.30
     Davidson diagonalization with overlap

---- Real-time Memory Report at c_bands before calling an iterative solver
           198 MiB given to the printing process from OS
             0 MiB allocation reported by mallinfo(arena+hblkhd)
        120776 MiB available memory on the node where the printing process lives
------------------
     ethr =  1.68E-04,  avg # of iterations =  9.0

     total cpu time spent up to now is       61.6 secs

     total energy              =   -3254.87628047 Ry
     estimated scf accuracy    <       2.34544869 Ry

     iteration #  5     ecut=    50.00 Ry     beta= 0.30
     Davidson diagonalization with overlap

---- Real-time Memory Report at c_bands before calling an iterative solver
           200 MiB given to the printing process from OS
             0 MiB allocation reported by mallinfo(arena+hblkhd)
        120843 MiB available memory on the node where the printing process lives
------------------
     ethr =  1.68E-04,  avg # of iterations =  2.0

     total cpu time spent up to now is       68.5 secs

     total energy              =   -3253.79288826 Ry
     estimated scf accuracy    <       1.37379207 Ry

     iteration #  6     ecut=    50.00 Ry     beta= 0.30
     Davidson diagonalization with overlap

---- Real-time Memory Report at c_bands before calling an iterative solver
           200 MiB given to the printing process from OS
             0 MiB allocation reported by mallinfo(arena+hblkhd)
        120869 MiB available memory on the node where the printing process lives
------------------
     ethr =  1.68E-04,  avg # of iterations = 12.1

     total cpu time spent up to now is       88.9 secs

     total energy              =   -3254.38657941 Ry
     estimated scf accuracy    <       5.10687405 Ry

     iteration #  7     ecut=    50.00 Ry     beta= 0.30
     Davidson diagonalization with overlap

---- Real-time Memory Report at c_bands before calling an iterative solver
           201 MiB given to the printing process from OS
             0 MiB allocation reported by mallinfo(arena+hblkhd)
        120926 MiB available memory on the node where the printing process lives
------------------
     ethr =  1.68E-04,  avg # of iterations =  7.0

     total cpu time spent up to now is      103.2 secs

     total energy              =   -3254.74979147 Ry
     estimated scf accuracy    <       0.55762700 Ry

     iteration #  8     ecut=    50.00 Ry     beta= 0.30
     Davidson diagonalization with overlap

---- Real-time Memory Report at c_bands before calling an iterative solver
           204 MiB given to the printing process from OS
             0 MiB allocation reported by mallinfo(arena+hblkhd)
        120925 MiB available memory on the node where the printing process lives
------------------
     ethr =  1.68E-04,  avg # of iterations =  1.2

     total cpu time spent up to now is      109.9 secs

     total energy              =   -3254.74452897 Ry
     estimated scf accuracy    <       0.36173709 Ry

     iteration #  9     ecut=    50.00 Ry     beta= 0.30
     Davidson diagonalization with overlap

---- Real-time Memory Report at c_bands before calling an iterative solver
           204 MiB given to the printing process from OS
             0 MiB allocation reported by mallinfo(arena+hblkhd)
        120786 MiB available memory on the node where the printing process lives
------------------
     ethr =  1.12E-04,  avg # of iterations =  1.5

     total cpu time spent up to now is      116.5 secs

     total energy              =   -3254.59533964 Ry
     estimated scf accuracy    <       0.29453425 Ry

     iteration # 10     ecut=    50.00 Ry     beta= 0.30
     Davidson diagonalization with overlap

---- Real-time Memory Report at c_bands before calling an iterative solver
           204 MiB given to the printing process from OS
             0 MiB allocation reported by mallinfo(arena+hblkhd)
        120865 MiB available memory on the node where the printing process lives
------------------
     ethr =  9.09E-05,  avg # of iterations =  6.4

     total cpu time spent up to now is      128.7 secs

     total energy              =   -3254.73445676 Ry
     estimated scf accuracy    <       0.06849478 Ry

     iteration # 11     ecut=    50.00 Ry     beta= 0.30
     Davidson diagonalization with overlap

---- Real-time Memory Report at c_bands before calling an iterative solver
           206 MiB given to the printing process from OS
             0 MiB allocation reported by mallinfo(arena+hblkhd)
        120945 MiB available memory on the node where the printing process lives
------------------
     ethr =  2.11E-05,  avg # of iterations =  2.5

     total cpu time spent up to now is      136.1 secs

     total energy              =   -3254.73605178 Ry
     estimated scf accuracy    <       0.04099433 Ry

     iteration # 12     ecut=    50.00 Ry     beta= 0.30
     Davidson diagonalization with overlap

---- Real-time Memory Report at c_bands before calling an iterative solver
           206 MiB given to the printing process from OS
             0 MiB allocation reported by mallinfo(arena+hblkhd)
        120798 MiB available memory on the node where the printing process lives
------------------
     ethr =  1.27E-05,  avg # of iterations =  1.4

     total cpu time spent up to now is      142.7 secs

     total energy              =   -3254.73490235 Ry
     estimated scf accuracy    <       0.03578932 Ry

     iteration # 13     ecut=    50.00 Ry     beta= 0.30
     Davidson diagonalization with overlap

---- Real-time Memory Report at c_bands before calling an iterative solver
           206 MiB given to the printing process from OS
             0 MiB allocation reported by mallinfo(arena+hblkhd)
        120741 MiB available memory on the node where the printing process lives
------------------
     ethr =  1.10E-05,  avg # of iterations =  1.1

     total cpu time spent up to now is      149.3 secs

     total energy              =   -3254.73853718 Ry
     estimated scf accuracy    <       0.02939163 Ry

     iteration # 14     ecut=    50.00 Ry     beta= 0.30
     Davidson diagonalization with overlap

---- Real-time Memory Report at c_bands before calling an iterative solver
           206 MiB given to the printing process from OS
             0 MiB allocation reported by mallinfo(arena+hblkhd)
        120765 MiB available memory on the node where the printing process lives
------------------
     ethr =  9.07E-06,  avg # of iterations =  1.5

     total cpu time spent up to now is      155.9 secs

     total energy              =   -3254.73981475 Ry
     estimated scf accuracy    <       0.03409525 Ry

     iteration # 15     ecut=    50.00 Ry     beta= 0.30
     Davidson diagonalization with overlap

---- Real-time Memory Report at c_bands before calling an iterative solver
           206 MiB given to the printing process from OS
             0 MiB allocation reported by mallinfo(arena+hblkhd)
        120697 MiB available memory on the node where the printing process lives
------------------
     ethr =  9.07E-06,  avg # of iterations =  1.0

     total cpu time spent up to now is      162.1 secs

     total energy              =   -3254.74890363 Ry
     estimated scf accuracy    <       0.03443832 Ry

     iteration # 16     ecut=    50.00 Ry     beta= 0.30
     Davidson diagonalization with overlap

---- Real-time Memory Report at c_bands before calling an iterative solver
           206 MiB given to the printing process from OS
             0 MiB allocation reported by mallinfo(arena+hblkhd)
        120717 MiB available memory on the node where the printing process lives
------------------
     ethr =  9.07E-06,  avg # of iterations =  1.4

     total cpu time spent up to now is      168.7 secs

     total energy              =   -3254.74080994 Ry
     estimated scf accuracy    <       0.05405087 Ry

     iteration # 17     ecut=    50.00 Ry     beta= 0.30
     Davidson diagonalization with overlap

---- Real-time Memory Report at c_bands before calling an iterative solver
           206 MiB given to the printing process from OS
             0 MiB allocation reported by mallinfo(arena+hblkhd)
        120774 MiB available memory on the node where the printing process lives
------------------
     ethr =  9.07E-06,  avg # of iterations =  1.0

     total cpu time spent up to now is      174.9 secs

     total energy              =   -3254.72129448 Ry
     estimated scf accuracy    <       0.03975131 Ry

     iteration # 18     ecut=    50.00 Ry     beta= 0.30
     Davidson diagonalization with overlap

---- Real-time Memory Report at c_bands before calling an iterative solver
           206 MiB given to the printing process from OS
             0 MiB allocation reported by mallinfo(arena+hblkhd)
        120639 MiB available memory on the node where the printing process lives
------------------
     ethr =  9.07E-06,  avg # of iterations =  5.8

     total cpu time spent up to now is      185.1 secs

     total energy              =   -3254.73044073 Ry
     estimated scf accuracy    <       0.00005912 Ry

     iteration # 19     ecut=    50.00 Ry     beta= 0.30
     Davidson diagonalization with overlap

---- Real-time Memory Report at c_bands before calling an iterative solver
           206 MiB given to the printing process from OS
             0 MiB allocation reported by mallinfo(arena+hblkhd)
        120878 MiB available memory on the node where the printing process lives
------------------
     ethr =  1.82E-08,  avg # of iterations = 18.8

     total cpu time spent up to now is      219.0 secs

     total energy              =   -3254.73049038 Ry
     estimated scf accuracy    <       0.02241930 Ry

     iteration # 20     ecut=    50.00 Ry     beta= 0.30
     Davidson diagonalization with overlap

---- Real-time Memory Report at c_bands before calling an iterative solver
           207 MiB given to the printing process from OS
             0 MiB allocation reported by mallinfo(arena+hblkhd)
        120935 MiB available memory on the node where the printing process lives
------------------
     ethr =  1.82E-08,  avg # of iterations = 17.8

     total cpu time spent up to now is      250.0 secs

     total energy              =   -3254.73155554 Ry
     estimated scf accuracy    <       0.00195250 Ry

     iteration # 21     ecut=    50.00 Ry     beta= 0.30
     Davidson diagonalization with overlap

---- Real-time Memory Report at c_bands before calling an iterative solver
           207 MiB given to the printing process from OS
             0 MiB allocation reported by mallinfo(arena+hblkhd)
        120982 MiB available memory on the node where the printing process lives
------------------
     ethr =  1.82E-08,  avg # of iterations = 14.2

     total cpu time spent up to now is      274.6 secs

     total energy              =   -3254.73217525 Ry
     estimated scf accuracy    <       0.00003293 Ry

     iteration # 22     ecut=    50.00 Ry     beta= 0.30
     Davidson diagonalization with overlap

---- Real-time Memory Report at c_bands before calling an iterative solver
           207 MiB given to the printing process from OS
             0 MiB allocation reported by mallinfo(arena+hblkhd)
        120981 MiB available memory on the node where the printing process lives
------------------
     ethr =  1.02E-08,  avg # of iterations = 13.9

     total cpu time spent up to now is      298.5 secs

     total energy              =   -3254.73189858 Ry
     estimated scf accuracy    <       0.00153090 Ry

     iteration # 23     ecut=    50.00 Ry     beta= 0.30
     Davidson diagonalization with overlap

---- Real-time Memory Report at c_bands before calling an iterative solver
           208 MiB given to the printing process from OS
             0 MiB allocation reported by mallinfo(arena+hblkhd)
        121012 MiB available memory on the node where the printing process lives
------------------
     ethr =  1.02E-08,  avg # of iterations = 10.8

     total cpu time spent up to now is      320.1 secs

     total energy              =   -3254.73202458 Ry
     estimated scf accuracy    <       0.00015787 Ry

     iteration # 24     ecut=    50.00 Ry     beta= 0.30
     Davidson diagonalization with overlap

---- Real-time Memory Report at c_bands before calling an iterative solver
           208 MiB given to the printing process from OS
             0 MiB allocation reported by mallinfo(arena+hblkhd)
        120989 MiB available memory on the node where the printing process lives
------------------
     ethr =  1.02E-08,  avg # of iterations =  2.0

     total cpu time spent up to now is      326.8 secs

     total energy              =   -3254.73203840 Ry
     estimated scf accuracy    <       0.00014962 Ry

     iteration # 25     ecut=    50.00 Ry     beta= 0.30
     Davidson diagonalization with overlap

---- Real-time Memory Report at c_bands before calling an iterative solver
           208 MiB given to the printing process from OS
             0 MiB allocation reported by mallinfo(arena+hblkhd)
        120899 MiB available memory on the node where the printing process lives
------------------
     ethr =  1.02E-08,  avg # of iterations =  1.0

     total cpu time spent up to now is      333.1 secs

     total energy              =   -3254.73201096 Ry
     estimated scf accuracy    <       0.00017378 Ry

     iteration # 26     ecut=    50.00 Ry     beta= 0.30
     Davidson diagonalization with overlap

---- Real-time Memory Report at c_bands before calling an iterative solver
           208 MiB given to the printing process from OS
             0 MiB allocation reported by mallinfo(arena+hblkhd)
        120820 MiB available memory on the node where the printing process lives
------------------
     ethr =  1.02E-08,  avg # of iterations =  1.4

     total cpu time spent up to now is      339.6 secs

     total energy              =   -3254.73196798 Ry
     estimated scf accuracy    <       0.00012324 Ry

     iteration # 27     ecut=    50.00 Ry     beta= 0.30
     Davidson diagonalization with overlap

---- Real-time Memory Report at c_bands before calling an iterative solver
           208 MiB given to the printing process from OS
             0 MiB allocation reported by mallinfo(arena+hblkhd)
        120898 MiB available memory on the node where the printing process lives
------------------
     ethr =  1.02E-08,  avg # of iterations =  7.5

     total cpu time spent up to now is      354.1 secs

     total energy              =   -3254.73198879 Ry
     estimated scf accuracy    <       0.00000193 Ry

     iteration # 28     ecut=    50.00 Ry     beta= 0.30
     Davidson diagonalization with overlap

---- Real-time Memory Report at c_bands before calling an iterative solver
           208 MiB given to the printing process from OS
             0 MiB allocation reported by mallinfo(arena+hblkhd)
        120964 MiB available memory on the node where the printing process lives
------------------
     ethr =  5.95E-10,  avg # of iterations = 12.4

     total cpu time spent up to now is      375.5 secs

     total energy              =   -3254.73199030 Ry
     estimated scf accuracy    <       0.00001888 Ry

     iteration # 29     ecut=    50.00 Ry     beta= 0.30
     Davidson diagonalization with overlap

---- Real-time Memory Report at c_bands before calling an iterative solver
           208 MiB given to the printing process from OS
             0 MiB allocation reported by mallinfo(arena+hblkhd)
        120949 MiB available memory on the node where the printing process lives
------------------
     ethr =  5.95E-10,  avg # of iterations =  7.1

     total cpu time spent up to now is      390.2 secs

     total energy              =   -3254.73198919 Ry
     estimated scf accuracy    <       0.00000308 Ry

     iteration # 30     ecut=    50.00 Ry     beta= 0.30
     Davidson diagonalization with overlap

---- Real-time Memory Report at c_bands before calling an iterative solver
           208 MiB given to the printing process from OS
             0 MiB allocation reported by mallinfo(arena+hblkhd)
        120971 MiB available memory on the node where the printing process lives
------------------
     ethr =  5.95E-10,  avg # of iterations = 11.0

     total cpu time spent up to now is      409.5 secs

     total energy              =   -3254.73199314 Ry
     estimated scf accuracy    <       0.00000766 Ry

     iteration # 31     ecut=    50.00 Ry     beta= 0.30
     Davidson diagonalization with overlap

---- Real-time Memory Report at c_bands before calling an iterative solver
           208 MiB given to the printing process from OS
             0 MiB allocation reported by mallinfo(arena+hblkhd)
        120984 MiB available memory on the node where the printing process lives
------------------
     ethr =  5.95E-10,  avg # of iterations =  2.0

     total cpu time spent up to now is      416.2 secs

     total energy              =   -3254.73199024 Ry
     estimated scf accuracy    <       0.00000765 Ry

     iteration # 32     ecut=    50.00 Ry     beta= 0.30
     Davidson diagonalization with overlap

---- Real-time Memory Report at c_bands before calling an iterative solver
           208 MiB given to the printing process from OS
             0 MiB allocation reported by mallinfo(arena+hblkhd)
        120760 MiB available memory on the node where the printing process lives
------------------
     ethr =  5.95E-10,  avg # of iterations =  5.1

     total cpu time spent up to now is      427.4 secs

     total energy              =   -3254.73199118 Ry
     estimated scf accuracy    <       0.00000049 Ry

     iteration # 33     ecut=    50.00 Ry     beta= 0.30
     Davidson diagonalization with overlap

---- Real-time Memory Report at c_bands before calling an iterative solver
           208 MiB given to the printing process from OS
             0 MiB allocation reported by mallinfo(arena+hblkhd)
        121033 MiB available memory on the node where the printing process lives
------------------
     ethr =  1.50E-10,  avg # of iterations =  4.0

     total cpu time spent up to now is      437.5 secs

     total energy              =   -3254.73199103 Ry
     estimated scf accuracy    <       0.00000048 Ry

     iteration # 34     ecut=    50.00 Ry     beta= 0.30
     Davidson diagonalization with overlap

---- Real-time Memory Report at c_bands before calling an iterative solver
           208 MiB given to the printing process from OS
             0 MiB allocation reported by mallinfo(arena+hblkhd)
        120997 MiB available memory on the node where the printing process lives
------------------
     ethr =  1.49E-10,  avg # of iterations =  4.5

     total cpu time spent up to now is      446.0 secs

     total energy              =   -3254.73199113 Ry
     estimated scf accuracy    <       0.00000009 Ry

     iteration # 35     ecut=    50.00 Ry     beta= 0.30
     Davidson diagonalization with overlap

---- Real-time Memory Report at c_bands before calling an iterative solver
           208 MiB given to the printing process from OS
             0 MiB allocation reported by mallinfo(arena+hblkhd)
        120964 MiB available memory on the node where the printing process lives
------------------
     ethr =  2.80E-11,  avg # of iterations =  4.9

     total cpu time spent up to now is      455.9 secs

     total energy              =   -3254.73199108 Ry
     estimated scf accuracy    <       0.00000011 Ry

     iteration # 36     ecut=    50.00 Ry     beta= 0.30
     Davidson diagonalization with overlap

---- Real-time Memory Report at c_bands before calling an iterative solver
           208 MiB given to the printing process from OS
             0 MiB allocation reported by mallinfo(arena+hblkhd)
        120989 MiB available memory on the node where the printing process lives
------------------
     ethr =  2.80E-11,  avg # of iterations =  7.1

     total cpu time spent up to now is      470.5 secs

     total energy              =   -3254.73199113 Ry
     estimated scf accuracy    <       0.00000003 Ry

     iteration # 37     ecut=    50.00 Ry     beta= 0.30
     Davidson diagonalization with overlap

---- Real-time Memory Report at c_bands before calling an iterative solver
           208 MiB given to the printing process from OS
             0 MiB allocation reported by mallinfo(arena+hblkhd)
        121006 MiB available memory on the node where the printing process lives
------------------
     ethr =  9.67E-12,  avg # of iterations =  2.8

     total cpu time spent up to now is      477.5 secs

     total energy              =   -3254.73199111 Ry
     estimated scf accuracy    <       0.00000002 Ry

     iteration # 38     ecut=    50.00 Ry     beta= 0.30
     Davidson diagonalization with overlap

---- Real-time Memory Report at c_bands before calling an iterative solver
           208 MiB given to the printing process from OS
             0 MiB allocation reported by mallinfo(arena+hblkhd)
        120963 MiB available memory on the node where the printing process lives
------------------
     ethr =  7.36E-12,  avg # of iterations =  5.8

     total cpu time spent up to now is      490.7 secs

     End of self-consistent calculation

          k = 0.0000 0.0000 0.0000 ( 17759 PWs)   bands (ev):

   -10.9986 -10.5471 -10.5471 -10.5471 -10.5471 -10.5471 -10.5471 -10.3183
   -10.1944 -10.1944 -10.1944 -10.1944 -10.1576 -10.1576 -10.1576 -10.1576
   -10.1576 -10.1576   1.0419   1.0419   1.0419   1.0419   1.0419   1.0419
     1.2800   1.2800   1.3159   1.3159   1.3565   1.3780   1.3780   1.3780
     1.3780   1.3780   1.3780   1.4392   1.5014   1.5014   1.5195   1.5195
     1.5195   1.5195   1.5195   1.5195   1.6688   1.6688   1.6688   1.6688
     1.7197   1.7197   1.7197   1.7197   1.7197   1.7197   1.9005   1.9005
     1.9005   1.9005   1.9005   1.9005   2.0258   2.0258   2.0312   2.0312
     2.0312   2.0312   2.0312   2.0312   2.2690   2.2690   2.2690   2.2690
     2.3484   2.3484   2.3484   2.3484   2.3484   2.3484   2.3628   2.3628
     2.4282   2.4282   2.4858   2.4858   2.4988   2.4988   2.4988   2.4988
     2.4988   2.4988   2.5316   2.5316   2.5316   2.5316   2.6249   2.6249
     2.6552   2.6552   2.6552   2.6552   2.6552   2.6552   2.8130   2.8130
     2.8130   2.8131   2.8131   2.8131   2.8918   3.0837   3.0837   3.0837
     3.0837   3.0837   3.0837   3.2410   3.2410   3.4119   3.4119   3.4119
     3.4119   3.7941   3.7941   3.7941   3.7941   3.7941   3.7941   4.6506
     4.6506   4.6506   4.6506   4.6506   4.6506   5.0282   5.0282   5.0282
     5.0282   5.0972   5.0972   5.0972   5.0972   5.0972   5.0972   5.2182
     5.2182   6.0930   6.0930   6.0930   6.0930   6.0930   6.0930   6.1250
     6.1250   6.3015   6.3015   6.3015   6.3015   6.3015   6.3015   6.8048
     6.8872   6.8872

     occupation numbers 
     1.0000   1.0000   1.0000   1.0000   1.0000   1.0000   1.0000   1.0000
     1.0000   1.0000   1.0000   1.0000   1.0000   1.0000   1.0000   1.0000
     1.0000   1.0000   1.0000   1.0000   1.0000   1.0000   1.0000   1.0000
     1.0000   1.0000   1.0000   1.0000   1.0000   1.0000   1.0000   1.0000
     1.0000   1.0000   1.0000   1.0000   1.0000   1.0000   1.0000   1.0000
     1.0000   1.0000   1.0000   1.0000   1.0000   1.0000   1.0000   1.0000
     1.0000   1.0000   1.0000   1.0000   1.0000   1.0000   1.0000   1.0000
     1.0000   1.0000   1.0000   1.0000   1.0000   1.0000   1.0000   1.0000
     1.0000   1.0000   1.0000   1.0000   1.0000   1.0000   1.0000   1.0000
     1.0000   1.0000   1.0000   1.0000   1.0000   1.0000   1.0000   1.0000
     1.0000   1.0000   1.0000   1.0000   1.0000   1.0000   1.0000   1.0000
     1.0000   1.0000   1.0000   1.0000   1.0000   1.0000   1.0000   1.0000
     1.0000   1.0000   1.0000   1.0000   1.0000   1.0000   1.0000   1.0000
     1.0000   1.0000   1.0000   1.0000   1.0000   1.0000   1.0000   1.0000
     1.0000   1.0000   1.0000   1.0000   1.0000   1.0000   1.0000   1.0000
     1.0000   1.0000   1.0000   1.0000   1.0000   1.0000   1.0000   1.0000
     1.0000   1.0000   1.0000   1.0000   1.0000   1.0000   1.0000   1.0000
     1.0000   1.0000   1.0000   1.0000   1.0000   1.0000   1.0000   1.0000
     1.0000   1.0000   1.0000   1.0000   1.0000   1.0000   1.0000   1.0000
     1.0000   1.0000   1.0000   1.0000   1.0000   1.0000   1.0000   1.0000
     1.0000   1.0000

          k = 0.0000 0.0000 0.3097 ( 17645 PWs)   bands (ev):

   -10.9552 -10.5202 -10.5202 -10.5202 -10.5202 -10.5202 -10.5202 -10.3662
   -10.1921 -10.1921 -10.1920 -10.1920 -10.1826 -10.1826 -10.1826 -10.1826
   -10.1826 -10.1826   1.0113   1.0113   1.0113   1.0113   1.0113   1.0113
     1.2878   1.2878   1.2878   1.2878   1.2878   1.2878   1.3081   1.3081
     1.3101   1.3168   1.3225   1.3225   1.4826   1.4826   1.5395   1.5395
     1.5395   1.5395   1.5395   1.5395   1.5787   1.5787   1.5787   1.5787
     1.6945   1.6945   1.6945   1.6945   1.6945   1.6945   1.8679   1.8679
     1.8679   1.8679   1.8679   1.8679   1.8969   1.8969   1.8969   1.8969
     1.8969   1.8969   1.9187   1.9187   2.1585   2.1585   2.1585   2.1585
     2.3794   2.3794   2.3853   2.3853   2.3853   2.3853   2.3853   2.3853
     2.4460   2.4460   2.4792   2.4792   2.5083   2.5083   2.5083   2.5083
     2.5083   2.5083   2.6172   2.6172   2.6425   2.6425   2.6425   2.6425
     2.6425   2.6425   2.6812   2.6812   2.6812   2.6812   2.7606   2.7606
     2.7606   2.7606   2.7606   2.7607   3.2007   3.3424   3.3424   3.3424
     3.3424   3.3424   3.3424   3.3685   3.3685   3.3685   3.3685   3.4090
     3.4090   3.9351   3.9351   3.9351   3.9351   3.9351   3.9351   4.6229
     4.6229   4.6229   4.6229   4.6229   4.6229   5.0892   5.0892   5.1855
     5.1855   5.1855   5.1855   5.1855   5.1855   5.1981   5.1981   5.1981
     5.1981   6.1084   6.1084   6.1084   6.1084   6.1084   6.1084   6.1771
     6.1771   6.2254   6.2254   6.2254   6.2254   6.2254   6.2254   6.2429
     6.8374   6.8374

     occupation numbers 
     1.0000   1.0000   1.0000   1.0000   1.0000   1.0000   1.0000   1.0000
     1.0000   1.0000   1.0000   1.0000   1.0000   1.0000   1.0000   1.0000
     1.0000   1.0000   1.0000   1.0000   1.0000   1.0000   1.0000   1.0000
     1.0000   1.0000   1.0000   1.0000   1.0000   1.0000   1.0000   1.0000
     1.0000   1.0000   1.0000   1.0000   1.0000   1.0000   1.0000   1.0000
     1.0000   1.0000   1.0000   1.0000   1.0000   1.0000   1.0000   1.0000
     1.0000   1.0000   1.0000   1.0000   1.0000   1.0000   1.0000   1.0000
     1.0000   1.0000   1.0000   1.0000   1.0000   1.0000   1.0000   1.0000
     1.0000   1.0000   1.0000   1.0000   1.0000   1.0000   1.0000   1.0000
     1.0000   1.0000   1.0000   1.0000   1.0000   1.0000   1.0000   1.0000
     1.0000   1.0000   1.0000   1.0000   1.0000   1.0000   1.0000   1.0000
     1.0000   1.0000   1.0000   1.0000   1.0000   1.0000   1.0000   1.0000
     1.0000   1.0000   1.0000   1.0000   1.0000   1.0000   1.0000   1.0000
     1.0000   1.0000   1.0000   1.0000   1.0000   1.0000   1.0000   1.0000
     1.0000   1.0000   1.0000   1.0000   1.0000   1.0000   1.0000   1.0000
     1.0000   1.0000   1.0000   1.0000   1.0000   1.0000   1.0000   1.0000
     1.0000   1.0000   1.0000   1.0000   1.0000   1.0000   1.0000   1.0000
     1.0000   1.0000   1.0000   1.0000   1.0000   1.0000   1.0000   1.0000
     1.0000   1.0000   1.0000   1.0000   1.0000   1.0000   1.0000   1.0000
     1.0000   1.0000   1.0000   1.0000   1.0000   1.0000   1.0000   1.0000
     1.0000   1.0000

          k = 0.0000 0.0000 0.6194 ( 17704 PWs)   bands (ev):

   -10.8353 -10.4953 -10.4472 -10.4472 -10.4472 -10.4472 -10.4472 -10.4472
   -10.2521 -10.2521 -10.2521 -10.2521 -10.2521 -10.2521 -10.1874 -10.1874
   -10.1873 -10.1873   0.9558   0.9558   0.9558   0.9558   0.9558   0.9558
     1.0906   1.0906   1.0906   1.0906   1.0906   1.0906   1.1614   1.2062
     1.3450   1.3450   1.3917   1.3917   1.4031   1.4031   1.4031   1.4031
     1.4366   1.4366   1.5967   1.5967   1.5967   1.5967   1.5967   1.5967
     1.6673   1.6673   1.6673   1.6673   1.6673   1.6673   1.7170   1.7170
     1.7583   1.7583   1.7583   1.7583   1.7583   1.7583   1.7846   1.7846
     1.7846   1.7846   1.7846   1.7846   2.0771   2.0771   2.0771   2.0771
     2.4065   2.4065   2.4608   2.4608   2.4787   2.4787   2.4787   2.4787
     2.4787   2.4787   2.4918   2.4918   2.5339   2.5339   2.5339   2.5339
     2.5339   2.5339   2.5918   2.5918   2.6097   2.6097   2.6097   2.6097
     2.6097   2.6097   2.6820   2.6820   2.6820   2.6820   2.6820   2.6820
     2.8530   2.8530   2.8530   2.8530   3.2872   3.2872   3.2872   3.2872
     3.6415   3.6415   3.6415   3.6415   3.6415   3.6415   3.8035   3.8035
     3.8753   4.0473   4.0473   4.0473   4.0473   4.0473   4.0473   4.7452
     4.7452   4.9083   4.9083   4.9083   4.9083   4.9083   4.9083   5.4184
     5.4184   5.4184   5.4184   5.4184   5.4185   5.4565   5.5233   5.5233
     5.5233   5.5233   5.9792   5.9792   5.9792   5.9792   5.9792   5.9792
     6.0153   6.0154   6.0154   6.0154   6.0154   6.0154   6.3188   6.3188
     6.7003   6.7003

     occupation numbers 
     1.0000   1.0000   1.0000   1.0000   1.0000   1.0000   1.0000   1.0000
     1.0000   1.0000   1.0000   1.0000   1.0000   1.0000   1.0000   1.0000
     1.0000   1.0000   1.0000   1.0000   1.0000   1.0000   1.0000   1.0000
     1.0000   1.0000   1.0000   1.0000   1.0000   1.0000   1.0000   1.0000
     1.0000   1.0000   1.0000   1.0000   1.0000   1.0000   1.0000   1.0000
     1.0000   1.0000   1.0000   1.0000   1.0000   1.0000   1.0000   1.0000
     1.0000   1.0000   1.0000   1.0000   1.0000   1.0000   1.0000   1.0000
     1.0000   1.0000   1.0000   1.0000   1.0000   1.0000   1.0000   1.0000
     1.0000   1.0000   1.0000   1.0000   1.0000   1.0000   1.0000   1.0000
     1.0000   1.0000   1.0000   1.0000   1.0000   1.0000   1.0000   1.0000
     1.0000   1.0000   1.0000   1.0000   1.0000   1.0000   1.0000   1.0000
     1.0000   1.0000   1.0000   1.0000   1.0000   1.0000   1.0000   1.0000
     1.0000   1.0000   1.0000   1.0000   1.0000   1.0000   1.0000   1.0000
     1.0000   1.0000   1.0000   1.0000   1.0000   1.0000   1.0000   1.0000
     1.0000   1.0000   1.0000   1.0000   1.0000   1.0000   1.0000   1.0000
     1.0000   1.0000   1.0000   1.0000   1.0000   1.0000   1.0000   1.0000
     1.0000   1.0000   1.0000   1.0000   1.0000   1.0000   1.0000   1.0000
     1.0000   1.0000   1.0000   1.0000   1.0000   1.0000   1.0000   1.0000
     1.0000   1.0000   1.0000   1.0000   1.0000   1.0000   1.0000   1.0000
     1.0000   1.0000   1.0000   1.0000   1.0000   1.0000   1.0000   1.0000
     1.0000   1.0000

          k = 0.0000 0.0000-0.9292 ( 17746 PWs)   bands (ev):

   -10.6676 -10.6675 -10.3488 -10.3488 -10.3488 -10.3488 -10.3488 -10.3488
   -10.3488 -10.3488 -10.3488 -10.3487 -10.3487 -10.3487 -10.1850 -10.1850
   -10.1850 -10.1850   0.9620   0.9620   0.9620   0.9620   0.9620   0.9620
     0.9620   0.9620   0.9620   0.9620   0.9620   0.9620   1.1297   1.1297
     1.3211   1.3211   1.3211   1.3211   1.3852   1.3852   1.3852   1.3852
     1.5305   1.5305   1.5305   1.5305   1.6841   1.6841   1.6841   1.6841
     1.6841   1.6841   1.6841   1.6841   1.6841   1.6841   1.6841   1.6841
     1.6874   1.6874   1.6874   1.6874   1.6874   1.6874   1.6874   1.6874
     1.6874   1.6874   1.6874   1.6874   2.0556   2.0556   2.0556   2.0556
     2.4346   2.4346   2.4346   2.4346   2.5469   2.5469   2.5469   2.5469
     2.5702   2.5702   2.5702   2.5702   2.5702   2.5702   2.5702   2.5702
     2.5702   2.5702   2.5702   2.5702   2.5851   2.5851   2.5851   2.5851
     2.5851   2.5851   2.5851   2.5851   2.5851   2.5851   2.5851   2.5851
     2.9255   2.9255   2.9255   2.9255   3.2429   3.2429   3.2429   3.2429
     3.8757   3.8757   3.8757   3.8757   3.8757   3.8757   3.8757   3.8757
     3.8757   3.8757   3.8757   3.8757   4.2826   4.2826   4.2827   4.2827
     4.6600   4.6600   5.5302   5.5302   5.5302   5.5302   5.5302   5.5302
     5.5302   5.5302   5.5302   5.5302   5.5302   5.5302   5.6817   5.6817
     5.6817   5.6817   5.7223   5.7223   5.7223   5.7223   5.7223   5.7223
     5.7223   5.7223   5.7223   5.7223   5.7223   5.7223   6.5107   6.5107
     6.5107   6.5107

     occupation numbers 
     1.0000   1.0000   1.0000   1.0000   1.0000   1.0000   1.0000   1.0000
     1.0000   1.0000   1.0000   1.0000   1.0000   1.0000   1.0000   1.0000
     1.0000   1.0000   1.0000   1.0000   1.0000   1.0000   1.0000   1.0000
     1.0000   1.0000   1.0000   1.0000   1.0000   1.0000   1.0000   1.0000
     1.0000   1.0000   1.0000   1.0000   1.0000   1.0000   1.0000   1.0000
     1.0000   1.0000   1.0000   1.0000   1.0000   1.0000   1.0000   1.0000
     1.0000   1.0000   1.0000   1.0000   1.0000   1.0000   1.0000   1.0000
     1.0000   1.0000   1.0000   1.0000   1.0000   1.0000   1.0000   1.0000
     1.0000   1.0000   1.0000   1.0000   1.0000   1.0000   1.0000   1.0000
     1.0000   1.0000   1.0000   1.0000   1.0000   1.0000   1.0000   1.0000
     1.0000   1.0000   1.0000   1.0000   1.0000   1.0000   1.0000   1.0000
     1.0000   1.0000   1.0000   1.0000   1.0000   1.0000   1.0000   1.0000
     1.0000   1.0000   1.0000   1.0000   1.0000   1.0000   1.0000   1.0000
     1.0000   1.0000   1.0000   1.0000   1.0000   1.0000   1.0000   1.0000
     1.0000   1.0000   1.0000   1.0000   1.0000   1.0000   1.0000   1.0000
     1.0000   1.0000   1.0000   1.0000   1.0000   1.0000   1.0000   1.0000
     1.0000   1.0000   1.0000   1.0000   1.0000   1.0000   1.0000   1.0000
     1.0000   1.0000   1.0000   1.0000   1.0000   1.0000   1.0000   1.0000
     1.0000   1.0000   1.0000   1.0000   1.0000   1.0000   1.0000   1.0000
     1.0000   1.0000   1.0000   1.0000   1.0000   1.0000   1.0000   1.0000
     1.0000   1.0000

          k = 0.0000-0.5774 0.0000 ( 17704 PWs)   bands (ev):

   -10.8595 -10.8594 -10.6323 -10.6323 -10.3568 -10.3568 -10.3568 -10.3568
   -10.3494 -10.2582 -10.2582 -10.1783 -10.1783 -10.1408 -10.1369 -10.1369
   -10.1368 -10.1368   1.1141   1.1448   1.1448   1.1787   1.1787   1.2098
     1.2098   1.2098   1.2098   1.3230   1.3347   1.3347   1.3939   1.3939
     1.4175   1.4175   1.4529   1.4529   1.4529   1.4529   1.4978   1.4978
     1.5272   1.5272   1.5609   1.5839   1.5839   1.5839   1.5839   1.5845
     1.5845   1.6182   1.6182   1.6647   1.6647   1.7926   1.7926   1.7926
     1.7926   1.8373   1.8373   1.9413   1.9538   1.9688   1.9688   2.0460
     2.0460   2.0460   2.0460   2.0753   2.1149   2.1149   2.1149   2.1149
     2.3226   2.3226   2.3719   2.3719   2.4055   2.4055   2.4055   2.4055
     2.4269   2.4269   2.4473   2.4473   2.4642   2.4731   2.4731   2.4731
     2.4731   2.5909   2.6359   2.6359   2.6485   2.6485   2.6706   2.6836
     2.6836   2.6836   2.6836   2.7418   2.7479   2.7479   2.8198   2.8198
     2.8614   2.8614   2.8732   2.8732   2.8732   2.8732   3.0203   3.0203
     3.0747   3.0747   3.0747   3.0747   3.2047   3.4268   3.6813   3.6813
     3.6813   3.6813   4.1030   4.1030   4.1030   4.1030   4.1405   4.4220
     4.4220   4.4220   4.4220   4.4226   4.4226   4.6353   4.6353   4.7139
     5.2256   5.2256   5.2289   5.2289   5.6134   5.6134   5.6134   5.6134
     5.6402   5.7793   5.7793   5.7884   5.7884   5.7975   5.7975   5.7975
     5.7975   6.0829   6.2536   6.2536   6.2863   6.2863   6.6255   6.6255
     6.7029   6.7029

     occupation numbers 
     1.0000   1.0000   1.0000   1.0000   1.0000   1.0000   1.0000   1.0000
     1.0000   1.0000   1.0000   1.0000   1.0000   1.0000   1.0000   1.0000
     1.0000   1.0000   1.0000   1.0000   1.0000   1.0000   1.0000   1.0000
     1.0000   1.0000   1.0000   1.0000   1.0000   1.0000   1.0000   1.0000
     1.0000   1.0000   1.0000   1.0000   1.0000   1.0000   1.0000   1.0000
     1.0000   1.0000   1.0000   1.0000   1.0000   1.0000   1.0000   1.0000
     1.0000   1.0000   1.0000   1.0000   1.0000   1.0000   1.0000   1.0000
     1.0000   1.0000   1.0000   1.0000   1.0000   1.0000   1.0000   1.0000
     1.0000   1.0000   1.0000   1.0000   1.0000   1.0000   1.0000   1.0000
     1.0000   1.0000   1.0000   1.0000   1.0000   1.0000   1.0000   1.0000
     1.0000   1.0000   1.0000   1.0000   1.0000   1.0000   1.0000   1.0000
     1.0000   1.0000   1.0000   1.0000   1.0000   1.0000   1.0000   1.0000
     1.0000   1.0000   1.0000   1.0000   1.0000   1.0000   1.0000   1.0000
     1.0000   1.0000   1.0000   1.0000   1.0000   1.0000   1.0000   1.0000
     1.0000   1.0000   1.0000   1.0000   1.0000   1.0000   1.0000   1.0000
     1.0000   1.0000   1.0000   1.0000   1.0000   1.0000   1.0000   1.0000
     1.0000   1.0000   1.0000   1.0000   1.0000   1.0000   1.0000   1.0000
     1.0000   1.0000   1.0000   1.0000   1.0000   1.0000   1.0000   1.0000
     1.0000   1.0000   1.0000   1.0000   1.0000   1.0000   1.0000   1.0000
     1.0000   1.0000   1.0000   1.0000   1.0000   1.0000   1.0000   1.0000
     1.0000   1.0000

          k = 0.0000-0.5774 0.3097 ( 17726 PWs)   bands (ev):

   -10.8204 -10.8204 -10.6017 -10.6017 -10.3403 -10.3403 -10.3403 -10.3403
   -10.3336 -10.2997 -10.2997 -10.2083 -10.2083 -10.1528 -10.1496 -10.1496
   -10.1496 -10.1496   1.0697   1.1086   1.1086   1.1496   1.1496   1.1780
     1.1780   1.1780   1.1780   1.2254   1.2850   1.2850   1.3367   1.3367
     1.3762   1.3762   1.3762   1.3762   1.4034   1.4035   1.4548   1.4548
     1.5188   1.5188   1.5573   1.5573   1.5636   1.5636   1.5636   1.5636
     1.5871   1.5904   1.5905   1.5968   1.5968   1.7730   1.7730   1.7730
     1.7730   1.8092   1.8092   1.8094   1.8094   1.9132   1.9195   1.9824
     1.9824   1.9824   1.9824   2.0290   2.0290   2.0290   2.0290   2.0308
     2.3643   2.3643   2.4014   2.4014   2.4172   2.4172   2.4172   2.4172
     2.4441   2.4441   2.4789   2.4789   2.5267   2.5393   2.5393   2.5393
     2.5393   2.5930   2.6256   2.6256   2.6364   2.6364   2.6574   2.6725
     2.6725   2.6804   2.6804   2.6804   2.6804   2.7411   2.7501   2.7501
     2.8696   2.8696   2.8697   2.8697   3.1154   3.1154   3.1154   3.1154
     3.1660   3.2560   3.2560   3.3752   3.3752   3.3761   3.6971   3.6971
     3.6971   3.6971   4.2091   4.2091   4.2091   4.2091   4.4236   4.5550
     4.5550   4.6100   4.6100   4.6167   4.6167   4.6167   4.6167   4.8200
     5.2327   5.2327   5.2750   5.2750   5.5971   5.5971   5.5972   5.5972
     5.6314   5.6314   5.7266   5.7985   5.7985   5.7985   5.7985   5.8519
     5.8519   5.9986   6.1731   6.1731   6.2738   6.2738   6.5471   6.5471
     6.6435   6.6435

     occupation numbers 
     1.0000   1.0000   1.0000   1.0000   1.0000   1.0000   1.0000   1.0000
     1.0000   1.0000   1.0000   1.0000   1.0000   1.0000   1.0000   1.0000
     1.0000   1.0000   1.0000   1.0000   1.0000   1.0000   1.0000   1.0000
     1.0000   1.0000   1.0000   1.0000   1.0000   1.0000   1.0000   1.0000
     1.0000   1.0000   1.0000   1.0000   1.0000   1.0000   1.0000   1.0000
     1.0000   1.0000   1.0000   1.0000   1.0000   1.0000   1.0000   1.0000
     1.0000   1.0000   1.0000   1.0000   1.0000   1.0000   1.0000   1.0000
     1.0000   1.0000   1.0000   1.0000   1.0000   1.0000   1.0000   1.0000
     1.0000   1.0000   1.0000   1.0000   1.0000   1.0000   1.0000   1.0000
     1.0000   1.0000   1.0000   1.0000   1.0000   1.0000   1.0000   1.0000
     1.0000   1.0000   1.0000   1.0000   1.0000   1.0000   1.0000   1.0000
     1.0000   1.0000   1.0000   1.0000   1.0000   1.0000   1.0000   1.0000
     1.0000   1.0000   1.0000   1.0000   1.0000   1.0000   1.0000   1.0000
     1.0000   1.0000   1.0000   1.0000   1.0000   1.0000   1.0000   1.0000
     1.0000   1.0000   1.0000   1.0000   1.0000   1.0000   1.0000   1.0000
     1.0000   1.0000   1.0000   1.0000   1.0000   1.0000   1.0000   1.0000
     1.0000   1.0000   1.0000   1.0000   1.0000   1.0000   1.0000   1.0000
     1.0000   1.0000   1.0000   1.0000   1.0000   1.0000   1.0000   1.0000
     1.0000   1.0000   1.0000   1.0000   1.0000   1.0000   1.0000   1.0000
     1.0000   1.0000   1.0000   1.0000   1.0000   1.0000   1.0000   1.0000
     1.0000   1.0000

          k = 0.0000-0.5774 0.6194 ( 17738 PWs)   bands (ev):

   -10.7129 -10.7129 -10.5180 -10.5180 -10.4122 -10.4122 -10.2963 -10.2963
   -10.2963 -10.2963 -10.2915 -10.2906 -10.2906 -10.1869 -10.1860 -10.1860
   -10.1860 -10.1860   0.9825   1.0367   1.0367   1.0470   1.0820   1.0820
     1.1038   1.1038   1.1038   1.1038   1.1267   1.1267   1.1443   1.1443
     1.1967   1.1967   1.1967   1.1967   1.4331   1.4331   1.4425   1.4425
     1.5169   1.5169   1.5220   1.5220   1.5381   1.5381   1.5437   1.5437
     1.5839   1.5839   1.5839   1.5839   1.6641   1.6853   1.6853   1.7338
     1.7338   1.7338   1.7338   1.7417   1.7417   1.8687   1.8803   1.8903
     1.8903   1.8904   1.8904   1.9133   1.9133   1.9133   1.9133   1.9178
     2.4609   2.4609   2.4695   2.4696   2.4884   2.4884   2.4958   2.4958
     2.4958   2.4958   2.5183   2.5183   2.5677   2.5677   2.5677   2.5677
     2.5935   2.5935   2.6003   2.6056   2.6056   2.6172   2.6172   2.6268
     2.6330   2.6725   2.6725   2.6913   2.6913   2.6913   2.6913   2.7318
     2.8116   2.8116   2.8116   2.8116   3.1456   3.2568   3.2568   3.2568
     3.2568   3.2753   3.5916   3.5916   3.5916   3.5916   3.8659   3.8659
     3.9342   3.9342   4.4657   4.4657   4.5349   4.5349   4.5349   4.5349
     4.9824   4.9824   5.0140   5.0816   5.0816   5.0816   5.0816   5.0926
     5.1229   5.1229   5.3663   5.3663   5.3813   5.3813   5.3813   5.3813
     5.5973   5.5973   5.7658   5.7926   5.8446   5.8446   5.8447   5.8447
     5.9569   5.9569   6.0233   6.0233   6.0903   6.0903   6.2836   6.2836
     6.4800   6.4800

     occupation numbers 
     1.0000   1.0000   1.0000   1.0000   1.0000   1.0000   1.0000   1.0000
     1.0000   1.0000   1.0000   1.0000   1.0000   1.0000   1.0000   1.0000
     1.0000   1.0000   1.0000   1.0000   1.0000   1.0000   1.0000   1.0000
     1.0000   1.0000   1.0000   1.0000   1.0000   1.0000   1.0000   1.0000
     1.0000   1.0000   1.0000   1.0000   1.0000   1.0000   1.0000   1.0000
     1.0000   1.0000   1.0000   1.0000   1.0000   1.0000   1.0000   1.0000
     1.0000   1.0000   1.0000   1.0000   1.0000   1.0000   1.0000   1.0000
     1.0000   1.0000   1.0000   1.0000   1.0000   1.0000   1.0000   1.0000
     1.0000   1.0000   1.0000   1.0000   1.0000   1.0000   1.0000   1.0000
     1.0000   1.0000   1.0000   1.0000   1.0000   1.0000   1.0000   1.0000
     1.0000   1.0000   1.0000   1.0000   1.0000   1.0000   1.0000   1.0000
     1.0000   1.0000   1.0000   1.0000   1.0000   1.0000   1.0000   1.0000
     1.0000   1.0000   1.0000   1.0000   1.0000   1.0000   1.0000   1.0000
     1.0000   1.0000   1.0000   1.0000   1.0000   1.0000   1.0000   1.0000
     1.0000   1.0000   1.0000   1.0000   1.0000   1.0000   1.0000   1.0000
     1.0000   1.0000   1.0000   1.0000   1.0000   1.0000   1.0000   1.0000
     1.0000   1.0000   1.0000   1.0000   1.0000   1.0000   1.0000   1.0000
     1.0000   1.0000   1.0000   1.0000   1.0000   1.0000   1.0000   1.0000
     1.0000   1.0000   1.0000   1.0000   1.0000   1.0000   1.0000   1.0000
     1.0000   1.0000   1.0000   1.0000   1.0000   1.0000   1.0000   1.0000
     1.0000   1.0000

          k = 0.0000-0.5774-0.9292 ( 17732 PWs)   bands (ev):

   -10.5638 -10.5638 -10.5638 -10.5638 -10.4040 -10.4040 -10.4039 -10.4039
   -10.2393 -10.2392 -10.2392 -10.2392 -10.2392 -10.2392 -10.2392 -10.2392
   -10.2373 -10.2373   0.9526   0.9526   1.0208   1.0208   1.0208   1.0208
     1.0549   1.0549   1.0549   1.0549   1.0856   1.0856   1.0856   1.0856
     1.0856   1.0856   1.0856   1.0856   1.4697   1.4697   1.4697   1.4697
     1.4827   1.4827   1.4827   1.4827   1.5328   1.5328   1.5328   1.5328
     1.6623   1.6623   1.6623   1.6623   1.6623   1.6623   1.6623   1.6623
     1.6781   1.6781   1.6781   1.6781   1.7820   1.7821   1.8586   1.8586
     1.8597   1.8597   1.8597   1.8597   1.8597   1.8597   1.8597   1.8597
     2.5440   2.5440   2.5440   2.5440   2.5485   2.5485   2.5485   2.5486
     2.5519   2.5519   2.5519   2.5519   2.5532   2.5532   2.5532   2.5532
     2.5532   2.5532   2.5532   2.5532   2.5835   2.5835   2.5835   2.5835
     2.6133   2.6133   2.6978   2.6978   2.7390   2.7390   2.7390   2.7390
     2.7390   2.7390   2.7390   2.7390   3.1878   3.1878   3.4275   3.4275
     3.4275   3.4275   3.4275   3.4275   3.4275   3.4275   4.2134   4.2134
     4.2135   4.2135   4.6007   4.6007   4.6007   4.6007   4.9298   4.9298
     4.9298   4.9298   4.9298   4.9298   4.9298   4.9298   5.4384   5.4384
     5.5300   5.5300   5.5300   5.5300   5.5538   5.5538   5.6422   5.6422
     5.6422   5.6422   5.6422   5.6422   5.6422   5.6422   5.7235   5.7235
     5.7236   5.7236   5.9119   5.9119   5.9119   5.9119   6.2536   6.2536
     6.2536   6.2536

     occupation numbers 
     1.0000   1.0000   1.0000   1.0000   1.0000   1.0000   1.0000   1.0000
     1.0000   1.0000   1.0000   1.0000   1.0000   1.0000   1.0000   1.0000
     1.0000   1.0000   1.0000   1.0000   1.0000   1.0000   1.0000   1.0000
     1.0000   1.0000   1.0000   1.0000   1.0000   1.0000   1.0000   1.0000
     1.0000   1.0000   1.0000   1.0000   1.0000   1.0000   1.0000   1.0000
     1.0000   1.0000   1.0000   1.0000   1.0000   1.0000   1.0000   1.0000
     1.0000   1.0000   1.0000   1.0000   1.0000   1.0000   1.0000   1.0000
     1.0000   1.0000   1.0000   1.0000   1.0000   1.0000   1.0000   1.0000
     1.0000   1.0000   1.0000   1.0000   1.0000   1.0000   1.0000   1.0000
     1.0000   1.0000   1.0000   1.0000   1.0000   1.0000   1.0000   1.0000
     1.0000   1.0000   1.0000   1.0000   1.0000   1.0000   1.0000   1.0000
     1.0000   1.0000   1.0000   1.0000   1.0000   1.0000   1.0000   1.0000
     1.0000   1.0000   1.0000   1.0000   1.0000   1.0000   1.0000   1.0000
     1.0000   1.0000   1.0000   1.0000   1.0000   1.0000   1.0000   1.0000
     1.0000   1.0000   1.0000   1.0000   1.0000   1.0000   1.0000   1.0000
     1.0000   1.0000   1.0000   1.0000   1.0000   1.0000   1.0000   1.0000
     1.0000   1.0000   1.0000   1.0000   1.0000   1.0000   1.0000   1.0000
     1.0000   1.0000   1.0000   1.0000   1.0000   1.0000   1.0000   1.0000
     1.0000   1.0000   1.0000   1.0000   1.0000   1.0000   1.0000   1.0000
     1.0000   1.0000   1.0000   1.0000   1.0000   1.0000   1.0000   1.0000
     1.0000   1.0000

     highest occupied level (ev):     6.8872

!    total energy              =   -3254.73199112 Ry
     estimated scf accuracy    <          9.2E-09 Ry

     The total energy is the sum of the following terms:
     one-electron contribution =   -1390.72697609 Ry
     hartree contribution      =    1064.60261715 Ry
     xc contribution           =    -985.91504430 Ry
     ewald contribution        =   -1942.69258788 Ry

     convergence has been achieved in  38 iterations

     Forces acting on atoms (cartesian axes, Ry/au):

     atom    1 type  1   force =    -0.00000283   -0.00000164    0.00006566
     atom    2 type  1   force =     0.00000000   -0.00000461    0.00005834
     atom    3 type  2   force =    -0.00000012   -0.00000007   -0.00006151
     atom    4 type  2   force =    -0.00000000   -0.00000012   -0.00006145
     atom    5 type  1   force =     0.00000000    0.00000360    0.00006214
     atom    6 type  1   force =     0.00000090    0.00000052    0.00005963
     atom    7 type  2   force =     0.00000000    0.00000040   -0.00006148
     atom    8 type  2   force =    -0.00000003   -0.00000002   -0.00006112
     atom    9 type  1   force =     0.00000311   -0.00000180    0.00006214
     atom   10 type  1   force =    -0.00000399    0.00000231    0.00005834
     atom   11 type  2   force =     0.00000034   -0.00000020   -0.00006148
     atom   12 type  2   force =    -0.00000010    0.00000006   -0.00006145
     atom   13 type  1   force =     0.00000000   -0.00000307    0.00006530
     atom   14 type  1   force =    -0.00000220   -0.00000127    0.00005733
     atom   15 type  2   force =     0.00000000    0.00000012   -0.00006149
     atom   16 type  2   force =     0.00000026    0.00000015   -0.00006134
     atom   17 type  1   force =    -0.00000265    0.00000153    0.00006530
     atom   18 type  1   force =    -0.00000090    0.00000052    0.00005963
     atom   19 type  2   force =     0.00000011   -0.00000006   -0.00006149
     atom   20 type  2   force =     0.00000003   -0.00000002   -0.00006112
     atom   21 type  1   force =    -0.00000311   -0.00000180    0.00006214
     atom   22 type  1   force =     0.00000000   -0.00000104    0.00005963
     atom   23 type  2   force =    -0.00000034   -0.00000020   -0.00006148
     atom   24 type  2   force =     0.00000000    0.00000004   -0.00006112
     atom   25 type  1   force =     0.00000283   -0.00000164    0.00006566
     atom   26 type  1   force =     0.00000220   -0.00000127    0.00005733
     atom   27 type  2   force =     0.00000012   -0.00000007   -0.00006151
     atom   28 type  2   force =    -0.00000026    0.00000015   -0.00006134
     atom   29 type  1   force =     0.00000265    0.00000153    0.00006530
     atom   30 type  1   force =     0.00000000    0.00000254    0.00005733
     atom   31 type  2   force =    -0.00000011   -0.00000006   -0.00006149
     atom   32 type  2   force =    -0.00000000   -0.00000030   -0.00006134
     atom   33 type  1   force =     0.00000000    0.00000327    0.00006566
     atom   34 type  1   force =     0.00000399    0.00000231    0.00005834
     atom   35 type  2   force =     0.00000000    0.00000014   -0.00006151
     atom   36 type  2   force =     0.00000010    0.00000006   -0.00006145
     The non-local contrib.  to forces
     atom    1 type  1   force =    -0.00000111   -0.00000064   -0.00483168
     atom    2 type  1   force =     0.00000000   -0.00000185   -0.00483458
     atom    3 type  2   force =     0.00000082    0.00000047    0.00575357
     atom    4 type  2   force =     0.00000000    0.00000042    0.00575455
     atom    5 type  1   force =    -0.00000000    0.00000155   -0.00483274
     atom    6 type  1   force =     0.00000045    0.00000026   -0.00483352
     atom    7 type  2   force =     0.00000000    0.00000017    0.00575378
     atom    8 type  2   force =    -0.00000088   -0.00000051    0.00575450
     atom    9 type  1   force =     0.00000134   -0.00000077   -0.00483274
     atom   10 type  1   force =    -0.00000160    0.00000092   -0.00483458
     atom   11 type  2   force =     0.00000015   -0.00000009    0.00575378
     atom   12 type  2   force =     0.00000037   -0.00000021    0.00575455
     atom   13 type  1   force =    -0.00000000   -0.00000162   -0.00483146
     atom   14 type  1   force =    -0.00000122   -0.00000071   -0.00483443
     atom   15 type  2   force =     0.00000000    0.00000037    0.00575377
     atom   16 type  2   force =     0.00000057    0.00000033    0.00575449
     atom   17 type  1   force =    -0.00000140    0.00000081   -0.00483146
     atom   18 type  1   force =    -0.00000045    0.00000026   -0.00483352
     atom   19 type  2   force =     0.00000032   -0.00000018    0.00575377
     atom   20 type  2   force =     0.00000088   -0.00000051    0.00575450
     atom   21 type  1   force =    -0.00000134   -0.00000077   -0.00483274
     atom   22 type  1   force =    -0.00000000   -0.00000051   -0.00483352
     atom   23 type  2   force =    -0.00000015   -0.00000009    0.00575378
     atom   24 type  2   force =     0.00000000    0.00000101    0.00575450
     atom   25 type  1   force =     0.00000111   -0.00000064   -0.00483168
     atom   26 type  1   force =     0.00000122   -0.00000071   -0.00483443
     atom   27 type  2   force =    -0.00000082    0.00000047    0.00575357
     atom   28 type  2   force =    -0.00000057    0.00000033    0.00575449
     atom   29 type  1   force =     0.00000140    0.00000081   -0.00483146
     atom   30 type  1   force =    -0.00000000    0.00000141   -0.00483443
     atom   31 type  2   force =    -0.00000032   -0.00000018    0.00575377
     atom   32 type  2   force =     0.00000000   -0.00000066    0.00575449
     atom   33 type  1   force =     0.00000000    0.00000128   -0.00483168
     atom   34 type  1   force =     0.00000160    0.00000092   -0.00483458
     atom   35 type  2   force =     0.00000000   -0.00000094    0.00575357
     atom   36 type  2   force =    -0.00000037   -0.00000021    0.00575455
     The ionic contribution  to forces
     atom    1 type  1   force =     0.00000001    0.00000001    0.06271747
     atom    2 type  1   force =     0.00000000    0.00000002    0.06271747
     atom    3 type  2   force =     0.00000001    0.00000000   -0.06271747
     atom    4 type  2   force =    -0.00000000    0.00000001   -0.06271747
     atom    5 type  1   force =     0.00000001    0.00000001    0.06271747
     atom    6 type  1   force =     0.00000001   -0.00000000    0.06271747
     atom    7 type  2   force =     0.00000000    0.00000000   -0.06271747
     atom    8 type  2   force =     0.00000001    0.00000000   -0.06271747
     atom    9 type  1   force =     0.00000001   -0.00000001    0.06271747
     atom   10 type  1   force =     0.00000000   -0.00000000    0.06271747
     atom   11 type  2   force =     0.00000001   -0.00000000   -0.06271747
     atom   12 type  2   force =    -0.00000000    0.00000000   -0.06271747
     atom   13 type  1   force =    -0.00000001    0.00000001    0.06271747
     atom   14 type  1   force =     0.00000001    0.00000001    0.06271747
     atom   15 type  2   force =    -0.00000000    0.00000001   -0.06271747
     atom   16 type  2   force =     0.00000000    0.00000000   -0.06271747
     atom   17 type  1   force =    -0.00000001    0.00000001    0.06271747
     atom   18 type  1   force =     0.00000001   -0.00000001    0.06271747
     atom   19 type  2   force =    -0.00000001    0.00000001   -0.06271747
     atom   20 type  2   force =     0.00000001   -0.00000001   -0.06271747
     atom   21 type  1   force =    -0.00000001   -0.00000001    0.06271747
     atom   22 type  1   force =     0.00000001   -0.00000001    0.06271747
     atom   23 type  2   force =    -0.00000000   -0.00000000   -0.06271747
     atom   24 type  2   force =     0.00000000   -0.00000001   -0.06271747
     atom   25 type  1   force =    -0.00000000    0.00000000    0.06271747
     atom   26 type  1   force =    -0.00000001    0.00000001    0.06271747
     atom   27 type  2   force =     0.00000000   -0.00000000   -0.06271747
     atom   28 type  2   force =    -0.00000001    0.00000000   -0.06271747
     atom   29 type  1   force =    -0.00000001    0.00000000    0.06271747
     atom   30 type  1   force =    -0.00000001   -0.00000001    0.06271747
     atom   31 type  2   force =    -0.00000001   -0.00000000   -0.06271747
     atom   32 type  2   force =    -0.00000000   -0.00000000   -0.06271747
     atom   33 type  1   force =    -0.00000000   -0.00000002    0.06271747
     atom   34 type  1   force =    -0.00000001   -0.00000001    0.06271747
     atom   35 type  2   force =     0.00000000   -0.00000001   -0.06271747
     atom   36 type  2   force =    -0.00000001   -0.00000000   -0.06271747
     The local contribution  to forces
     atom    1 type  1   force =     0.00000382    0.00000221   -0.05829518
     atom    2 type  1   force =     0.00000000    0.00000630   -0.05828280
     atom    3 type  2   force =     0.00000099    0.00000058    0.05696635
     atom    4 type  2   force =     0.00000000    0.00000096    0.05696445
     atom    5 type  1   force =    -0.00000000   -0.00000449   -0.05828965
     atom    6 type  1   force =    -0.00000071   -0.00000056   -0.05828657
     atom    7 type  2   force =    -0.00000000   -0.00000083    0.05696631
     atom    8 type  2   force =    -0.00000092   -0.00000057    0.05696427
     atom    9 type  1   force =    -0.00000389    0.00000225   -0.05828965
     atom   10 type  1   force =     0.00000546   -0.00000315   -0.05828280
     atom   11 type  2   force =    -0.00000072    0.00000042    0.05696631
     atom   12 type  2   force =     0.00000084   -0.00000048    0.05696445
     atom   13 type  1   force =    -0.00000013    0.00000558   -0.05829415
     atom   14 type  1   force =     0.00000395    0.00000228   -0.05828174
     atom   15 type  2   force =    -0.00000004    0.00000102    0.05696716
     atom   16 type  2   force =     0.00000073    0.00000042    0.05696383
     atom   17 type  1   force =     0.00000464   -0.00000268   -0.05829415
     atom   18 type  1   force =     0.00000097   -0.00000056   -0.05828657
     atom   19 type  2   force =     0.00000083   -0.00000048    0.05696716
     atom   20 type  2   force =     0.00000099   -0.00000057    0.05696427
     atom   21 type  1   force =     0.00000389    0.00000225   -0.05828965
     atom   22 type  1   force =     0.00000013    0.00000089   -0.05828657
     atom   23 type  2   force =     0.00000072    0.00000042    0.05696631
     atom   24 type  2   force =     0.00000004    0.00000108    0.05696427
     atom   25 type  1   force =    -0.00000382    0.00000221   -0.05829518
     atom   26 type  1   force =    -0.00000394    0.00000228   -0.05828174
     atom   27 type  2   force =    -0.00000100    0.00000058    0.05696635
     atom   28 type  2   force =    -0.00000072    0.00000042    0.05696383
     atom   29 type  1   force =    -0.00000490   -0.00000268   -0.05829415
     atom   30 type  1   force =     0.00000000   -0.00000456   -0.05828174
     atom   31 type  2   force =    -0.00000090   -0.00000048    0.05696716
     atom   32 type  2   force =     0.00000000   -0.00000084    0.05696383
     atom   33 type  1   force =    -0.00000000   -0.00000441   -0.05829518
     atom   34 type  1   force =    -0.00000546   -0.00000315   -0.05828280
     atom   35 type  2   force =    -0.00000000   -0.00000115    0.05696635
     atom   36 type  2   force =    -0.00000083   -0.00000048    0.05696445
     The core correction contribution to forces
     atom    1 type  1   force =    -0.00000006   -0.00000003    0.00046420
     atom    2 type  1   force =     0.00000000   -0.00000009    0.00046388
     atom    3 type  2   force =    -0.00000001   -0.00000001   -0.00006502
     atom    4 type  2   force =     0.00000000   -0.00000001   -0.00006503
     atom    5 type  1   force =    -0.00000000    0.00000003    0.00046404
     atom    6 type  1   force =     0.00000001   -0.00000002    0.00046399
     atom    7 type  2   force =    -0.00000000   -0.00000000   -0.00006502
     atom    8 type  2   force =     0.00000001    0.00000001   -0.00006503
     atom    9 type  1   force =     0.00000002   -0.00000001    0.00046404
     atom   10 type  1   force =    -0.00000008    0.00000005    0.00046388
     atom   11 type  2   force =    -0.00000000    0.00000000   -0.00006502
     atom   12 type  2   force =    -0.00000000    0.00000000   -0.00006503
     atom   13 type  1   force =    -0.00000002   -0.00000010    0.00046411
     atom   14 type  1   force =    -0.00000007   -0.00000004    0.00046382
     atom   15 type  2   force =     0.00000000   -0.00000000   -0.00006502
     atom   16 type  2   force =    -0.00000001   -0.00000000   -0.00006504
     atom   17 type  1   force =    -0.00000011    0.00000006    0.00046411
     atom   18 type  1   force =     0.00000003   -0.00000002    0.00046399
     atom   19 type  2   force =    -0.00000000    0.00000000   -0.00006502
     atom   20 type  2   force =    -0.00000001    0.00000001   -0.00006503
     atom   21 type  1   force =    -0.00000002   -0.00000001    0.00046404
     atom   22 type  1   force =     0.00000002    0.00000000    0.00046399
     atom   23 type  2   force =     0.00000000    0.00000000   -0.00006502
     atom   24 type  2   force =    -0.00000000   -0.00000001   -0.00006503
     atom   25 type  1   force =     0.00000006   -0.00000003    0.00046420
     atom   26 type  1   force =     0.00000007   -0.00000004    0.00046382
     atom   27 type  2   force =     0.00000001   -0.00000001   -0.00006502
     atom   28 type  2   force =     0.00000001   -0.00000000   -0.00006504
     atom   29 type  1   force =     0.00000008    0.00000006    0.00046411
     atom   30 type  1   force =     0.00000000    0.00000008    0.00046382
     atom   31 type  2   force =     0.00000000    0.00000000   -0.00006502
     atom   32 type  2   force =     0.00000000    0.00000001   -0.00006504
     atom   33 type  1   force =    -0.00000000    0.00000006    0.00046420
     atom   34 type  1   force =     0.00000008    0.00000005    0.00046388
     atom   35 type  2   force =    -0.00000000    0.00000001   -0.00006502
     atom   36 type  2   force =     0.00000000    0.00000000   -0.00006503
     The Hubbard contrib.    to forces
     atom    1 type  1   force =     0.00000000    0.00000000    0.00000000
     atom    2 type  1   force =     0.00000000    0.00000000    0.00000000
     atom    3 type  2   force =     0.00000000    0.00000000    0.00000000
     atom    4 type  2   force =     0.00000000    0.00000000    0.00000000
     atom    5 type  1   force =     0.00000000    0.00000000    0.00000000
     atom    6 type  1   force =     0.00000000    0.00000000    0.00000000
     atom    7 type  2   force =     0.00000000    0.00000000    0.00000000
     atom    8 type  2   force =     0.00000000    0.00000000    0.00000000
     atom    9 type  1   force =     0.00000000    0.00000000    0.00000000
     atom   10 type  1   force =     0.00000000    0.00000000    0.00000000
     atom   11 type  2   force =     0.00000000    0.00000000    0.00000000
     atom   12 type  2   force =     0.00000000    0.00000000    0.00000000
     atom   13 type  1   force =     0.00000000    0.00000000    0.00000000
     atom   14 type  1   force =     0.00000000    0.00000000    0.00000000
     atom   15 type  2   force =     0.00000000    0.00000000    0.00000000
     atom   16 type  2   force =     0.00000000    0.00000000    0.00000000
     atom   17 type  1   force =     0.00000000    0.00000000    0.00000000
     atom   18 type  1   force =     0.00000000    0.00000000    0.00000000
     atom   19 type  2   force =     0.00000000    0.00000000    0.00000000
     atom   20 type  2   force =     0.00000000    0.00000000    0.00000000
     atom   21 type  1   force =     0.00000000    0.00000000    0.00000000
     atom   22 type  1   force =     0.00000000    0.00000000    0.00000000
     atom   23 type  2   force =     0.00000000    0.00000000    0.00000000
     atom   24 type  2   force =     0.00000000    0.00000000    0.00000000
     atom   25 type  1   force =     0.00000000    0.00000000    0.00000000
     atom   26 type  1   force =     0.00000000    0.00000000    0.00000000
     atom   27 type  2   force =     0.00000000    0.00000000    0.00000000
     atom   28 type  2   force =     0.00000000    0.00000000    0.00000000
     atom   29 type  1   force =     0.00000000    0.00000000    0.00000000
     atom   30 type  1   force =     0.00000000    0.00000000    0.00000000
     atom   31 type  2   force =     0.00000000    0.00000000    0.00000000
     atom   32 type  2   force =     0.00000000    0.00000000    0.00000000
     atom   33 type  1   force =     0.00000000    0.00000000    0.00000000
     atom   34 type  1   force =     0.00000000    0.00000000    0.00000000
     atom   35 type  2   force =     0.00000000    0.00000000    0.00000000
     atom   36 type  2   force =     0.00000000    0.00000000    0.00000000
     The SCF correction term to forces
     atom    1 type  1   force =    -0.00000550   -0.00000318    0.00000952
     atom    2 type  1   force =    -0.00000000   -0.00000899   -0.00000696
     atom    3 type  2   force =    -0.00000193   -0.00000111   -0.00000027
     atom    4 type  2   force =    -0.00000000   -0.00000151    0.00000073
     atom    5 type  1   force =     0.00000000    0.00000650    0.00000168
     atom    6 type  1   force =     0.00000131    0.00000076   -0.00000306
     atom    7 type  2   force =     0.00000000    0.00000105   -0.00000041
     atom    8 type  2   force =     0.00000179    0.00000103    0.00000127
     atom    9 type  1   force =     0.00000563   -0.00000325    0.00000168
     atom   10 type  1   force =    -0.00000779    0.00000450   -0.00000696
     atom   11 type  2   force =     0.00000091   -0.00000052   -0.00000041
     atom   12 type  2   force =    -0.00000130    0.00000075    0.00000073
     atom   13 type  1   force =     0.00000000   -0.00000684    0.00000799
     atom   14 type  1   force =    -0.00000487   -0.00000281   -0.00000913
     atom   15 type  2   force =     0.00000000   -0.00000124   -0.00000126
     atom   16 type  2   force =    -0.00000103   -0.00000060    0.00000152
     atom   17 type  1   force =    -0.00000593    0.00000342    0.00000799
     atom   18 type  1   force =    -0.00000131    0.00000076   -0.00000306
     atom   19 type  2   force =    -0.00000107    0.00000062   -0.00000126
     atom   20 type  2   force =    -0.00000179    0.00000103    0.00000127
     atom   21 type  1   force =    -0.00000563   -0.00000325    0.00000168
     atom   22 type  1   force =    -0.00000000   -0.00000151   -0.00000306
     atom   23 type  2   force =    -0.00000091   -0.00000052   -0.00000041
     atom   24 type  2   force =    -0.00000000   -0.00000207    0.00000127
     atom   25 type  1   force =     0.00000550   -0.00000318    0.00000952
     atom   26 type  1   force =     0.00000487   -0.00000281   -0.00000913
     atom   27 type  2   force =     0.00000193   -0.00000111   -0.00000027
     atom   28 type  2   force =     0.00000103   -0.00000060    0.00000152
     atom   29 type  1   force =     0.00000593    0.00000342    0.00000799
     atom   30 type  1   force =    -0.00000000    0.00000562   -0.00000913
     atom   31 type  2   force =     0.00000107    0.00000062   -0.00000126
     atom   32 type  2   force =     0.00000000    0.00000119    0.00000152
     atom   33 type  1   force =     0.00000000    0.00000635    0.00000952
     atom   34 type  1   force =     0.00000779    0.00000450   -0.00000696
     atom   35 type  2   force =     0.00000000    0.00000223   -0.00000027
     atom   36 type  2   force =     0.00000130    0.00000075    0.00000073

     Total force =     0.000369     Total SCF correction =     0.000041
     SCF correction compared to forces is large: reduce conv_thr to get better values

     init_run     :     14.28s CPU     13.49s WALL (       1 calls)
     electrons    :    647.22s CPU    476.84s WALL (       1 calls)
     forces       :      8.15s CPU      7.48s WALL (       1 calls)

     Called by init_run:
     wfcinit      :      3.89s CPU      2.97s WALL (       1 calls)
     wfcinit:atom :      0.02s CPU      0.04s WALL (       1 calls)
     wfcinit:wfcr :      3.73s CPU      2.77s WALL (       1 calls)
     potinit      :      5.42s CPU      5.51s WALL (       1 calls)
     hinit0       :      4.23s CPU      4.26s WALL (       1 calls)

     Called by electrons:
     c_bands      :    576.54s CPU    412.04s WALL (      38 calls)
     sum_band     :     48.01s CPU     41.74s WALL (      38 calls)
     v_of_rho     :     12.18s CPU     12.85s WALL (      39 calls)
     v_h          :      0.85s CPU      0.90s WALL (      39 calls)
     v_xc         :     11.63s CPU     12.29s WALL (      40 calls)
     newd         :      7.61s CPU      7.48s WALL (      39 calls)
     mix_rho      :      2.14s CPU      1.97s WALL (      38 calls)

     Called by c_bands:
     init_us_2    :      1.89s CPU      1.75s WALL (      77 calls)
     init_us_2:cp :      1.89s CPU      1.75s WALL (      77 calls)
     cegterg      :    538.90s CPU    375.38s WALL (      38 calls)

     Called by sum_band:
     sum_band:wei :      0.01s CPU      0.01s WALL (      38 calls)
     sum_band:loo :     38.19s CPU     32.53s WALL (      38 calls)
     sum_band:buf :      0.00s CPU      0.00s WALL (      38 calls)
     sum_band:ini :      0.87s CPU      0.83s WALL (      38 calls)
     sum_band:cal :     13.28s CPU      6.80s WALL (      38 calls)
     sum_band:bec :      0.06s CPU      0.06s WALL (      38 calls)
     addusdens    :      6.95s CPU      6.32s WALL (      38 calls)
                                        0.00s GPU  (      38 calls)
     addusd:skk   :      0.26s CPU      0.22s WALL (      76 calls)
                                        0.00s GPU  (      76 calls)

     Called by *egterg:
     cdiaghg      :     37.27s CPU     30.59s WALL (     225 calls)
     cegterg:over :     52.03s CPU     27.48s WALL (     187 calls)
     cegterg:upda :     33.90s CPU     17.71s WALL (     187 calls)
     cegterg:last :     82.98s CPU     42.89s WALL (     142 calls)
     cdiaghg:chol :      0.85s CPU      0.72s WALL (     225 calls)
     cdiaghg:inve :      0.48s CPU      0.34s WALL (     225 calls)
     cdiaghg:para :      5.47s CPU      3.71s WALL (     450 calls)
     h_psi        :    270.77s CPU    223.71s WALL (     226 calls)
     s_psi        :     52.73s CPU     26.54s WALL (     226 calls)
     g_psi        :      1.02s CPU      0.87s WALL (     187 calls)

     Called by h_psi:
     h_psi:calbec :     53.16s CPU     27.61s WALL (     226 calls)
     vloc_psi     :    163.90s CPU    168.00s WALL (     226 calls)
     add_vuspsi   :     52.71s CPU     26.55s WALL (     226 calls)

     General routines
     calbec       :     67.86s CPU     35.14s WALL (     268 calls)
     fft          :      7.91s CPU      8.50s WALL (     516 calls)
     ffts         :      0.64s CPU      0.65s WALL (      77 calls)
     fftw         :    152.86s CPU    156.90s WALL (   53770 calls)
     interpolate  :      1.02s CPU      1.10s WALL (      39 calls)

     Parallel routines

     PWSCF        :  11m10.90s CPU   8m19.09s WALL


   This run was terminated on:  17:15:48  30Jul2025            

=------------------------------------------------------------------------------=
   JOB DONE.
=------------------------------------------------------------------------------=
Note: The following floating-point exceptions are signalling: IEEE_INVALID_FLAG
Note: The following floating-point exceptions are signalling: IEEE_INVALID_FLAG
Note: The following floating-point exceptions are signalling: IEEE_DENORMAL
Note: The following floating-point exceptions are signalling: IEEE_DENORMAL
Note: The following floating-point exceptions are signalling: IEEE_INVALID_FLAG
Note: The following floating-point exceptions are signalling: IEEE_DENORMAL
Note: The following floating-point exceptions are signalling: IEEE_DENORMAL
Note: The following floating-point exceptions are signalling: IEEE_INVALID_FLAG
Note: The following floating-point exceptions are signalling: IEEE_DENORMAL
Note: The following floating-point exceptions are signalling: IEEE_DENORMAL
Note: The following floating-point exceptions are signalling: IEEE_DENORMAL
Note: The following floating-point exceptions are signalling: IEEE_INVALID_FLAG
Note: The following floating-point exceptions are signalling: IEEE_INVALID_FLAG
Note: The following floating-point exceptions are signalling: IEEE_INVALID_FLAG
Note: The following floating-point exceptions are signalling: IEEE_INVALID_FLAG
