     Program PWSCF v.7.2 starts on  5Jun2025 at 15: 3: 3 

     This program is part of the open-source Quantum ESPRESSO suite
     for quantum simulation of materials; please cite
         "P. Giannozzi et al., J. Phys.:Condens. Matter 21 395502 (2009);
         "P. Giannozzi et al., J. Phys.:Condens. Matter 29 465901 (2017);
         "P. Giannozzi et al., J. Chem. Phys. 152 154105 (2020);
          URL http://www.quantum-espresso.org", 
     in publications or presentations arising from this work. More details at
     http://www.quantum-espresso.org/quote

     Parallel version (MPI), running on     8 processors

     MPI processes distributed on     1 nodes
     123229 MiB available memory on the printing compute node when the environment starts

     Reading input from vc-relax2.in

     Current dimensions of program PWSCF are:
     Max number of different atomic species (ntypx) = 10
     Max number of k-points (npk) =  40000
     Max angular momentum in pseudopotentials (lmaxx) =  4
     file Zn.upf: wavefunction(s)  3D renormalized

     R & G space division:  proc/nbgrp/npool/nimage =       8
     Subspace diagonalization in iterative solution of the eigenvalue problem:
     a serial algorithm will be used


     Parallelization info
     --------------------
     sticks:   dense  smooth     PW     G-vecs:    dense   smooth      PW
     Min         129      63     20                 5407     1905     324
     Max         130      64     21                 5412     1912     327
     Sum        1039     511    163                43281    15267    2599

     Using Slab Decomposition



     bravais-lattice index     =            4
     lattice parameter (alat)  =       6.1227  a.u.
     unit-cell volume          =     320.2489 (a.u.)^3
     number of atoms/cell      =            4
     number of atomic types    =            2
     number of electrons       =        36.00
     number of Kohn-Sham states=           36
     kinetic-energy cutoff     =      50.0000  Ry
     charge density cutoff     =     400.0000  Ry
     scf convergence threshold =      1.0E-09
     mixing beta               =       0.1000
     number of iterations used =            8  local-TF  mixing
     energy convergence thresh.=      1.0E-06
     force convergence thresh. =      1.0E-05
     press convergence thresh. =      5.0E-01
     Exchange-correlation= PBE
                           (   1   4   3   4   0   0   0)
     nstep                     =          450


     celldm(1)=   6.122712  celldm(2)=   0.000000  celldm(3)=   1.611111
     celldm(4)=   0.000000  celldm(5)=   0.000000  celldm(6)=   0.000000

     crystal axes: (cart. coord. in units of alat)
               a(1) = (   1.000000   0.000000   0.000000 )  
               a(2) = (  -0.500000   0.866025   0.000000 )  
               a(3) = (   0.000000   0.000000   1.611111 )  

     reciprocal axes: (cart. coord. in units 2 pi/alat)
               b(1) = (  1.000000  0.577350 -0.000000 )  
               b(2) = (  0.000000  1.154701  0.000000 )  
               b(3) = (  0.000000 -0.000000  0.620690 )  


     PseudoPot. # 1 for Zn read from file:
     ../pseudos/Zn.upf
     MD5 check sum: 7f56cabf9682ed8c977c2f7d0c5985c5
     Pseudo is Ultrasoft + core correction, Zval = 12.0
     Generated using &quot;atomic&quot; code by A. Dal Corso  v.6.2.2
     Using radial grid of 1201 points,  6 beta functions with: 
                l(1) =   0
                l(2) =   0
                l(3) =   1
                l(4) =   1
                l(5) =   2
                l(6) =   2
     Q(r) pseudized with 0 coefficients 


     PseudoPot. # 2 for O  read from file:
     ../pseudos/O.upf
     MD5 check sum: 91400c9766925bcf19f520983a725ff0
     Pseudo is Ultrasoft + core correction, Zval =  6.0
     Generated using &quot;atomic&quot; code by A. Dal Corso  v.6.3MaX
     Using radial grid of 1095 points,  4 beta functions with: 
                l(1) =   0
                l(2) =   0
                l(3) =   1
                l(4) =   1
     Q(r) pseudized with 0 coefficients 


     atomic species   valence    mass     pseudopotential
        Zn            12.00    63.38000     Zn( 1.00)
        O              6.00    15.99900     O ( 1.00)

     12 Sym. Ops. (no inversion) found ( 6 have fractional translation)


                                    s                        frac. trans.

      isym =  1     identity                                     

 cryst.   s( 1) = (     1          0          0      )
                  (     0          1          0      )
                  (     0          0          1      )

 cart.    s( 1) = (  1.0000000  0.0000000  0.0000000 )
                  (  0.0000000  1.0000000  0.0000000 )
                  (  0.0000000  0.0000000  1.0000000 )


      isym =  2     180 deg rotation - cart. axis [0,0,1]        

 cryst.   s( 2) = (    -1          0          0      )    f =(  0.0000000 )
                  (     0         -1          0      )       (  0.0000000 )
                  (     0          0          1      )       (  0.5000000 )

 cart.    s( 2) = ( -1.0000000  0.0000000  0.0000000 )    f =(  0.0000000 )
                  (  0.0000000 -1.0000000  0.0000000 )       (  0.0000000 )
                  (  0.0000000  0.0000000  1.0000000 )       (  0.8055556 )


      isym =  3      60 deg rotation - cryst. axis [0,0,1]       

 cryst.   s( 3) = (     1          1          0      )    f =(  0.0000000 )
                  (    -1          0          0      )       (  0.0000000 )
                  (     0          0          1      )       (  0.5000000 )

 cart.    s( 3) = (  0.5000000 -0.8660254  0.0000000 )    f =(  0.0000000 )
                  (  0.8660254  0.5000000  0.0000000 )       (  0.0000000 )
                  (  0.0000000  0.0000000  1.0000000 )       (  0.8055556 )


      isym =  4      60 deg rotation - cryst. axis [0,0,-1]      

 cryst.   s( 4) = (     0         -1          0      )    f =(  0.0000000 )
                  (     1          1          0      )       (  0.0000000 )
                  (     0          0          1      )       (  0.5000000 )

 cart.    s( 4) = (  0.5000000  0.8660254  0.0000000 )    f =( -0.0000000 )
                  ( -0.8660254  0.5000000  0.0000000 )       (  0.0000000 )
                  (  0.0000000  0.0000000  1.0000000 )       (  0.8055556 )


      isym =  5     120 deg rotation - cryst. axis [0,0,1]       

 cryst.   s( 5) = (     0          1          0      )
                  (    -1         -1          0      )
                  (     0          0          1      )

 cart.    s( 5) = ( -0.5000000 -0.8660254  0.0000000 )
                  (  0.8660254 -0.5000000  0.0000000 )
                  (  0.0000000  0.0000000  1.0000000 )


      isym =  6     120 deg rotation - cryst. axis [0,0,-1]      

 cryst.   s( 6) = (    -1         -1          0      )
                  (     1          0          0      )
                  (     0          0          1      )

 cart.    s( 6) = ( -0.5000000  0.8660254  0.0000000 )
                  ( -0.8660254 -0.5000000  0.0000000 )
                  (  0.0000000  0.0000000  1.0000000 )


      isym =  7     inv. 180 deg rotation - cart. axis [0,1,0]   

 cryst.   s( 7) = (     1          0          0      )    f =(  0.0000000 )
                  (    -1         -1          0      )       (  0.0000000 )
                  (     0          0          1      )       (  0.5000000 )

 cart.    s( 7) = (  1.0000000  0.0000000  0.0000000 )    f =(  0.0000000 )
                  (  0.0000000 -1.0000000  0.0000000 )       (  0.0000000 )
                  (  0.0000000  0.0000000  1.0000000 )       (  0.8055556 )


      isym =  8     inv. 180 deg rotation - cart. axis [1,0,0]   

 cryst.   s( 8) = (    -1          0          0      )
                  (     1          1          0      )
                  (     0          0          1      )

 cart.    s( 8) = ( -1.0000000  0.0000000  0.0000000 )
                  (  0.0000000  1.0000000  0.0000000 )
                  (  0.0000000  0.0000000  1.0000000 )


      isym =  9     inv. 180 deg rotation - cryst. axis [1,-1,0] 

 cryst.   s( 9) = (     0          1          0      )    f =(  0.0000000 )
                  (     1          0          0      )       (  0.0000000 )
                  (     0          0          1      )       (  0.5000000 )

 cart.    s( 9) = ( -0.5000000  0.8660254  0.0000000 )    f =(  0.0000000 )
                  (  0.8660254  0.5000000  0.0000000 )       (  0.0000000 )
                  (  0.0000000  0.0000000  1.0000000 )       (  0.8055556 )


      isym = 10     inv. 180 deg rotation - cryst. axis [2,1,0]  

 cryst.   s(10) = (    -1         -1          0      )    f =(  0.0000000 )
                  (     0          1          0      )       (  0.0000000 )
                  (     0          0          1      )       (  0.5000000 )

 cart.    s(10) = ( -0.5000000 -0.8660254  0.0000000 )    f =(  0.0000000 )
                  ( -0.8660254  0.5000000  0.0000000 )       (  0.0000000 )
                  (  0.0000000  0.0000000  1.0000000 )       (  0.8055556 )


      isym = 11     inv. 180 deg rotation - cryst. axis [0,1,0]  

 cryst.   s(11) = (     1          1          0      )
                  (     0         -1          0      )
                  (     0          0          1      )

 cart.    s(11) = (  0.5000000  0.8660254  0.0000000 )
                  (  0.8660254 -0.5000000  0.0000000 )
                  (  0.0000000  0.0000000  1.0000000 )


      isym = 12     inv. 180 deg rotation - cryst. axis [1,1,0]  

 cryst.   s(12) = (     0         -1          0      )
                  (    -1          0          0      )
                  (     0          0          1      )

 cart.    s(12) = (  0.5000000 -0.8660254  0.0000000 )
                  ( -0.8660254 -0.5000000  0.0000000 )
                  (  0.0000000  0.0000000  1.0000000 )


     point group C_6v (6mm) 
     there are  6 classes
     the character table:

       E     2C6   2C3   C2    3s_v  3s_d 
A_1    1.00  1.00  1.00  1.00  1.00  1.00
A_2    1.00  1.00  1.00  1.00 -1.00 -1.00
B_1    1.00 -1.00  1.00 -1.00  1.00 -1.00
B_2    1.00 -1.00  1.00 -1.00 -1.00  1.00
E_1    2.00  1.00 -1.00 -2.00  0.00  0.00
E_2    2.00 -1.00 -1.00  2.00  0.00  0.00

     the symmetry operations in each class and the name of the first element:

     E        1
          identity                                               
     2C6      3    4
           60 deg rotation - cryst. axis [0,0,1]                 
     2C3      5    6
          120 deg rotation - cryst. axis [0,0,1]                 
     C2       2
          180 deg rotation - cart. axis [0,0,1]                  
     3s_v     8   12   11
          inv. 180 deg rotation - cart. axis [1,0,0]             
     3s_d     7    9   10
          inv. 180 deg rotation - cart. axis [0,1,0]             

   Cartesian axes

     site n.     atom                  positions (alat units)
         1           Zn  tau(   1) = (   0.5000000   0.2886751   0.8065088  )
         2           Zn  tau(   2) = (  -0.0000000   0.5773503   0.0009533  )
         3           O   tau(   3) = (   0.5000000   0.2886751   1.4173239  )
         4           O   tau(   4) = (  -0.0000000   0.5773503   0.6117684  )

   Crystallographic axes

     site n.     atom                  positions (cryst. coord.)
         1           Zn  tau(   1) = (  0.6666667  0.3333333  0.5005917  )
         2           Zn  tau(   2) = (  0.3333333  0.6666667  0.0005917  )
         3           O   tau(   3) = (  0.6666667  0.3333333  0.8797183  )
         4           O   tau(   4) = (  0.3333333  0.6666667  0.3797183  )

     number of k points=    28
                       cart. coord. in units 2pi/alat
        k(    1) = (   0.0000000   0.0000000   0.0000000), wk =   0.0092593
        k(    2) = (   0.0000000   0.0000000   0.1034483), wk =   0.0185185
        k(    3) = (   0.0000000   0.0000000   0.2068966), wk =   0.0185185
        k(    4) = (   0.0000000   0.0000000  -0.3103448), wk =   0.0092593
        k(    5) = (   0.0000000   0.1924501   0.0000000), wk =   0.0555556
        k(    6) = (   0.0000000   0.1924501   0.1034483), wk =   0.1111111
        k(    7) = (   0.0000000   0.1924501   0.2068966), wk =   0.1111111
        k(    8) = (   0.0000000   0.1924501  -0.3103448), wk =   0.0555556
        k(    9) = (   0.0000000   0.3849002   0.0000000), wk =   0.0555556
        k(   10) = (   0.0000000   0.3849002   0.1034483), wk =   0.1111111
        k(   11) = (   0.0000000   0.3849002   0.2068966), wk =   0.1111111
        k(   12) = (   0.0000000   0.3849002  -0.3103448), wk =   0.0555556
        k(   13) = (   0.0000000  -0.5773503   0.0000000), wk =   0.0277778
        k(   14) = (   0.0000000  -0.5773503   0.1034483), wk =   0.0555556
        k(   15) = (   0.0000000  -0.5773503   0.2068966), wk =   0.0555556
        k(   16) = (   0.0000000  -0.5773503  -0.3103448), wk =   0.0277778
        k(   17) = (   0.1666667   0.2886751   0.0000000), wk =   0.0555556
        k(   18) = (   0.1666667   0.2886751   0.1034483), wk =   0.1111111
        k(   19) = (   0.1666667   0.2886751   0.2068966), wk =   0.1111111
        k(   20) = (   0.1666667   0.2886751  -0.3103448), wk =   0.0555556
        k(   21) = (   0.1666667   0.4811252   0.0000000), wk =   0.1111111
        k(   22) = (   0.1666667   0.4811252   0.1034483), wk =   0.2222222
        k(   23) = (   0.1666667   0.4811252   0.2068966), wk =   0.2222222
        k(   24) = (   0.1666667   0.4811252  -0.3103448), wk =   0.1111111
        k(   25) = (   0.3333333   0.5773503   0.0000000), wk =   0.0185185
        k(   26) = (   0.3333333   0.5773503   0.1034483), wk =   0.0370370
        k(   27) = (   0.3333333   0.5773503   0.2068966), wk =   0.0370370
        k(   28) = (   0.3333333   0.5773503  -0.3103448), wk =   0.0185185

                       cryst. coord.
        k(    1) = (   0.0000000   0.0000000   0.0000000), wk =   0.0092593
        k(    2) = (   0.0000000   0.0000000   0.1666667), wk =   0.0185185
        k(    3) = (   0.0000000   0.0000000   0.3333333), wk =   0.0185185
        k(    4) = (   0.0000000   0.0000000  -0.5000000), wk =   0.0092593
        k(    5) = (   0.0000000   0.1666667   0.0000000), wk =   0.0555556
        k(    6) = (   0.0000000   0.1666667   0.1666667), wk =   0.1111111
        k(    7) = (   0.0000000   0.1666667   0.3333333), wk =   0.1111111
        k(    8) = (   0.0000000   0.1666667  -0.5000000), wk =   0.0555556
        k(    9) = (   0.0000000   0.3333333   0.0000000), wk =   0.0555556
        k(   10) = (   0.0000000   0.3333333   0.1666667), wk =   0.1111111
        k(   11) = (   0.0000000   0.3333333   0.3333333), wk =   0.1111111
        k(   12) = (   0.0000000   0.3333333  -0.5000000), wk =   0.0555556
        k(   13) = (   0.0000000  -0.5000000   0.0000000), wk =   0.0277778
        k(   14) = (   0.0000000  -0.5000000   0.1666667), wk =   0.0555556
        k(   15) = (   0.0000000  -0.5000000   0.3333333), wk =   0.0555556
        k(   16) = (   0.0000000  -0.5000000  -0.5000000), wk =   0.0277778
        k(   17) = (   0.1666667   0.1666667   0.0000000), wk =   0.0555556
        k(   18) = (   0.1666667   0.1666667   0.1666667), wk =   0.1111111
        k(   19) = (   0.1666667   0.1666667   0.3333333), wk =   0.1111111
        k(   20) = (   0.1666667   0.1666667  -0.5000000), wk =   0.0555556
        k(   21) = (   0.1666667   0.3333333   0.0000000), wk =   0.1111111
        k(   22) = (   0.1666667   0.3333333   0.1666667), wk =   0.2222222
        k(   23) = (   0.1666667   0.3333333   0.3333333), wk =   0.2222222
        k(   24) = (   0.1666667   0.3333333  -0.5000000), wk =   0.1111111
        k(   25) = (   0.3333333   0.3333333   0.0000000), wk =   0.0185185
        k(   26) = (   0.3333333   0.3333333   0.1666667), wk =   0.0370370
        k(   27) = (   0.3333333   0.3333333   0.3333333), wk =   0.0370370
        k(   28) = (   0.3333333   0.3333333  -0.5000000), wk =   0.0185185

     Dense  grid:    43281 G-vectors     FFT dimensions: (  40,  40,  64)

     Smooth grid:    15267 G-vectors     FFT dimensions: (  27,  27,  48)

     Dynamical RAM for                 wfc:       0.13 MB

     Dynamical RAM for     wfc (w. buffer):       3.81 MB

     Dynamical RAM for           str. fact:       0.17 MB

     Dynamical RAM for           local pot:       0.00 MB

     Dynamical RAM for          nlocal pot:       0.19 MB

     Dynamical RAM for                qrad:       6.42 MB

     Dynamical RAM for          rho,v,vnew:       0.54 MB

     Dynamical RAM for               rhoin:       0.18 MB

     Dynamical RAM for            rho*nmix:       1.32 MB

     Dynamical RAM for           G-vectors:       0.32 MB

     Dynamical RAM for          h,s,v(r/c):       0.24 MB

     Dynamical RAM for          <psi|beta>:       0.03 MB

     Dynamical RAM for                 psi:       0.26 MB

     Dynamical RAM for                hpsi:       0.26 MB

     Dynamical RAM for                spsi:       0.26 MB

     Dynamical RAM for      wfcinit/wfcrot:       0.29 MB

     Dynamical RAM for           addusdens:      15.52 MB

     Dynamical RAM for          addusforce:      15.73 MB

     Dynamical RAM for         addusstress:      16.59 MB

     Estimated static dynamical RAM per process >      12.36 MB

     Estimated max dynamical RAM per process >      30.28 MB

     Estimated total dynamical RAM >     242.22 MB

     Check: negative core charge=   -0.000002

     Initial potential from superposition of free atoms

     starting charge      35.9925, renormalised to      36.0000
     Starting wfcs are   26 randomized atomic wfcs +   10 random wfcs

     total cpu time spent up to now is        2.5 secs

     Self-consistent Calculation

     iteration #  1     ecut=    50.00 Ry     beta= 0.10
     Davidson diagonalization with overlap

---- Real-time Memory Report at c_bands before calling an iterative solver
            57 MiB given to the printing process from OS
             0 MiB allocation reported by mallinfo(arena+hblkhd)
        122929 MiB available memory on the node where the printing process lives
------------------
     ethr =  1.00E-02,  avg # of iterations =  8.1

     total cpu time spent up to now is        5.7 secs

     total energy              =    -361.76927468 Ry
     estimated scf accuracy    <       0.72548670 Ry

     iteration #  2     ecut=    50.00 Ry     beta= 0.10
     Davidson diagonalization with overlap

---- Real-time Memory Report at c_bands before calling an iterative solver
            64 MiB given to the printing process from OS
             0 MiB allocation reported by mallinfo(arena+hblkhd)
        122872 MiB available memory on the node where the printing process lives
------------------
     ethr =  2.02E-03,  avg # of iterations =  1.0

     total cpu time spent up to now is        7.2 secs

     total energy              =    -361.53186552 Ry
     estimated scf accuracy    <       0.54994048 Ry

     iteration #  3     ecut=    50.00 Ry     beta= 0.10
     Davidson diagonalization with overlap

---- Real-time Memory Report at c_bands before calling an iterative solver
            64 MiB given to the printing process from OS
             0 MiB allocation reported by mallinfo(arena+hblkhd)
        122865 MiB available memory on the node where the printing process lives
------------------
     ethr =  1.53E-03,  avg # of iterations =  1.4

     total cpu time spent up to now is        8.8 secs

     total energy              =    -361.62949318 Ry
     estimated scf accuracy    <       0.01694448 Ry

     iteration #  4     ecut=    50.00 Ry     beta= 0.10
     Davidson diagonalization with overlap

---- Real-time Memory Report at c_bands before calling an iterative solver
            64 MiB given to the printing process from OS
             0 MiB allocation reported by mallinfo(arena+hblkhd)
        122865 MiB available memory on the node where the printing process lives
------------------
     ethr =  4.71E-05,  avg # of iterations =  6.4

     total cpu time spent up to now is       11.5 secs

     total energy              =    -361.63480828 Ry
     estimated scf accuracy    <       0.01574949 Ry

     iteration #  5     ecut=    50.00 Ry     beta= 0.10
     Davidson diagonalization with overlap

---- Real-time Memory Report at c_bands before calling an iterative solver
            64 MiB given to the printing process from OS
             0 MiB allocation reported by mallinfo(arena+hblkhd)
        122880 MiB available memory on the node where the printing process lives
------------------
     ethr =  4.37E-05,  avg # of iterations =  1.1

     total cpu time spent up to now is       13.0 secs

     total energy              =    -361.63327484 Ry
     estimated scf accuracy    <       0.01064971 Ry

     iteration #  6     ecut=    50.00 Ry     beta= 0.10
     Davidson diagonalization with overlap

---- Real-time Memory Report at c_bands before calling an iterative solver
            64 MiB given to the printing process from OS
             0 MiB allocation reported by mallinfo(arena+hblkhd)
        122900 MiB available memory on the node where the printing process lives
------------------
     ethr =  2.96E-05,  avg # of iterations =  1.0

     total cpu time spent up to now is       14.5 secs

     total energy              =    -361.63452913 Ry
     estimated scf accuracy    <       0.00017293 Ry

     iteration #  7     ecut=    50.00 Ry     beta= 0.10
     Davidson diagonalization with overlap

---- Real-time Memory Report at c_bands before calling an iterative solver
            64 MiB given to the printing process from OS
             0 MiB allocation reported by mallinfo(arena+hblkhd)
        122910 MiB available memory on the node where the printing process lives
------------------
     ethr =  4.80E-07,  avg # of iterations =  5.0

     total cpu time spent up to now is       16.9 secs

     total energy              =    -361.63467055 Ry
     estimated scf accuracy    <       0.00028463 Ry

     iteration #  8     ecut=    50.00 Ry     beta= 0.10
     Davidson diagonalization with overlap

---- Real-time Memory Report at c_bands before calling an iterative solver
            64 MiB given to the printing process from OS
             0 MiB allocation reported by mallinfo(arena+hblkhd)
        122925 MiB available memory on the node where the printing process lives
------------------
     ethr =  4.80E-07,  avg # of iterations =  2.0

     total cpu time spent up to now is       18.6 secs

     total energy              =    -361.63472507 Ry
     estimated scf accuracy    <       0.00005124 Ry

     iteration #  9     ecut=    50.00 Ry     beta= 0.10
     Davidson diagonalization with overlap

---- Real-time Memory Report at c_bands before calling an iterative solver
            64 MiB given to the printing process from OS
             0 MiB allocation reported by mallinfo(arena+hblkhd)
        122924 MiB available memory on the node where the printing process lives
------------------
     ethr =  1.42E-07,  avg # of iterations =  2.0

     total cpu time spent up to now is       20.2 secs

     total energy              =    -361.63473139 Ry
     estimated scf accuracy    <       0.00000803 Ry

     iteration # 10     ecut=    50.00 Ry     beta= 0.10
     Davidson diagonalization with overlap

---- Real-time Memory Report at c_bands before calling an iterative solver
            64 MiB given to the printing process from OS
             0 MiB allocation reported by mallinfo(arena+hblkhd)
        122924 MiB available memory on the node where the printing process lives
------------------
     ethr =  2.23E-08,  avg # of iterations =  2.4

     total cpu time spent up to now is       22.0 secs

     total energy              =    -361.63473622 Ry
     estimated scf accuracy    <       0.00001028 Ry

     iteration # 11     ecut=    50.00 Ry     beta= 0.10
     Davidson diagonalization with overlap

---- Real-time Memory Report at c_bands before calling an iterative solver
            64 MiB given to the printing process from OS
             0 MiB allocation reported by mallinfo(arena+hblkhd)
        122924 MiB available memory on the node where the printing process lives
------------------
     ethr =  2.23E-08,  avg # of iterations =  1.3

     total cpu time spent up to now is       23.6 secs

     total energy              =    -361.63473196 Ry
     estimated scf accuracy    <       0.00001347 Ry

     iteration # 12     ecut=    50.00 Ry     beta= 0.10
     Davidson diagonalization with overlap

---- Real-time Memory Report at c_bands before calling an iterative solver
            64 MiB given to the printing process from OS
             0 MiB allocation reported by mallinfo(arena+hblkhd)
        122924 MiB available memory on the node where the printing process lives
------------------
     ethr =  2.23E-08,  avg # of iterations =  1.2

     total cpu time spent up to now is       25.1 secs

     total energy              =    -361.63473355 Ry
     estimated scf accuracy    <       0.00000058 Ry

     iteration # 13     ecut=    50.00 Ry     beta= 0.10
     Davidson diagonalization with overlap

---- Real-time Memory Report at c_bands before calling an iterative solver
            64 MiB given to the printing process from OS
             0 MiB allocation reported by mallinfo(arena+hblkhd)
        122924 MiB available memory on the node where the printing process lives
------------------
     ethr =  1.60E-09,  avg # of iterations =  3.3

     total cpu time spent up to now is       27.0 secs

     total energy              =    -361.63473374 Ry
     estimated scf accuracy    <       0.00000006 Ry

     iteration # 14     ecut=    50.00 Ry     beta= 0.10
     Davidson diagonalization with overlap

---- Real-time Memory Report at c_bands before calling an iterative solver
            64 MiB given to the printing process from OS
             0 MiB allocation reported by mallinfo(arena+hblkhd)
        122924 MiB available memory on the node where the printing process lives
------------------
     ethr =  1.58E-10,  avg # of iterations =  4.0

     total cpu time spent up to now is       29.0 secs

     total energy              =    -361.63473381 Ry
     estimated scf accuracy    <       0.00000005 Ry

     iteration # 15     ecut=    50.00 Ry     beta= 0.10
     Davidson diagonalization with overlap

---- Real-time Memory Report at c_bands before calling an iterative solver
            64 MiB given to the printing process from OS
             0 MiB allocation reported by mallinfo(arena+hblkhd)
        122924 MiB available memory on the node where the printing process lives
------------------
     ethr =  1.27E-10,  avg # of iterations =  1.4

     total cpu time spent up to now is       30.5 secs

     total energy              =    -361.63473381 Ry
     estimated scf accuracy    <       0.00000004 Ry

     iteration # 16     ecut=    50.00 Ry     beta= 0.10
     Davidson diagonalization with overlap

---- Real-time Memory Report at c_bands before calling an iterative solver
            64 MiB given to the printing process from OS
             0 MiB allocation reported by mallinfo(arena+hblkhd)
        122924 MiB available memory on the node where the printing process lives
------------------
     ethr =  1.02E-10,  avg # of iterations =  2.0

     total cpu time spent up to now is       32.2 secs

     End of self-consistent calculation

          k = 0.0000 0.0000 0.0000 (  1883 PWs)   bands (ev):

   -10.7946 -10.0671   1.6158   1.6158   1.6571   1.6611   1.8114   1.8114
     2.8142   2.8142   3.0265   3.0265   3.3008   6.5240   6.5240   7.2365
     7.3239   7.3239   8.1144  12.5673  15.5346  20.2557  20.2557  21.3604
    21.5211  21.5211  23.8907  25.5460  25.5460  27.2284  27.2284  27.2739
    28.5700  30.5312  32.2246  32.2246

     occupation numbers 
     1.0000   1.0000   1.0000   1.0000   1.0000   1.0000   1.0000   1.0000
     1.0000   1.0000   1.0000   1.0000   1.0000   1.0000   1.0000   1.0000
     1.0000   1.0000   0.0000   0.0000   0.0000   0.0000   0.0000   0.0000
     0.0000   0.0000   0.0000   0.0000   0.0000   0.0000   0.0000   0.0000
     0.0000   0.0000   0.0000   0.0000

          k = 0.0000 0.0000 0.1034 (  1888 PWs)   bands (ev):

   -10.7484 -10.1184   1.5480   1.6079   1.6228   1.6228   1.7916   1.7916
     2.8335   2.8335   3.0187   3.0187   3.6044   6.5787   6.5787   6.6809
     7.2715   7.2715   8.7591  12.3259  15.7511  20.2602  20.2602  20.4330
    21.3252  21.3252  24.2465  25.8406  25.8406  27.0730  27.5548  27.5548
    29.6371  30.5055  31.8841  31.8841

     occupation numbers 
     1.0000   1.0000   1.0000   1.0000   1.0000   1.0000   1.0000   1.0000
     1.0000   1.0000   1.0000   1.0000   1.0000   1.0000   1.0000   1.0000
     1.0000   1.0000   0.0000   0.0000   0.0000   0.0000   0.0000   0.0000
     0.0000   0.0000   0.0000   0.0000   0.0000   0.0000   0.0000   0.0000
     0.0000   0.0000   0.0000   0.0000

          k = 0.0000 0.0000 0.2069 (  1882 PWs)   bands (ev):

   -10.6203 -10.2568   1.4099   1.4894   1.6462   1.6462   1.7428   1.7428
     2.8833   2.8833   2.9911   2.9911   4.2851   5.8901   6.7273   6.7273
     7.1276   7.1276   9.7626  11.6818  16.3809  18.8348  20.3274  20.3274
    20.9132  20.9132  24.8441  26.4279  26.6169  26.6169  28.0054  28.0054
    30.9430  31.5230  31.5230  31.7981

     occupation numbers 
     1.0000   1.0000   1.0000   1.0000   1.0000   1.0000   1.0000   1.0000
     1.0000   1.0000   1.0000   1.0000   1.0000   1.0000   1.0000   1.0000
     1.0000   1.0000   0.0000   0.0000   0.0000   0.0000   0.0000   0.0000
     0.0000   0.0000   0.0000   0.0000   0.0000   0.0000   0.0000   0.0000
     0.0000   0.0000   0.0000   0.0000

          k = 0.0000 0.0000-0.3103 (  1894 PWs)   bands (ev):

   -10.4411 -10.4411   1.3951   1.3951   1.6882   1.6882   1.6882   1.6882
     2.9424   2.9424   2.9424   2.9424   5.0831   5.0831   6.9286   6.9286
     6.9286   6.9286  10.7816  10.7816  17.4169  17.4169  20.5417  20.5417
    20.5417  20.5417  25.5913  25.5913  27.5639  27.5639  27.5639  27.5639
    31.9086  31.9090  32.3269  32.3269

     occupation numbers 
     1.0000   1.0000   1.0000   1.0000   1.0000   1.0000   1.0000   1.0000
     1.0000   1.0000   1.0000   1.0000   1.0000   1.0000   1.0000   1.0000
     1.0000   1.0000   0.0000   0.0000   0.0000   0.0000   0.0000   0.0000
     0.0000   0.0000   0.0000   0.0000   0.0000   0.0000   0.0000   0.0000
     0.0000   0.0000   0.0000   0.0000

          k = 0.0000 0.1925 0.0000 (  1894 PWs)   bands (ev):

   -10.6471 -10.0038   1.4608   1.6975   1.7216   1.7902   1.9177   1.9338
     2.7532   2.8127   3.0388   3.1368   3.2729   5.6114   6.1739   6.2153
     7.0496   7.1321   9.5918  13.5819  15.5193  18.1774  19.9180  20.5037
    21.4200  21.7039  22.6969  24.7125  25.7863  28.3381  29.4898  29.8587
    30.1646  30.8586  32.4950  33.7308

     occupation numbers 
     1.0000   1.0000   1.0000   1.0000   1.0000   1.0000   1.0000   1.0000
     1.0000   1.0000   1.0000   1.0000   1.0000   1.0000   1.0000   1.0000
     1.0000   1.0000   0.0000   0.0000   0.0000   0.0000   0.0000   0.0000
     0.0000   0.0000   0.0000   0.0000   0.0000   0.0000   0.0000   0.0000
     0.0000   0.0000   0.0000   0.0000

          k = 0.0000 0.1925 0.1034 (  1906 PWs)   bands (ev):

   -10.6054 -10.0483   1.4278   1.6055   1.7073   1.7535   1.8800   1.9109
     2.7849   2.8312   3.0272   3.0737   3.6528   5.6675   6.0602   6.2404
     6.9708   7.0699   9.8676  13.2484  15.7604  18.2356  19.7471  20.5071
    20.5883  21.4902  23.2351  25.1744  26.0639  28.3085  29.1989  29.8579
    30.6689  31.1280  32.1680  33.5161

     occupation numbers 
     1.0000   1.0000   1.0000   1.0000   1.0000   1.0000   1.0000   1.0000
     1.0000   1.0000   1.0000   1.0000   1.0000   1.0000   1.0000   1.0000
     1.0000   1.0000   0.0000   0.0000   0.0000   0.0000   0.0000   0.0000
     0.0000   0.0000   0.0000   0.0000   0.0000   0.0000   0.0000   0.0000
     0.0000   0.0000   0.0000   0.0000

          k = 0.0000 0.1925 0.2069 (  1911 PWs)   bands (ev):

   -10.4905 -10.1688   1.3495   1.4028   1.7383   1.7451   1.8246   1.8548
     2.8588   2.8794   2.9930   3.0174   4.3427   5.5531   5.9903   6.4203
     6.6987   6.8987  10.5831  12.4695  16.3666  18.1456  19.1756  19.7586
    20.5641  21.0875  24.1120  25.9525  26.2991  28.3878  29.1728  29.6314
    30.4000  31.2087  32.2486  33.8991

     occupation numbers 
     1.0000   1.0000   1.0000   1.0000   1.0000   1.0000   1.0000   1.0000
     1.0000   1.0000   1.0000   1.0000   1.0000   1.0000   1.0000   1.0000
     1.0000   1.0000   0.0000   0.0000   0.0000   0.0000   0.0000   0.0000
     0.0000   0.0000   0.0000   0.0000   0.0000   0.0000   0.0000   0.0000
     0.0000   0.0000   0.0000   0.0000

          k = 0.0000 0.1925-0.3103 (  1918 PWs)   bands (ev):

   -10.3311 -10.3311   1.3155   1.3155   1.7729   1.7729   1.7904   1.7904
     2.9395   2.9395   2.9438   2.9438   5.0260   5.0260   6.3121   6.3121
     6.6616   6.6616  11.5171  11.5171  17.2557  17.2557  19.2874  19.2874
    20.7511  20.7511  25.1143  25.1143  27.7473  27.7473  29.1334  29.1334
    30.6455  30.6455  33.1978  33.1978

     occupation numbers 
     1.0000   1.0000   1.0000   1.0000   1.0000   1.0000   1.0000   1.0000
     1.0000   1.0000   1.0000   1.0000   1.0000   1.0000   1.0000   1.0000
     1.0000   1.0000   0.0000   0.0000   0.0000   0.0000   0.0000   0.0000
     0.0000   0.0000   0.0000   0.0000   0.0000   0.0000   0.0000   0.0000
     0.0000   0.0000   0.0000   0.0000

          k = 0.0000 0.3849 0.0000 (  1910 PWs)   bands (ev):

   -10.3152  -9.8982   1.3017   1.6598   1.8299   2.0251   2.2313   2.3414
     2.7217   2.8896   3.0594   3.1919   3.4699   4.1609   5.0573   5.4524
     6.4969   6.7132  11.5946  14.8664  15.2865  16.1526  18.3626  19.8026
    20.7648  21.4417  23.1382  25.6272  26.2499  27.2001  30.7572  31.9571
    33.0520  33.3815  33.8699  35.4322

     occupation numbers 
     1.0000   1.0000   1.0000   1.0000   1.0000   1.0000   1.0000   1.0000
     1.0000   1.0000   1.0000   1.0000   1.0000   1.0000   1.0000   1.0000
     1.0000   1.0000   0.0000   0.0000   0.0000   0.0000   0.0000   0.0000
     0.0000   0.0000   0.0000   0.0000   0.0000   0.0000   0.0000   0.0000
     0.0000   0.0000   0.0000   0.0000

          k = 0.0000 0.3849 0.1034 (  1917 PWs)   bands (ev):

   -10.2864  -9.9249   1.2680   1.5562   1.8503   1.9985   2.1962   2.2081
     2.7645   2.8996   3.0451   3.1603   3.7260   4.3053   5.0205   5.5454
     6.5147   6.6337  11.6631  14.3060  15.6598  16.2057  18.3346  19.9015
    20.7807  21.3701  22.4929  25.8517  26.5849  27.8518  29.6271  32.4317
    32.5188  33.8221  33.8484  34.8670

     occupation numbers 
     1.0000   1.0000   1.0000   1.0000   1.0000   1.0000   1.0000   1.0000
     1.0000   1.0000   1.0000   1.0000   1.0000   1.0000   1.0000   1.0000
     1.0000   1.0000   0.0000   0.0000   0.0000   0.0000   0.0000   0.0000
     0.0000   0.0000   0.0000   0.0000   0.0000   0.0000   0.0000   0.0000
     0.0000   0.0000   0.0000   0.0000

          k = 0.0000 0.3849 0.2069 (  1913 PWs)   bands (ev):

   -10.2082  -9.9991   1.2058   1.3419   1.9101   1.9730   2.0708   2.1079
     2.8667   2.9276   3.0101   3.0841   4.0385   4.4467   5.2847   5.7902
     6.3841   6.4146  11.9679  13.4529  16.0251  16.3164  18.3361  19.6150
    20.8501  21.1937  22.4266  25.1492  27.5312  28.9964  29.1478  30.7167
    32.5669  33.7030  34.0216  34.5728

     occupation numbers 
     1.0000   1.0000   1.0000   1.0000   1.0000   1.0000   1.0000   1.0000
     1.0000   1.0000   1.0000   1.0000   1.0000   1.0000   1.0000   1.0000
     1.0000   1.0000   0.0000   0.0000   0.0000   0.0000   0.0000   0.0000
     0.0000   0.0000   0.0000   0.0000   0.0000   0.0000   0.0000   0.0000
     0.0000   0.0000   0.0000   0.0000

          k = 0.0000 0.3849-0.3103 (  1910 PWs)   bands (ev):

   -10.1026 -10.1026   1.2083   1.2083   1.9966   1.9966   2.0020   2.0020
     2.9674   2.9674   2.9815   2.9815   4.2785   4.2785   5.9216   5.9216
     6.1085   6.1085  12.6040  12.6040  16.2648  16.2648  18.7950  18.7950
    20.9961  20.9961  23.6566  23.6566  28.9599  28.9599  29.3520  29.3520
    33.0687  33.0687  34.2894  34.2894

     occupation numbers 
     1.0000   1.0000   1.0000   1.0000   1.0000   1.0000   1.0000   1.0000
     1.0000   1.0000   1.0000   1.0000   1.0000   1.0000   1.0000   1.0000
     1.0000   1.0000   0.0000   0.0000   0.0000   0.0000   0.0000   0.0000
     0.0000   0.0000   0.0000   0.0000   0.0000   0.0000   0.0000   0.0000
     0.0000   0.0000   0.0000   0.0000

          k = 0.0000-0.5774 0.0000 (  1906 PWs)   bands (ev):

   -10.1044  -9.8814   1.3796   1.5685   1.8733   2.2495   2.2747   2.4179
     2.8480   2.9884   3.0754   3.1495   3.6128   3.7709   4.4918   5.0485
     6.0328   6.4838  13.1175  14.1973  14.9153  15.8566  17.9290  19.7673
    20.5449  21.5911  23.2027  25.8714  26.4382  27.9192  30.3875  32.2689
    32.3050  33.4537  34.8156  35.1199

     occupation numbers 
     1.0000   1.0000   1.0000   1.0000   1.0000   1.0000   1.0000   1.0000
     1.0000   1.0000   1.0000   1.0000   1.0000   1.0000   1.0000   1.0000
     1.0000   1.0000   0.0000   0.0000   0.0000   0.0000   0.0000   0.0000
     0.0000   0.0000   0.0000   0.0000   0.0000   0.0000   0.0000   0.0000
     0.0000   0.0000   0.0000   0.0000

          k = 0.0000-0.5774 0.1034 (  1920 PWs)   bands (ev):

   -10.0873  -9.8940   1.3298   1.4677   1.9009   2.2100   2.2482   2.3700
     2.9150   2.9908   3.0609   3.1487   3.5693   3.7286   4.7834   5.1611
     6.1211   6.3960  12.9384  14.0328  15.1322  15.9006  17.8588  19.9236
    20.6087  21.5145  22.4071  25.9755  27.5277  28.2011  28.9545  32.1074
    33.3631  33.6240  33.9640  34.8955

     occupation numbers 
     1.0000   1.0000   1.0000   1.0000   1.0000   1.0000   1.0000   1.0000
     1.0000   1.0000   1.0000   1.0000   1.0000   1.0000   1.0000   1.0000
     1.0000   1.0000   0.0000   0.0000   0.0000   0.0000   0.0000   0.0000
     0.0000   0.0000   0.0000   0.0000   0.0000   0.0000   0.0000   0.0000
     0.0000   0.0000   0.0000   0.0000

          k = 0.0000-0.5774 0.2069 (  1926 PWs)   bands (ev):

   -10.0422  -9.9303   1.2308   1.2848   1.9815   2.1700   2.1989   2.2492
     2.9987   3.0230   3.0343   3.1381   3.5412   3.6443   5.3900   5.4488
     6.1533   6.1892  12.7925  13.5770  15.4903  15.9145  17.9767  19.6197
    20.7876  21.3103  22.2051  25.1868  28.3956  28.9684  29.0233  31.9654
    31.9953  33.7116  33.7145  34.4234

     occupation numbers 
     1.0000   1.0000   1.0000   1.0000   1.0000   1.0000   1.0000   1.0000
     1.0000   1.0000   1.0000   1.0000   1.0000   1.0000   1.0000   1.0000
     1.0000   1.0000   0.0000   0.0000   0.0000   0.0000   0.0000   0.0000
     0.0000   0.0000   0.0000   0.0000   0.0000   0.0000   0.0000   0.0000
     0.0000   0.0000   0.0000   0.0000

          k = 0.0000-0.5774-0.3103 (  1924 PWs)   bands (ev):

    -9.9840  -9.9840   1.1919   1.1919   2.1054   2.1054   2.1677   2.1677
     3.0128   3.0128   3.1003   3.1003   3.5718   3.5718   5.8114   5.8114
     5.9447   5.9447  13.0451  13.0451  15.7656  15.7656  18.6415  18.6415
    21.0426  21.0426  23.4957  23.4957  29.0251  29.0251  30.3194  30.3194
    32.7801  32.7801  33.9833  33.9833

     occupation numbers 
     1.0000   1.0000   1.0000   1.0000   1.0000   1.0000   1.0000   1.0000
     1.0000   1.0000   1.0000   1.0000   1.0000   1.0000   1.0000   1.0000
     1.0000   1.0000   0.0000   0.0000   0.0000   0.0000   0.0000   0.0000
     0.0000   0.0000   0.0000   0.0000   0.0000   0.0000   0.0000   0.0000
     0.0000   0.0000   0.0000   0.0000

          k = 0.1667 0.2887 0.0000 (  1903 PWs)   bands (ev):

   -10.4059  -9.9198   1.4137   1.6211   1.8369   1.8892   2.1637   2.2544
     2.7004   2.8336   3.0521   3.2024   3.4169   4.7830   5.0377   5.6116
     6.6675   6.6971  11.1582  14.7501  15.6460  16.7705  18.4762  19.7650
    19.9118  22.6054  22.7848  23.9654  28.5674  28.7641  28.9636  30.7535
    32.2437  32.9946  33.3350  34.1586

     occupation numbers 
     1.0000   1.0000   1.0000   1.0000   1.0000   1.0000   1.0000   1.0000
     1.0000   1.0000   1.0000   1.0000   1.0000   1.0000   1.0000   1.0000
     1.0000   1.0000   0.0000   0.0000   0.0000   0.0000   0.0000   0.0000
     0.0000   0.0000   0.0000   0.0000   0.0000   0.0000   0.0000   0.0000
     0.0000   0.0000   0.0000   0.0000

          k = 0.1667 0.2887 0.1034 (  1912 PWs)   bands (ev):

   -10.3731  -9.9519   1.3741   1.5579   1.8269   1.8594   2.1085   2.1337
     2.7450   2.8681   3.0389   3.1513   3.7627   4.9142   5.0215   5.6080
     6.5836   6.6857  11.2933  14.2938  15.8600  16.8289  18.7037  19.3877
    19.8018  22.4344  22.9535  24.2421  27.7285  29.3366  29.9312  30.0135
    31.3944  33.0178  33.9392  34.6484

     occupation numbers 
     1.0000   1.0000   1.0000   1.0000   1.0000   1.0000   1.0000   1.0000
     1.0000   1.0000   1.0000   1.0000   1.0000   1.0000   1.0000   1.0000
     1.0000   1.0000   0.0000   0.0000   0.0000   0.0000   0.0000   0.0000
     0.0000   0.0000   0.0000   0.0000   0.0000   0.0000   0.0000   0.0000
     0.0000   0.0000   0.0000   0.0000

          k = 0.1667 0.2887 0.2069 (  1908 PWs)   bands (ev):

   -10.2835 -10.0400   1.2946   1.3804   1.8231   1.8420   1.9980   2.0623
     2.8488   2.9111   3.0055   3.0743   4.2715   4.8839   5.3476   5.7416
     6.3582   6.4974  11.7407  13.4158  16.2546  16.9086  18.7226  18.7382
    20.0650  21.6400  23.8303  24.8338  27.0477  28.0381  30.1956  30.7328
    32.0434  33.1094  33.7823  33.9228

     occupation numbers 
     1.0000   1.0000   1.0000   1.0000   1.0000   1.0000   1.0000   1.0000
     1.0000   1.0000   1.0000   1.0000   1.0000   1.0000   1.0000   1.0000
     1.0000   1.0000   0.0000   0.0000   0.0000   0.0000   0.0000   0.0000
     0.0000   0.0000   0.0000   0.0000   0.0000   0.0000   0.0000   0.0000
     0.0000   0.0000   0.0000   0.0000

          k = 0.1667 0.2887-0.3103 (  1912 PWs)   bands (ev):

   -10.1613 -10.1613   1.2722   1.2722   1.8377   1.8377   1.9950   1.9950
     2.9474   2.9474   2.9803   2.9803   4.6286   4.6286   5.9135   5.9135
     6.1158   6.1158  12.4954  12.4954  16.7040  16.7040  18.4998  18.4998
    20.8079  20.8079  24.8215  24.8215  26.8766  26.8766  30.7202  30.7202
    32.8474  32.8474  33.6693  33.6693

     occupation numbers 
     1.0000   1.0000   1.0000   1.0000   1.0000   1.0000   1.0000   1.0000
     1.0000   1.0000   1.0000   1.0000   1.0000   1.0000   1.0000   1.0000
     1.0000   1.0000   0.0000   0.0000   0.0000   0.0000   0.0000   0.0000
     0.0000   0.0000   0.0000   0.0000   0.0000   0.0000   0.0000   0.0000
     0.0000   0.0000   0.0000   0.0000

          k = 0.1667 0.4811 0.0000 (  1921 PWs)   bands (ev):

   -10.1125  -9.8770   1.4808   1.7273   1.8811   2.0981   2.3783   2.4531
     2.7855   2.8569   3.0879   3.2744   3.4428   4.0614   4.4421   4.7765
     5.9996   6.1957  13.1723  14.9695  15.3329  15.9235  18.1202  19.1675
    19.3588  21.3783  23.0368  26.1260  28.2251  28.4505  30.1799  31.4727
    33.0690  33.4064  34.0616  34.7149

     occupation numbers 
     1.0000   1.0000   1.0000   1.0000   1.0000   1.0000   1.0000   1.0000
     1.0000   1.0000   1.0000   1.0000   1.0000   1.0000   1.0000   1.0000
     1.0000   1.0000   0.0000   0.0000   0.0000   0.0000   0.0000   0.0000
     0.0000   0.0000   0.0000   0.0000   0.0000   0.0000   0.0000   0.0000
     0.0000   0.0000   0.0000   0.0000

          k = 0.1667 0.4811 0.1034 (  1916 PWs)   bands (ev):

   -10.0947  -9.8905   1.4430   1.6400   1.8649   2.0761   2.3084   2.3649
     2.7994   2.9327   3.0840   3.2831   3.4804   4.0866   4.5469   4.9731
     5.9842   6.1949  13.1544  14.6994  15.5152  15.9803  17.7929  18.8584
    19.7355  21.6501  23.1619  25.7375  27.5851  29.3036  29.7126  30.9596
    33.2177  33.2949  34.0362  35.2366

     occupation numbers 
     1.0000   1.0000   1.0000   1.0000   1.0000   1.0000   1.0000   1.0000
     1.0000   1.0000   1.0000   1.0000   1.0000   1.0000   1.0000   1.0000
     1.0000   1.0000   0.0000   0.0000   0.0000   0.0000   0.0000   0.0000
     0.0000   0.0000   0.0000   0.0000   0.0000   0.0000   0.0000   0.0000
     0.0000   0.0000   0.0000   0.0000

          k = 0.1667 0.4811 0.2069 (  1917 PWs)   bands (ev):

   -10.0474  -9.9293   1.3573   1.4475   1.8877   2.0346   2.2144   2.2443
     2.8846   2.9638   3.0946   3.2224   3.6359   3.9830   4.8857   5.4478
     5.7645   6.2402  13.2332  14.1725  15.7622  16.0593  17.4283  18.2033
    20.5972  21.9906  23.2998  24.9555  27.2606  28.8381  30.0003  30.5545
    32.9169  33.4334  34.2796  35.2622

     occupation numbers 
     1.0000   1.0000   1.0000   1.0000   1.0000   1.0000   1.0000   1.0000
     1.0000   1.0000   1.0000   1.0000   1.0000   1.0000   1.0000   1.0000
     1.0000   1.0000   0.0000   0.0000   0.0000   0.0000   0.0000   0.0000
     0.0000   0.0000   0.0000   0.0000   0.0000   0.0000   0.0000   0.0000
     0.0000   0.0000   0.0000   0.0000

          k = 0.1667 0.4811-0.3103 (  1916 PWs)   bands (ev):

    -9.9862  -9.9862   1.3329   1.3329   1.9652   1.9652   2.1853   2.1853
     2.9474   2.9474   3.1446   3.1446   3.8157   3.8157   5.2943   5.2943
     6.0308   6.0308  13.5961  13.5961  15.9704  15.9704  17.6080  17.6080
    21.5567  21.5567  23.8968  23.8968  27.9498  27.9498  30.1933  30.1933
    33.2401  33.2401  34.8581  34.8581

     occupation numbers 
     1.0000   1.0000   1.0000   1.0000   1.0000   1.0000   1.0000   1.0000
     1.0000   1.0000   1.0000   1.0000   1.0000   1.0000   1.0000   1.0000
     1.0000   1.0000   0.0000   0.0000   0.0000   0.0000   0.0000   0.0000
     0.0000   0.0000   0.0000   0.0000   0.0000   0.0000   0.0000   0.0000
     0.0000   0.0000   0.0000   0.0000

          k = 0.3333 0.5774 0.0000 (  1923 PWs)   bands (ev):

    -9.9392  -9.9392   1.5687   1.9666   1.9666   2.3163   2.6047   2.6047
     2.7380   2.8763   2.8955   2.8955   3.5766   3.8063   3.8063   5.4002
     5.4002   5.5917  14.9955  15.0414  15.0414  15.4788  18.1160  18.1160
    20.4525  21.1060  21.1060  28.5780  28.6763  28.6763  29.8324  32.1745
    33.5769  33.5769  33.7464  33.7464

     occupation numbers 
     1.0000   1.0000   1.0000   1.0000   1.0000   1.0000   1.0000   1.0000
     1.0000   1.0000   1.0000   1.0000   1.0000   1.0000   1.0000   1.0000
     1.0000   1.0000   0.0000   0.0000   0.0000   0.0000   0.0000   0.0000
     0.0000   0.0000   0.0000   0.0000   0.0000   0.0000   0.0000   0.0000
     0.0000   0.0000   0.0000   0.0000

          k = 0.3333 0.5774 0.1034 (  1926 PWs)   bands (ev):

    -9.9365  -9.9365   1.5964   1.8654   1.8654   2.2099   2.4889   2.4889
     2.7566   2.8690   3.0627   3.0627   3.7448   3.7616   3.7616   5.4589
     5.5731   5.5731  15.0589  15.0781  15.0781  15.4661  17.5481  17.5481
    20.7403  21.7310  21.7310  27.0279  28.1977  28.1977  30.4686  31.9030
    33.1314  33.1314  34.9286  34.9287

     occupation numbers 
     1.0000   1.0000   1.0000   1.0000   1.0000   1.0000   1.0000   1.0000
     1.0000   1.0000   1.0000   1.0000   1.0000   1.0000   1.0000   1.0000
     1.0000   1.0000   0.0000   0.0000   0.0000   0.0000   0.0000   0.0000
     0.0000   0.0000   0.0000   0.0000   0.0000   0.0000   0.0000   0.0000
     0.0000   0.0000   0.0000   0.0000

          k = 0.3333 0.5774 0.2069 (  1908 PWs)   bands (ev):

    -9.9312  -9.9312   1.6723   1.6723   1.6805   2.0078   2.4057   2.4057
     2.7877   2.8487   3.2592   3.2592   3.6739   3.6739   4.1440   5.1055
     5.9058   5.9058  15.1997  15.2008  15.2008  15.4221  16.6404  16.6404
    21.6050  22.7840  22.7840  24.8925  27.2993  27.2993  30.8215  31.4434
    33.1752  33.1752  34.9568  34.9568

     occupation numbers 
     1.0000   1.0000   1.0000   1.0000   1.0000   1.0000   1.0000   1.0000
     1.0000   1.0000   1.0000   1.0000   1.0000   1.0000   1.0000   1.0000
     1.0000   1.0000   0.0000   0.0000   0.0000   0.0000   0.0000   0.0000
     0.0000   0.0000   0.0000   0.0000   0.0000   0.0000   0.0000   0.0000
     0.0000   0.0000   0.0000   0.0000

          k = 0.3333 0.5774-0.3103 (  1908 PWs)   bands (ev):

    -9.9285  -9.9285   1.5835   1.5835   1.8200   1.8200   2.3841   2.3841
     2.8197   2.8197   3.3467   3.3467   3.6207   3.6207   4.6321   4.6321
     6.0686   6.0686  15.3324  15.3324  15.3340  15.3340  16.1802  16.1802
    23.0197  23.0197  23.3221  23.3221  26.8179  26.8179  31.0826  31.0826
    33.3208  33.3208  34.5969  34.5969

     occupation numbers 
     1.0000   1.0000   1.0000   1.0000   1.0000   1.0000   1.0000   1.0000
     1.0000   1.0000   1.0000   1.0000   1.0000   1.0000   1.0000   1.0000
     1.0000   1.0000   0.0000   0.0000   0.0000   0.0000   0.0000   0.0000
     0.0000   0.0000   0.0000   0.0000   0.0000   0.0000   0.0000   0.0000
     0.0000   0.0000   0.0000   0.0000

     highest occupied, lowest unoccupied level (ev):     7.3239    8.1144

!    total energy              =    -361.63473390 Ry
     estimated scf accuracy    <          6.4E-10 Ry

     The total energy is the sum of the following terms:
     one-electron contribution =    -151.14628154 Ry
     hartree contribution      =     117.09453109 Ry
     xc contribution           =    -109.60716301 Ry
     ewald contribution        =    -217.97582045 Ry

     convergence has been achieved in  16 iterations

     Forces acting on atoms (cartesian axes, Ry/au):

     atom    1 type  1   force =    -0.00000000    0.00000000   -0.00048949
     atom    2 type  1   force =     0.00000000   -0.00000000   -0.00048949
     atom    3 type  2   force =     0.00000000   -0.00000000    0.00048949
     atom    4 type  2   force =     0.00000000   -0.00000000    0.00048949
     The non-local contrib.  to forces
     atom    1 type  1   force =     0.00000000    0.00000000   -0.01030844
     atom    2 type  1   force =     0.00000000    0.00000000   -0.01030844
     atom    3 type  2   force =     0.00000000    0.00000000    0.00101544
     atom    4 type  2   force =     0.00000000    0.00000000    0.00101544
     The ionic contribution  to forces
     atom    1 type  1   force =    -0.00000000   -0.00000000    0.02475406
     atom    2 type  1   force =     0.00000000    0.00000000    0.02475406
     atom    3 type  2   force =     0.00000000   -0.00000000   -0.02475406
     atom    4 type  2   force =    -0.00000000    0.00000000   -0.02475406
     The local contribution  to forces
     atom    1 type  1   force =     0.00000000    0.00000000   -0.01584178
     atom    2 type  1   force =    -0.00000000   -0.00000000   -0.01584178
     atom    3 type  2   force =     0.00000000    0.00000000    0.02425627
     atom    4 type  2   force =    -0.00000000   -0.00000000    0.02425627
     The core correction contribution to forces
     atom    1 type  1   force =     0.00000000    0.00000000    0.00090010
     atom    2 type  1   force =    -0.00000000    0.00000000    0.00090010
     atom    3 type  2   force =     0.00000000    0.00000000   -0.00002920
     atom    4 type  2   force =     0.00000000   -0.00000000   -0.00002920
     The Hubbard contrib.    to forces
     atom    1 type  1   force =     0.00000000    0.00000000    0.00000000
     atom    2 type  1   force =     0.00000000    0.00000000    0.00000000
     atom    3 type  2   force =     0.00000000    0.00000000    0.00000000
     atom    4 type  2   force =     0.00000000    0.00000000    0.00000000
     The SCF correction term to forces
     atom    1 type  1   force =     0.00000000    0.00000000    0.00000756
     atom    2 type  1   force =    -0.00000000   -0.00000000    0.00000756
     atom    3 type  2   force =     0.00000000    0.00000000    0.00000204
     atom    4 type  2   force =    -0.00000000   -0.00000000    0.00000204

     Total force =     0.000979     Total SCF correction =     0.000011


     Computing stress (Cartesian axis) and pressure

          total   stress  (Ry/bohr**3)                   (kbar)     P=       40.88
   0.00026997   0.00000000  -0.00000000           39.71        0.00       -0.00
   0.00000000   0.00026997  -0.00000000            0.00       39.71       -0.00
  -0.00000000  -0.00000000   0.00029365           -0.00       -0.00       43.20

     kinetic stress (kbar)  24854.68      0.00      0.00
                                0.00  24854.68     -0.00
                                0.00     -0.00  24878.04

     local   stress (kbar)   4226.15      0.00     -0.00
                                0.00   4226.15     -0.00
                               -0.00     -0.00   2027.35

     nonloc. stress (kbar)  -3222.54      0.00      0.00
                                0.00  -3222.54      0.00
                                0.00      0.00  -3228.29

     hartree stress (kbar)  17590.84      0.00      0.00
                                0.00  17590.84      0.00
                                0.00      0.00  18605.23

     exc-cor stress (kbar)  13866.27     -0.00     -0.00
                               -0.00  13866.27     -0.00
                               -0.00     -0.00  13866.29

     corecor stress (kbar) -23510.26      0.00      0.00
                                0.00 -23510.26     -0.00
                                0.00     -0.00 -23509.93

     ewald   stress (kbar) -33765.43     -0.00      0.00
                               -0.00 -33765.43      0.00
                                0.00      0.00 -32595.49

     hubbard stress (kbar)      0.00      0.00      0.00
                                0.00      0.00      0.00
                                0.00      0.00      0.00

     DFT-D   stress (kbar)      0.00      0.00      0.00
                                0.00      0.00      0.00
                                0.00      0.00      0.00

     XDM     stress (kbar)      0.00      0.00      0.00
                                0.00      0.00      0.00
                                0.00      0.00      0.00

     dft-nl  stress (kbar)      0.00      0.00      0.00
                                0.00      0.00      0.00
                                0.00      0.00      0.00

     TS-vdW  stress (kbar)      0.00      0.00      0.00
                                0.00      0.00      0.00
                                0.00      0.00      0.00

     MDB     stress (kbar)      0.00      0.00      0.00
                                0.00      0.00      0.00
                                0.00      0.00      0.00

     3D-RISM stress (kbar)      0.00      0.00      0.00
                                0.00      0.00      0.00
                                0.00      0.00      0.00


     BFGS Geometry Optimization
     Energy error            =      0.0E+00 Ry
     Gradient error          =      4.9E-04 Ry/Bohr
     Cell gradient error     =      4.3E+01 kbar

     number of scf cycles    =   1
     number of bfgs steps    =   0

     enthalpy           new  =    -361.6347339018 Ry

     new trust radius        =       0.0262754496 bohr
ibrav =      4
 celldm(1) =      6.16403571
 celldm(3) =      1.61205872
Input lattice vectors:
     1.00674922    -0.00000000    -0.00000000
    -0.50337461     0.87187040    -0.00000000
    -0.00000000    -0.00000000     1.62293885
New lattice vectors in INITIAL alat:
     1.00674922     0.00000000     0.00000000
    -0.50337461     0.87187040     0.00000000
     0.00000000     0.00000000     1.62293885
New lattice vectors in NEW alat (for information only):
     1.00000000     0.00000000     0.00000000
    -0.50000000     0.86602540     0.00000000
     0.00000000     0.00000000     1.61205872
Discrepancy in bohr =     0.000000    0.000000    0.000000
     new conv_thr            =       0.0000000010 Ry

     new unit-cell volume =    326.96926 a.u.^3 (    48.45185 Ang^3 )
     density =      5.44095 g/cm^3

CELL_PARAMETERS (alat=  6.12271220)
   1.006749216   0.000000000   0.000000000
  -0.503374608   0.871870397   0.000000000
   0.000000000   0.000000000   1.622938852

ATOMIC_POSITIONS (crystal)
Zn            0.6666666667        0.3333333333        0.5005420780
Zn            0.3333333333        0.6666666667        0.0005420780
O             0.6666666667        0.3333333333        0.8797679220
O             0.3333333333        0.6666666667        0.3797679220



     Writing config-only to output data dir ./ZnO_PBE_bulk.save/
     NEW-OLD atomic charge density approx. for the potential

     Check: negative core charge=   -0.000002
     extrapolated charge   36.73977, renormalised to   36.00000

     total cpu time spent up to now is       37.1 secs

     Self-consistent Calculation

     iteration #  1     ecut=    50.00 Ry     beta= 0.10
     Davidson diagonalization with overlap

---- Real-time Memory Report at c_bands before calling an iterative solver
           114 MiB given to the printing process from OS
             0 MiB allocation reported by mallinfo(arena+hblkhd)
        122684 MiB available memory on the node where the printing process lives
------------------
     ethr =  1.00E-06,  avg # of iterations =  7.9

     total cpu time spent up to now is       41.1 secs

     total energy              =    -361.50951756 Ry
     estimated scf accuracy    <       0.22448261 Ry

     iteration #  2     ecut=    50.00 Ry     beta= 0.10
     Davidson diagonalization with overlap

---- Real-time Memory Report at c_bands before calling an iterative solver
           114 MiB given to the printing process from OS
             0 MiB allocation reported by mallinfo(arena+hblkhd)
        122799 MiB available memory on the node where the printing process lives
------------------
     ethr =  6.24E-04,  avg # of iterations =  2.0

     total cpu time spent up to now is       42.9 secs

     total energy              =    -361.63588386 Ry
     estimated scf accuracy    <       0.00463207 Ry

     iteration #  3     ecut=    50.00 Ry     beta= 0.10
     Davidson diagonalization with overlap

---- Real-time Memory Report at c_bands before calling an iterative solver
           114 MiB given to the printing process from OS
             0 MiB allocation reported by mallinfo(arena+hblkhd)
        122828 MiB available memory on the node where the printing process lives
------------------
     ethr =  1.29E-05,  avg # of iterations =  4.3

     total cpu time spent up to now is       45.3 secs

     total energy              =    -361.63730508 Ry
     estimated scf accuracy    <       0.00548316 Ry

     iteration #  4     ecut=    50.00 Ry     beta= 0.10
     Davidson diagonalization with overlap

---- Real-time Memory Report at c_bands before calling an iterative solver
           114 MiB given to the printing process from OS
             0 MiB allocation reported by mallinfo(arena+hblkhd)
        122860 MiB available memory on the node where the printing process lives
------------------
     ethr =  1.29E-05,  avg # of iterations =  1.0

     total cpu time spent up to now is       46.8 secs

     total energy              =    -361.63584763 Ry
     estimated scf accuracy    <       0.00480198 Ry

     iteration #  5     ecut=    50.00 Ry     beta= 0.10
     Davidson diagonalization with overlap

---- Real-time Memory Report at c_bands before calling an iterative solver
           114 MiB given to the printing process from OS
             0 MiB allocation reported by mallinfo(arena+hblkhd)
        122871 MiB available memory on the node where the printing process lives
------------------
     ethr =  1.29E-05,  avg # of iterations =  1.1

     total cpu time spent up to now is       48.3 secs

     total energy              =    -361.63577112 Ry
     estimated scf accuracy    <       0.00096452 Ry

     iteration #  6     ecut=    50.00 Ry     beta= 0.10
     Davidson diagonalization with overlap

---- Real-time Memory Report at c_bands before calling an iterative solver
           114 MiB given to the printing process from OS
             0 MiB allocation reported by mallinfo(arena+hblkhd)
        122887 MiB available memory on the node where the printing process lives
------------------
     ethr =  2.68E-06,  avg # of iterations =  2.1

     total cpu time spent up to now is       50.0 secs

     total energy              =    -361.63593459 Ry
     estimated scf accuracy    <       0.00004817 Ry

     iteration #  7     ecut=    50.00 Ry     beta= 0.10
     Davidson diagonalization with overlap

---- Real-time Memory Report at c_bands before calling an iterative solver
           114 MiB given to the printing process from OS
             0 MiB allocation reported by mallinfo(arena+hblkhd)
        122895 MiB available memory on the node where the printing process lives
------------------
     ethr =  1.34E-07,  avg # of iterations =  2.3

     total cpu time spent up to now is       51.7 secs

     total energy              =    -361.63587180 Ry
     estimated scf accuracy    <       0.00010561 Ry

     iteration #  8     ecut=    50.00 Ry     beta= 0.10
     Davidson diagonalization with overlap

---- Real-time Memory Report at c_bands before calling an iterative solver
           114 MiB given to the printing process from OS
             0 MiB allocation reported by mallinfo(arena+hblkhd)
        122897 MiB available memory on the node where the printing process lives
------------------
     ethr =  1.34E-07,  avg # of iterations =  2.0

     total cpu time spent up to now is       53.5 secs

     total energy              =    -361.63591484 Ry
     estimated scf accuracy    <       0.00007576 Ry

     iteration #  9     ecut=    50.00 Ry     beta= 0.10
     Davidson diagonalization with overlap

---- Real-time Memory Report at c_bands before calling an iterative solver
           114 MiB given to the printing process from OS
             0 MiB allocation reported by mallinfo(arena+hblkhd)
        122897 MiB available memory on the node where the printing process lives
------------------
     ethr =  1.34E-07,  avg # of iterations =  1.1

     total cpu time spent up to now is       55.0 secs

     total energy              =    -361.63590859 Ry
     estimated scf accuracy    <       0.00001655 Ry

     iteration # 10     ecut=    50.00 Ry     beta= 0.10
     Davidson diagonalization with overlap

---- Real-time Memory Report at c_bands before calling an iterative solver
           114 MiB given to the printing process from OS
             0 MiB allocation reported by mallinfo(arena+hblkhd)
        122897 MiB available memory on the node where the printing process lives
------------------
     ethr =  4.60E-08,  avg # of iterations =  2.0

     total cpu time spent up to now is       56.8 secs

     total energy              =    -361.63591406 Ry
     estimated scf accuracy    <       0.00000534 Ry

     iteration # 11     ecut=    50.00 Ry     beta= 0.10
     Davidson diagonalization with overlap

---- Real-time Memory Report at c_bands before calling an iterative solver
           114 MiB given to the printing process from OS
             0 MiB allocation reported by mallinfo(arena+hblkhd)
        122897 MiB available memory on the node where the printing process lives
------------------
     ethr =  1.48E-08,  avg # of iterations =  2.0

     total cpu time spent up to now is       58.6 secs

     total energy              =    -361.63591515 Ry
     estimated scf accuracy    <       0.00000025 Ry

     iteration # 12     ecut=    50.00 Ry     beta= 0.10
     Davidson diagonalization with overlap

---- Real-time Memory Report at c_bands before calling an iterative solver
           114 MiB given to the printing process from OS
             0 MiB allocation reported by mallinfo(arena+hblkhd)
        122897 MiB available memory on the node where the printing process lives
------------------
     ethr =  6.90E-10,  avg # of iterations =  2.1

     total cpu time spent up to now is       60.2 secs

     total energy              =    -361.63591515 Ry
     estimated scf accuracy    <       0.00000016 Ry

     iteration # 13     ecut=    50.00 Ry     beta= 0.10
     Davidson diagonalization with overlap

---- Real-time Memory Report at c_bands before calling an iterative solver
           114 MiB given to the printing process from OS
             0 MiB allocation reported by mallinfo(arena+hblkhd)
        122897 MiB available memory on the node where the printing process lives
------------------
     ethr =  4.54E-10,  avg # of iterations =  1.0

     total cpu time spent up to now is       61.7 secs

     total energy              =    -361.63591517 Ry
     estimated scf accuracy    <       0.00000001 Ry

     iteration # 14     ecut=    50.00 Ry     beta= 0.10
     Davidson diagonalization with overlap

---- Real-time Memory Report at c_bands before calling an iterative solver
           114 MiB given to the printing process from OS
             0 MiB allocation reported by mallinfo(arena+hblkhd)
        122897 MiB available memory on the node where the printing process lives
------------------
     ethr =  3.05E-11,  avg # of iterations =  2.1

     total cpu time spent up to now is       63.4 secs

     total energy              =    -361.63591517 Ry
     estimated scf accuracy    <          8.8E-09 Ry

     iteration # 15     ecut=    50.00 Ry     beta= 0.10
     Davidson diagonalization with overlap

---- Real-time Memory Report at c_bands before calling an iterative solver
           114 MiB given to the printing process from OS
             0 MiB allocation reported by mallinfo(arena+hblkhd)
        122897 MiB available memory on the node where the printing process lives
------------------
     ethr =  2.46E-11,  avg # of iterations =  2.0

     total cpu time spent up to now is       65.2 secs

     End of self-consistent calculation

          k = 0.0000 0.0000 0.0000 (  1883 PWs)   bands (ev):

   -10.9391 -10.2441   1.4042   1.4042   1.4487   1.5056   1.5924   1.5924
     2.5417   2.5417   2.7436   2.7436   3.0129   6.2397   6.2397   6.9308
     7.0136   7.0136   7.7724  12.1789  15.1490  19.8421  19.8421  20.9101
    21.0715  21.0715  23.4768  25.1076  25.1076  26.7787  26.7915  26.7915
    27.9544  29.9675  31.6531  31.6531

     occupation numbers 
     1.0000   1.0000   1.0000   1.0000   1.0000   1.0000   1.0000   1.0000
     1.0000   1.0000   1.0000   1.0000   1.0000   1.0000   1.0000   1.0000
     1.0000   1.0000   0.0000   0.0000   0.0000   0.0000   0.0000   0.0000
     0.0000   0.0000   0.0000   0.0000   0.0000   0.0000   0.0000   0.0000
     0.0000   0.0000   0.0000   0.0000

          k = 0.0000 0.0000 0.1027 (  1888 PWs)   bands (ev):

   -10.8949 -10.2930   1.3867   1.3995   1.4110   1.4110   1.5734   1.5734
     2.5601   2.5601   2.7361   2.7361   3.3200   6.2927   6.2927   6.3709
     6.9631   6.9631   8.4190  11.9420  15.3631  19.8477  19.8477  19.9995
    20.8838  20.8838  23.8128  25.3948  25.3948  26.5824  27.1015  27.1015
    29.0161  29.9373  31.3336  31.3336

     occupation numbers 
     1.0000   1.0000   1.0000   1.0000   1.0000   1.0000   1.0000   1.0000
     1.0000   1.0000   1.0000   1.0000   1.0000   1.0000   1.0000   1.0000
     1.0000   1.0000   0.0000   0.0000   0.0000   0.0000   0.0000   0.0000
     0.0000   0.0000   0.0000   0.0000   0.0000   0.0000   0.0000   0.0000
     0.0000   0.0000   0.0000   0.0000

          k = 0.0000 0.0000 0.2054 (  1882 PWs)   bands (ev):

   -10.7723 -10.4250   1.2359   1.2910   1.4336   1.4336   1.5266   1.5266
     2.6073   2.6073   2.7098   2.7098   3.9968   5.5840   6.4366   6.4366
     6.8238   6.8238   9.4135  11.3082  15.9877  18.4204  19.9155  19.9155
    20.4865  20.4865  24.3908  25.9479  26.1520  26.1520  27.5183  27.5183
    30.3631  31.0092  31.0092  31.1595

     occupation numbers 
     1.0000   1.0000   1.0000   1.0000   1.0000   1.0000   1.0000   1.0000
     1.0000   1.0000   1.0000   1.0000   1.0000   1.0000   1.0000   1.0000
     1.0000   1.0000   0.0000   0.0000   0.0000   0.0000   0.0000   0.0000
     0.0000   0.0000   0.0000   0.0000   0.0000   0.0000   0.0000   0.0000
     0.0000   0.0000   0.0000   0.0000

          k = 0.0000 0.0000-0.3081 (  1894 PWs)   bands (ev):

   -10.6010 -10.6010   1.2090   1.2090   1.4741   1.4741   1.4741   1.4741
     2.6634   2.6634   2.6634   2.6634   4.7852   4.7852   6.6314   6.6314
     6.6314   6.6314  10.4202  10.4202  17.0157  17.0157  20.1256  20.1256
    20.1256  20.1256  25.1239  25.1239  27.0764  27.0764  27.0764  27.0764
    31.3048  31.3048  31.8049  31.8049

     occupation numbers 
     1.0000   1.0000   1.0000   1.0000   1.0000   1.0000   1.0000   1.0000
     1.0000   1.0000   1.0000   1.0000   1.0000   1.0000   1.0000   1.0000
     1.0000   1.0000   0.0000   0.0000   0.0000   0.0000   0.0000   0.0000
     0.0000   0.0000   0.0000   0.0000   0.0000   0.0000   0.0000   0.0000
     0.0000   0.0000   0.0000   0.0000

          k = 0.0000 0.1912 0.0000 (  1894 PWs)   bands (ev):

   -10.7977 -10.1833   1.2619   1.4834   1.5087   1.5855   1.7110   1.7395
     2.4841   2.5404   2.7552   2.8632   2.9826   5.3371   5.8989   5.9055
     6.7491   6.8270   9.2459  13.1767  15.1447  17.7895  19.4799  20.0783
    20.9733  21.2466  22.2784  24.2999  25.3352  27.8140  28.9650  29.3739
    29.5598  30.2696  31.9305  33.1843

     occupation numbers 
     1.0000   1.0000   1.0000   1.0000   1.0000   1.0000   1.0000   1.0000
     1.0000   1.0000   1.0000   1.0000   1.0000   1.0000   1.0000   1.0000
     1.0000   1.0000   0.0000   0.0000   0.0000   0.0000   0.0000   0.0000
     0.0000   0.0000   0.0000   0.0000   0.0000   0.0000   0.0000   0.0000
     0.0000   0.0000   0.0000   0.0000

          k = 0.0000 0.1912 0.1027 (  1906 PWs)   bands (ev):

   -10.7578 -10.2257   1.2318   1.4173   1.4929   1.5437   1.6756   1.6891
     2.5143   2.5580   2.7441   2.7913   3.3733   5.3888   5.7553   5.9634
     6.6712   6.7667   9.5199  12.8528  15.3789  17.8447  19.3130  20.0831
    20.1601  21.0423  22.8037  24.7485  25.5955  27.8062  28.6553  29.3583
    30.0860  30.5421  31.6313  32.9395

     occupation numbers 
     1.0000   1.0000   1.0000   1.0000   1.0000   1.0000   1.0000   1.0000
     1.0000   1.0000   1.0000   1.0000   1.0000   1.0000   1.0000   1.0000
     1.0000   1.0000   0.0000   0.0000   0.0000   0.0000   0.0000   0.0000
     0.0000   0.0000   0.0000   0.0000   0.0000   0.0000   0.0000   0.0000
     0.0000   0.0000   0.0000   0.0000

          k = 0.0000 0.1912 0.2054 (  1911 PWs)   bands (ev):

   -10.6479 -10.3406   1.1613   1.2205   1.5230   1.5322   1.6113   1.6352
     2.5845   2.6037   2.7116   2.7356   4.0551   5.2482   5.7113   6.1375
     6.4057   6.6009  10.2285  12.0892  15.9756  17.7429  18.7646  19.3412
    20.1414  20.6533  23.6625  25.4680  25.8477  27.8928  28.6664  29.0970
    29.8701  30.6326  31.7303  33.2952

     occupation numbers 
     1.0000   1.0000   1.0000   1.0000   1.0000   1.0000   1.0000   1.0000
     1.0000   1.0000   1.0000   1.0000   1.0000   1.0000   1.0000   1.0000
     1.0000   1.0000   0.0000   0.0000   0.0000   0.0000   0.0000   0.0000
     0.0000   0.0000   0.0000   0.0000   0.0000   0.0000   0.0000   0.0000
     0.0000   0.0000   0.0000   0.0000

          k = 0.0000 0.1912-0.3081 (  1918 PWs)   bands (ev):

   -10.4956 -10.4956   1.1318   1.1318   1.5592   1.5592   1.5733   1.5733
     2.6608   2.6608   2.6653   2.6653   4.7256   4.7256   6.0291   6.0291
     6.3712   6.3712  11.1509  11.1509  16.8558  16.8558  18.8792  18.8792
    20.3256  20.3256  24.6434  24.6434  27.2672  27.2672  28.6245  28.6245
    30.1028  30.1028  32.6474  32.6474

     occupation numbers 
     1.0000   1.0000   1.0000   1.0000   1.0000   1.0000   1.0000   1.0000
     1.0000   1.0000   1.0000   1.0000   1.0000   1.0000   1.0000   1.0000
     1.0000   1.0000   0.0000   0.0000   0.0000   0.0000   0.0000   0.0000
     0.0000   0.0000   0.0000   0.0000   0.0000   0.0000   0.0000   0.0000
     0.0000   0.0000   0.0000   0.0000

          k = 0.0000 0.3823 0.0000 (  1910 PWs)   bands (ev):

   -10.4798 -10.0817   1.1189   1.4618   1.6115   1.8106   1.9981   2.1243
     2.4582   2.6137   2.7748   2.9257   3.1962   3.9018   4.7682   5.1984
     6.2111   6.4202  11.2264  14.4643  14.9300  15.7583  17.9220  19.4136
    20.3390  20.9859  22.6522  25.1376  25.7821  26.6537  30.2144  31.3625
    32.4489  32.8280  33.3392  35.0058

     occupation numbers 
     1.0000   1.0000   1.0000   1.0000   1.0000   1.0000   1.0000   1.0000
     1.0000   1.0000   1.0000   1.0000   1.0000   1.0000   1.0000   1.0000
     1.0000   1.0000   0.0000   0.0000   0.0000   0.0000   0.0000   0.0000
     0.0000   0.0000   0.0000   0.0000   0.0000   0.0000   0.0000   0.0000
     0.0000   0.0000   0.0000   0.0000

          k = 0.0000 0.3823 0.1027 (  1917 PWs)   bands (ev):

   -10.4523 -10.1073   1.0873   1.3672   1.6313   1.7844   1.9646   1.9893
     2.4971   2.6232   2.7613   2.8789   3.4547   4.0442   4.7379   5.2882
     6.2278   6.3430  11.2979  13.9287  15.2699  15.8135  17.9012  19.5080
    20.3538  20.9168  22.0264  25.3497  26.1138  27.3120  29.0758  31.8380
    31.9806  33.2214  33.3105  34.2705

     occupation numbers 
     1.0000   1.0000   1.0000   1.0000   1.0000   1.0000   1.0000   1.0000
     1.0000   1.0000   1.0000   1.0000   1.0000   1.0000   1.0000   1.0000
     1.0000   1.0000   0.0000   0.0000   0.0000   0.0000   0.0000   0.0000
     0.0000   0.0000   0.0000   0.0000   0.0000   0.0000   0.0000   0.0000
     0.0000   0.0000   0.0000   0.0000

          k = 0.0000 0.3823 0.2054 (  1913 PWs)   bands (ev):

   -10.3777 -10.1782   1.0295   1.1646   1.6892   1.7575   1.8506   1.8800
     2.5936   2.6498   2.7280   2.8011   3.7574   4.1640   5.0194   5.5248
     6.0993   6.1302  11.6069  13.0849  15.6163  15.9192  17.9212  19.2076
    20.4192  20.7473  21.9816  24.6694  27.0502  28.4539  28.5796  30.2007
    31.9690  33.1074  33.4642  33.9827

     occupation numbers 
     1.0000   1.0000   1.0000   1.0000   1.0000   1.0000   1.0000   1.0000
     1.0000   1.0000   1.0000   1.0000   1.0000   1.0000   1.0000   1.0000
     1.0000   1.0000   0.0000   0.0000   0.0000   0.0000   0.0000   0.0000
     0.0000   0.0000   0.0000   0.0000   0.0000   0.0000   0.0000   0.0000
     0.0000   0.0000   0.0000   0.0000

          k = 0.0000 0.3823-0.3081 (  1910 PWs)   bands (ev):

   -10.2770 -10.2770   1.0344   1.0344   1.7780   1.7780   1.7786   1.7786
     2.6875   2.6875   2.7027   2.7027   3.9932   3.9932   5.6468   5.6468
     5.8332   5.8332  12.2417  12.2417  15.8561  15.8561  18.3885  18.3885
    20.5582  20.5582  23.2022  23.2022  28.4634  28.4634  28.7910  28.7910
    32.4716  32.4716  33.7130  33.7130

     occupation numbers 
     1.0000   1.0000   1.0000   1.0000   1.0000   1.0000   1.0000   1.0000
     1.0000   1.0000   1.0000   1.0000   1.0000   1.0000   1.0000   1.0000
     1.0000   1.0000   0.0000   0.0000   0.0000   0.0000   0.0000   0.0000
     0.0000   0.0000   0.0000   0.0000   0.0000   0.0000   0.0000   0.0000
     0.0000   0.0000   0.0000   0.0000

          k = 0.0000-0.5735 0.0000 (  1906 PWs)   bands (ev):

   -10.2784 -10.0652   1.1929   1.3959   1.6534   2.0402   2.0418   2.1765
     2.5776   2.7077   2.7901   2.8617   3.3253   3.5258   4.2430   4.8087
     5.7557   6.1982  12.7171  13.8606  14.5757  15.4042  17.5055  19.3607
    20.1330  21.1189  22.7157  25.3278  25.9137  27.3916  29.8711  31.6870
    31.7195  32.9374  34.2669  34.5885

     occupation numbers 
     1.0000   1.0000   1.0000   1.0000   1.0000   1.0000   1.0000   1.0000
     1.0000   1.0000   1.0000   1.0000   1.0000   1.0000   1.0000   1.0000
     1.0000   1.0000   0.0000   0.0000   0.0000   0.0000   0.0000   0.0000
     0.0000   0.0000   0.0000   0.0000   0.0000   0.0000   0.0000   0.0000
     0.0000   0.0000   0.0000   0.0000

          k = 0.0000-0.5735 0.1027 (  1920 PWs)   bands (ev):

   -10.2622 -10.0774   1.1467   1.2971   1.6802   1.9998   2.0182   2.1310
     2.6415   2.7100   2.7765   2.8610   3.2849   3.4779   4.5293   4.9168
     5.8431   6.1129  12.5576  13.6927  14.7674  15.4485  17.4454  19.5211
    20.1930  21.0467  21.9328  25.4427  26.9852  27.6716  28.4258  31.5212
    32.8522  33.0381  33.3974  34.3668

     occupation numbers 
     1.0000   1.0000   1.0000   1.0000   1.0000   1.0000   1.0000   1.0000
     1.0000   1.0000   1.0000   1.0000   1.0000   1.0000   1.0000   1.0000
     1.0000   1.0000   0.0000   0.0000   0.0000   0.0000   0.0000   0.0000
     0.0000   0.0000   0.0000   0.0000   0.0000   0.0000   0.0000   0.0000
     0.0000   0.0000   0.0000   0.0000

          k = 0.0000-0.5735 0.2054 (  1926 PWs)   bands (ev):

   -10.2191 -10.1122   1.0556   1.1169   1.7581   1.9569   1.9749   2.0157
     2.7174   2.7438   2.7512   2.8513   3.2620   3.3827   5.1255   5.1942
     5.8771   5.9105  12.4343  13.2318  15.0891  15.4675  17.5782  19.2166
    20.3614  20.8542  21.7512  24.7058  27.8254  28.3982  28.4883  31.4049
    31.4178  33.1245  33.1879  33.8995

     occupation numbers 
     1.0000   1.0000   1.0000   1.0000   1.0000   1.0000   1.0000   1.0000
     1.0000   1.0000   1.0000   1.0000   1.0000   1.0000   1.0000   1.0000
     1.0000   1.0000   0.0000   0.0000   0.0000   0.0000   0.0000   0.0000
     0.0000   0.0000   0.0000   0.0000   0.0000   0.0000   0.0000   0.0000
     0.0000   0.0000   0.0000   0.0000

          k = 0.0000-0.5735-0.3081 (  1924 PWs)   bands (ev):

   -10.1636 -10.1636   1.0228   1.0228   1.8777   1.8777   1.9496   1.9496
     2.7308   2.7308   2.8164   2.8164   3.3003   3.3003   5.5452   5.5452
     5.6703   5.6703  12.6964  12.6964  15.3370  15.3370  18.2424  18.2424
    20.6018  20.6018  23.0407  23.0407  28.4411  28.4411  29.7766  29.7766
    32.1910  32.1910  33.4616  33.4616

     occupation numbers 
     1.0000   1.0000   1.0000   1.0000   1.0000   1.0000   1.0000   1.0000
     1.0000   1.0000   1.0000   1.0000   1.0000   1.0000   1.0000   1.0000
     1.0000   1.0000   0.0000   0.0000   0.0000   0.0000   0.0000   0.0000
     0.0000   0.0000   0.0000   0.0000   0.0000   0.0000   0.0000   0.0000
     0.0000   0.0000   0.0000   0.0000

          k = 0.1655 0.2867 0.0000 (  1903 PWs)   bands (ev):

   -10.5666 -10.1025   1.2242   1.4200   1.6198   1.6740   1.9338   2.0540
     2.4342   2.5612   2.7679   2.9334   3.1364   4.5272   4.7523   5.3383
     6.3731   6.4060  10.7938  14.3321  15.2799  16.3922  18.0535  19.3414
    19.4926  22.1841  22.2795  23.5155  28.0604  28.2684  28.4154  30.1787
    31.6928  32.3797  32.7523  33.6084

     occupation numbers 
     1.0000   1.0000   1.0000   1.0000   1.0000   1.0000   1.0000   1.0000
     1.0000   1.0000   1.0000   1.0000   1.0000   1.0000   1.0000   1.0000
     1.0000   1.0000   0.0000   0.0000   0.0000   0.0000   0.0000   0.0000
     0.0000   0.0000   0.0000   0.0000   0.0000   0.0000   0.0000   0.0000
     0.0000   0.0000   0.0000   0.0000

          k = 0.1655 0.2867 0.1027 (  1912 PWs)   bands (ev):

   -10.5353 -10.1331   1.1869   1.3661   1.6106   1.6461   1.8976   1.9050
     2.4768   2.5936   2.7554   2.8690   3.4895   4.6596   4.7296   5.3399
     6.2916   6.3946  10.9295  13.8962  15.4745  16.4472  18.2758  18.9666
    19.3912  21.9565  22.5254  23.7741  27.2227  28.8183  29.3822  29.4944
    30.8244  32.4105  33.3776  34.0467

     occupation numbers 
     1.0000   1.0000   1.0000   1.0000   1.0000   1.0000   1.0000   1.0000
     1.0000   1.0000   1.0000   1.0000   1.0000   1.0000   1.0000   1.0000
     1.0000   1.0000   0.0000   0.0000   0.0000   0.0000   0.0000   0.0000
     0.0000   0.0000   0.0000   0.0000   0.0000   0.0000   0.0000   0.0000
     0.0000   0.0000   0.0000   0.0000

          k = 0.1655 0.2867 0.2054 (  1908 PWs)   bands (ev):

   -10.4497 -10.2173   1.1127   1.2016   1.6076   1.6278   1.7775   1.8364
[...]
    20.1899  20.6747  21.5645  24.5002  27.5921  28.1572  28.2828  31.1789
    31.1949  32.8928  32.9939  33.7039

     occupation numbers 
     1.0000   1.0000   1.0000   1.0000   1.0000   1.0000   1.0000   1.0000
     1.0000   1.0000   1.0000   1.0000   1.0000   1.0000   1.0000   1.0000
     1.0000   1.0000   0.0000   0.0000   0.0000   0.0000   0.0000   0.0000
     0.0000   0.0000   0.0000   0.0000   0.0000   0.0000   0.0000   0.0000
     0.0000   0.0000   0.0000   0.0000

          k = 0.0000-0.5721-0.3070 (  1968 PWs)   bands (ev):

   -10.2357 -10.2357   0.9540   0.9540   1.7841   1.7841   1.8603   1.8603
     2.6157   2.6157   2.7002   2.7002   3.1903   3.1903   5.4405   5.4405
     5.5567   5.5567  12.5546  12.5546  15.1661  15.1661  18.0837  18.0837
    20.4266  20.4266  22.8497  22.8497  28.2006  28.2006  29.5623  29.5623
    31.9608  31.9608  33.2684  33.2684

     occupation numbers 
     1.0000   1.0000   1.0000   1.0000   1.0000   1.0000   1.0000   1.0000
     1.0000   1.0000   1.0000   1.0000   1.0000   1.0000   1.0000   1.0000
     1.0000   1.0000   0.0000   0.0000   0.0000   0.0000   0.0000   0.0000
     0.0000   0.0000   0.0000   0.0000   0.0000   0.0000   0.0000   0.0000
     0.0000   0.0000   0.0000   0.0000

          k = 0.1652 0.2861 0.0000 (  1969 PWs)   bands (ev):

   -10.6309 -10.1765   1.1465   1.3366   1.5291   1.5865   1.8395   1.9708
     2.3248   2.4496   2.6510   2.8220   3.0227   4.4246   4.6376   5.2310
     6.2562   6.2889  10.6474  14.1632  15.1336  16.2455  17.8855  19.1689
    19.3227  22.0215  22.0749  23.3271  27.8595  28.0641  28.1918  29.9542
    31.4606  32.1432  32.5187  33.3942

     occupation numbers 
     1.0000   1.0000   1.0000   1.0000   1.0000   1.0000   1.0000   1.0000
     1.0000   1.0000   1.0000   1.0000   1.0000   1.0000   1.0000   1.0000
     1.0000   1.0000   0.0000   0.0000   0.0000   0.0000   0.0000   0.0000
     0.0000   0.0000   0.0000   0.0000   0.0000   0.0000   0.0000   0.0000
     0.0000   0.0000   0.0000   0.0000

          k = 0.1652 0.2861 0.1023 (  1966 PWs)   bands (ev):

   -10.6002 -10.2065   1.1103   1.2867   1.5207   1.5592   1.8110   1.8115
     2.3666   2.4813   2.6388   2.7525   3.3776   4.5571   4.6124   5.2346
     6.1757   6.2765  10.7833  13.7344  15.3227  16.2989  18.1042  18.7955
    19.2263  21.7632  22.3584  23.5806  27.0212  28.6062  29.1594  29.2770
    30.6016  32.1753  33.1621  33.8063

     occupation numbers 
     1.0000   1.0000   1.0000   1.0000   1.0000   1.0000   1.0000   1.0000
     1.0000   1.0000   1.0000   1.0000   1.0000   1.0000   1.0000   1.0000
     1.0000   1.0000   0.0000   0.0000   0.0000   0.0000   0.0000   0.0000
     0.0000   0.0000   0.0000   0.0000   0.0000   0.0000   0.0000   0.0000
     0.0000   0.0000   0.0000   0.0000

          k = 0.1652 0.2861 0.2046 (  1968 PWs)   bands (ev):

   -10.5165 -10.2889   1.0383   1.1283   1.5188   1.5400   1.6871   1.7438
     2.4633   2.5207   2.6080   2.6750   3.8684   4.4681   4.9849   5.3683
     5.9593   6.0932  11.2289  12.8799  15.7004  16.3637  18.1433  18.1472
    19.4864  21.0130  23.2077  24.1480  26.3612  27.3654  29.4017  29.9427
    31.2702  32.2848  32.9569  33.1504

     occupation numbers 
     1.0000   1.0000   1.0000   1.0000   1.0000   1.0000   1.0000   1.0000
     1.0000   1.0000   1.0000   1.0000   1.0000   1.0000   1.0000   1.0000
     1.0000   1.0000   0.0000   0.0000   0.0000   0.0000   0.0000   0.0000
     0.0000   0.0000   0.0000   0.0000   0.0000   0.0000   0.0000   0.0000
     0.0000   0.0000   0.0000   0.0000

          k = 0.1652 0.2861-0.3070 (  1968 PWs)   bands (ev):

   -10.4023 -10.4023   1.0223   1.0223   1.5347   1.5347   1.6800   1.6800
     2.5543   2.5543   2.5860   2.5860   4.2159   4.2159   5.5326   5.5326
     5.7259   5.7259  11.9747  11.9747  16.1458  16.1458  17.9270  17.9270
    20.2073  20.2073  24.1508  24.1508  26.2169  26.2169  29.9173  29.9173
    32.0408  32.0408  32.8934  32.8934

     occupation numbers 
     1.0000   1.0000   1.0000   1.0000   1.0000   1.0000   1.0000   1.0000
     1.0000   1.0000   1.0000   1.0000   1.0000   1.0000   1.0000   1.0000
     1.0000   1.0000   0.0000   0.0000   0.0000   0.0000   0.0000   0.0000
     0.0000   0.0000   0.0000   0.0000   0.0000   0.0000   0.0000   0.0000
     0.0000   0.0000   0.0000   0.0000

          k = 0.1652 0.4768 0.0000 (  1976 PWs)   bands (ev):

   -10.3553 -10.1352   1.2115   1.4547   1.5858   1.7943   2.0481   2.1171
     2.4079   2.4753   2.6861   2.8756   3.0769   3.6836   4.1049   4.4240
     5.6159   5.8000  12.6214  14.4753  14.8240  15.3214  17.5211  18.5816
    18.7794  20.7371  22.3207  25.4200  27.4523  27.7448  29.4438  30.6968
    32.2523  32.5976  33.2800  33.9138

     occupation numbers 
     1.0000   1.0000   1.0000   1.0000   1.0000   1.0000   1.0000   1.0000
     1.0000   1.0000   1.0000   1.0000   1.0000   1.0000   1.0000   1.0000
     1.0000   1.0000   0.0000   0.0000   0.0000   0.0000   0.0000   0.0000
     0.0000   0.0000   0.0000   0.0000   0.0000   0.0000   0.0000   0.0000
     0.0000   0.0000   0.0000   0.0000

          k = 0.1652 0.4768 0.1023 (  1981 PWs)   bands (ev):

   -10.3387 -10.1479   1.1797   1.3779   1.5655   1.7747   1.9844   2.0313
     2.4195   2.5417   2.6829   2.8721   3.1176   3.6995   4.2109   4.6189
     5.5997   5.8011  12.6125  14.2010  14.9928  15.3745  17.2114  18.2713
    19.1587  21.0063  22.4525  25.0533  26.8582  28.5662  28.9372  30.1823
    32.3940  32.5209  33.2438  34.4315

     occupation numbers 
     1.0000   1.0000   1.0000   1.0000   1.0000   1.0000   1.0000   1.0000
     1.0000   1.0000   1.0000   1.0000   1.0000   1.0000   1.0000   1.0000
     1.0000   1.0000   0.0000   0.0000   0.0000   0.0000   0.0000   0.0000
     0.0000   0.0000   0.0000   0.0000   0.0000   0.0000   0.0000   0.0000
     0.0000   0.0000   0.0000   0.0000

          k = 0.1652 0.4768 0.2046 (  1973 PWs)   bands (ev):

   -10.2947 -10.1843   1.1053   1.1982   1.5858   1.7356   1.8923   1.9154
     2.4982   2.5701   2.6938   2.8142   3.2591   3.5940   4.5369   5.0842
     5.3837   5.8474  12.7076  13.6648  15.2105  15.4523  16.8735  17.6277
    20.0105  21.3522  22.6141  24.2910  26.5523  28.0878  29.2108  29.7494
    32.1286  32.6450  33.4833  34.4814

     occupation numbers 
     1.0000   1.0000   1.0000   1.0000   1.0000   1.0000   1.0000   1.0000
     1.0000   1.0000   1.0000   1.0000   1.0000   1.0000   1.0000   1.0000
     1.0000   1.0000   0.0000   0.0000   0.0000   0.0000   0.0000   0.0000
     0.0000   0.0000   0.0000   0.0000   0.0000   0.0000   0.0000   0.0000
     0.0000   0.0000   0.0000   0.0000

          k = 0.1652 0.4768-0.3070 (  1972 PWs)   bands (ev):

   -10.2376 -10.2376   1.0870   1.0870   1.6642   1.6642   1.8617   1.8617
     2.5556   2.5556   2.7415   2.7415   3.4299   3.4299   4.9320   4.9320
     5.6450   5.6450  13.0809  13.0809  15.3866  15.3866  17.0497  17.0497
    20.9430  20.9430  23.2332  23.2332  27.2250  27.2250  29.3844  29.3844
    32.4547  32.4547  34.0668  34.0668

     occupation numbers 
     1.0000   1.0000   1.0000   1.0000   1.0000   1.0000   1.0000   1.0000
     1.0000   1.0000   1.0000   1.0000   1.0000   1.0000   1.0000   1.0000
     1.0000   1.0000   0.0000   0.0000   0.0000   0.0000   0.0000   0.0000
     0.0000   0.0000   0.0000   0.0000   0.0000   0.0000   0.0000   0.0000
     0.0000   0.0000   0.0000   0.0000

          k = 0.3303 0.5721 0.0000 (  1971 PWs)   bands (ev):

   -10.1928 -10.1928   1.2819   1.6704   1.6704   2.0281   2.2710   2.2710
     2.3650   2.4882   2.5339   2.5339   3.2425   3.4145   3.4145   5.0305
     5.0305   5.2208  14.4338  14.4338  14.5522  14.9807  17.5177  17.5177
    19.9090  20.4049  20.4049  27.8534  27.9107  27.9107  29.1527  31.4045
    32.7635  32.7635  32.9737  32.9737

     occupation numbers 
     1.0000   1.0000   1.0000   1.0000   1.0000   1.0000   1.0000   1.0000
     1.0000   1.0000   1.0000   1.0000   1.0000   1.0000   1.0000   1.0000
     1.0000   1.0000   0.0000   0.0000   0.0000   0.0000   0.0000   0.0000
     0.0000   0.0000   0.0000   0.0000   0.0000   0.0000   0.0000   0.0000
     0.0000   0.0000   0.0000   0.0000

          k = 0.3303 0.5721 0.1023 (  1971 PWs)   bands (ev):

   -10.1904 -10.1904   1.3099   1.5802   1.5802   1.9208   2.1604   2.1604
     2.3816   2.4816   2.6836   2.6836   3.3710   3.3710   3.4107   5.0919
     5.2006   5.2006  14.4722  14.4722  14.6089  14.9697  16.9529  16.9529
    20.1950  21.0257  21.0257  26.3748  27.4460  27.4460  29.7102  31.1304
    32.3459  32.3459  34.1121  34.1121

     occupation numbers 
     1.0000   1.0000   1.0000   1.0000   1.0000   1.0000   1.0000   1.0000
     1.0000   1.0000   1.0000   1.0000   1.0000   1.0000   1.0000   1.0000
     1.0000   1.0000   0.0000   0.0000   0.0000   0.0000   0.0000   0.0000
     0.0000   0.0000   0.0000   0.0000   0.0000   0.0000   0.0000   0.0000
     0.0000   0.0000   0.0000   0.0000

          k = 0.3303 0.5721 0.2046 (  1965 PWs)   bands (ev):

   -10.1857 -10.1857   1.3935   1.4044   1.4044   1.7190   2.0789   2.0789
     2.4088   2.4631   2.8555   2.8555   3.2897   3.2897   3.8054   4.7476
     5.5260   5.5260  14.5989  14.5989  14.7345  14.9313  16.0544  16.0544
    21.0517  22.0641  22.0641  24.2877  26.5702  26.5702  30.0360  30.6656
    32.3858  32.3858  34.1331  34.1331

     occupation numbers 
     1.0000   1.0000   1.0000   1.0000   1.0000   1.0000   1.0000   1.0000
     1.0000   1.0000   1.0000   1.0000   1.0000   1.0000   1.0000   1.0000
     1.0000   1.0000   0.0000   0.0000   0.0000   0.0000   0.0000   0.0000
     0.0000   0.0000   0.0000   0.0000   0.0000   0.0000   0.0000   0.0000
     0.0000   0.0000   0.0000   0.0000

          k = 0.3303 0.5721-0.3070 (  1968 PWs)   bands (ev):

   -10.1834 -10.1834   1.3224   1.3224   1.5324   1.5324   2.0574   2.0574
     2.4370   2.4370   2.9280   2.9280   3.2454   3.2454   4.2848   4.2848
     5.6845   5.6845  14.7319  14.7319  14.8537  14.8537  15.5995  15.5995
    22.4472  22.4472  22.5919  22.5919  26.1010  26.1010  30.2982  30.2982
    32.5252  32.5252  33.7823  33.7823

     occupation numbers 
     1.0000   1.0000   1.0000   1.0000   1.0000   1.0000   1.0000   1.0000
     1.0000   1.0000   1.0000   1.0000   1.0000   1.0000   1.0000   1.0000
     1.0000   1.0000   0.0000   0.0000   0.0000   0.0000   0.0000   0.0000
     0.0000   0.0000   0.0000   0.0000   0.0000   0.0000   0.0000   0.0000
     0.0000   0.0000   0.0000   0.0000

     highest occupied, lowest unoccupied level (ev):     6.8898    7.6350

!    total energy              =    -361.63688135 Ry
     estimated scf accuracy    <          1.6E-12 Ry

     The total energy is the sum of the following terms:
     one-electron contribution =    -154.50515472 Ry
     hartree contribution      =     118.28209982 Ry
     xc contribution           =    -109.54646022 Ry
     ewald contribution        =    -215.86736623 Ry

     convergence has been achieved in  23 iterations

     Forces acting on atoms (cartesian axes, Ry/au):

     atom    1 type  1   force =    -0.00000000    0.00000000    0.00000723
     atom    2 type  1   force =    -0.00000000   -0.00000000    0.00000723
     atom    3 type  2   force =     0.00000000    0.00000000   -0.00000723
     atom    4 type  2   force =     0.00000000    0.00000000   -0.00000723
     The non-local contrib.  to forces
     atom    1 type  1   force =     0.00000000   -0.00000000   -0.00534362
     atom    2 type  1   force =     0.00000000    0.00000000   -0.00534362
     atom    3 type  2   force =     0.00000000   -0.00000000    0.00531813
     atom    4 type  2   force =     0.00000000   -0.00000000    0.00531813
     The ionic contribution  to forces
     atom    1 type  1   force =    -0.00000000   -0.00000000    0.05903290
     atom    2 type  1   force =     0.00000000    0.00000000    0.05903290
     atom    3 type  2   force =     0.00000000   -0.00000000   -0.05903290
     atom    4 type  2   force =    -0.00000000    0.00000000   -0.05903290
     The local contribution  to forces
     atom    1 type  1   force =     0.00000000    0.00000000   -0.05418515
     atom    2 type  1   force =    -0.00000000   -0.00000000   -0.05418515
     atom    3 type  2   force =     0.00000000    0.00000000    0.05376758
     atom    4 type  2   force =    -0.00000000   -0.00000000    0.05376758
     The core correction contribution to forces
     atom    1 type  1   force =     0.00000000    0.00000000    0.00050160
     atom    2 type  1   force =    -0.00000000    0.00000000    0.00050160
     atom    3 type  2   force =    -0.00000000    0.00000000   -0.00006139
     atom    4 type  2   force =     0.00000000    0.00000000   -0.00006139
     The Hubbard contrib.    to forces
     atom    1 type  1   force =     0.00000000    0.00000000    0.00000000
     atom    2 type  1   force =     0.00000000    0.00000000    0.00000000
     atom    3 type  2   force =     0.00000000    0.00000000    0.00000000
     atom    4 type  2   force =     0.00000000    0.00000000    0.00000000
     The SCF correction term to forces
     atom    1 type  1   force =    -0.00000000    0.00000000    0.00000027
     atom    2 type  1   force =    -0.00000000   -0.00000000    0.00000027
     atom    3 type  2   force =     0.00000000    0.00000000    0.00000011
     atom    4 type  2   force =    -0.00000000   -0.00000000    0.00000011

     Total force =     0.000014     Total SCF correction =     0.000000


     Computing stress (Cartesian axis) and pressure

          total   stress  (Ry/bohr**3)                   (kbar)     P=       -0.75
  -0.00000497   0.00000000   0.00000000           -0.73        0.00        0.00
  -0.00000000  -0.00000497  -0.00000000           -0.00       -0.73       -0.00
   0.00000000  -0.00000000  -0.00000529            0.00       -0.00       -0.78

     kinetic stress (kbar)  24101.26      0.00      0.00
                                0.00  24101.26     -0.00
                                0.00     -0.00  24121.42

     local   stress (kbar)   3546.06      0.00     -0.00
                                0.00   3546.06     -0.00
                               -0.00     -0.00   1617.21

     nonloc. stress (kbar)  -3140.12      0.00      0.00
                                0.00  -3140.12      0.00
                                0.00      0.00  -3146.10

     hartree stress (kbar)  17287.84     -0.00      0.00
                               -0.00  17287.84      0.00
                                0.00      0.00  18193.09

     exc-cor stress (kbar)  13474.65     -0.00     -0.00
                               -0.00  13474.65     -0.00
                               -0.00     -0.00  13474.51

     corecor stress (kbar) -22832.68      0.00      0.00
                                0.00 -22832.68     -0.00
                                0.00     -0.00 -22832.26

     ewald   stress (kbar) -32437.74     -0.00      0.00
                               -0.00 -32437.74     -0.00
                                0.00     -0.00 -31428.65

     hubbard stress (kbar)      0.00      0.00      0.00
                                0.00      0.00      0.00
                                0.00      0.00      0.00

     DFT-D   stress (kbar)      0.00      0.00      0.00
                                0.00      0.00      0.00
                                0.00      0.00      0.00

     XDM     stress (kbar)      0.00      0.00      0.00
                                0.00      0.00      0.00
                                0.00      0.00      0.00

     dft-nl  stress (kbar)      0.00      0.00      0.00
                                0.00      0.00      0.00
                                0.00      0.00      0.00

     TS-vdW  stress (kbar)      0.00      0.00      0.00
                                0.00      0.00      0.00
                                0.00      0.00      0.00

     MDB     stress (kbar)      0.00      0.00      0.00
                                0.00      0.00      0.00
                                0.00      0.00      0.00

     3D-RISM stress (kbar)      0.00      0.00      0.00
                                0.00      0.00      0.00
                                0.00      0.00      0.00


     Writing all to output data dir ./ZnO_PBE_bulk.save/

     init_run     :      5.85s CPU      4.27s WALL (       2 calls)
     electrons    :    763.13s CPU    289.24s WALL (      11 calls)
     update_pot   :     13.24s CPU     12.30s WALL (       9 calls)
     forces       :     12.74s CPU      8.28s WALL (      11 calls)
     stress       :     47.39s CPU     29.53s WALL (      11 calls)

     Called by init_run:
     wfcinit      :      2.48s CPU      0.99s WALL (       2 calls)
     wfcinit:atom :      0.03s CPU      0.01s WALL (      56 calls)
     wfcinit:wfcr :      2.36s CPU      0.94s WALL (      56 calls)
     potinit      :      0.89s CPU      0.89s WALL (       2 calls)
     hinit0       :      2.11s CPU      2.13s WALL (       2 calls)

     Called by electrons:
     c_bands      :    624.15s CPU    233.39s WALL (     159 calls)
     sum_band     :    112.02s CPU     44.59s WALL (     159 calls)
     v_of_rho     :      4.96s CPU      2.22s WALL (     163 calls)
     v_h          :      0.31s CPU      0.14s WALL (     163 calls)
     v_xc         :      5.10s CPU      2.35s WALL (     185 calls)
     newd         :     17.25s CPU      7.14s WALL (     163 calls)
     mix_rho      :      4.53s CPU      2.03s WALL (     159 calls)

     Called by c_bands:
     init_us_2    :      7.19s CPU      2.32s WALL (    9576 calls)
     init_us_2:cp :      7.06s CPU      2.28s WALL (    9576 calls)
     cegterg      :    607.99s CPU    227.58s WALL (    4452 calls)

     Called by sum_band:
     sum_band:wei :      0.01s CPU      0.00s WALL (     159 calls)
     sum_band:loo :     88.45s CPU     36.10s WALL (     159 calls)
     sum_band:buf :      0.87s CPU      0.27s WALL (    4452 calls)
     sum_band:ini :      3.24s CPU      1.05s WALL (    4452 calls)
     sum_band:cal :      4.42s CPU      1.43s WALL (    4452 calls)
     sum_band:bec :      0.66s CPU      0.20s WALL (    4452 calls)
     addusdens    :     22.20s CPU      7.90s WALL (     159 calls)
                                        0.00s GPU  (     159 calls)
     addusd:skk   :      0.09s CPU      0.03s WALL (     318 calls)
                                        0.00s GPU  (     318 calls)

     Called by *egterg:
     cdiaghg      :    139.44s CPU     51.43s WALL (   14179 calls)
     cegterg:over :     35.66s CPU      6.95s WALL (   10175 calls)
     cegterg:upda :      8.56s CPU      2.04s WALL (   10175 calls)
     cegterg:last :     15.36s CPU      3.28s WALL (    7905 calls)
     h_psi        :    381.03s CPU    157.45s WALL (   14683 calls)
     s_psi        :      7.66s CPU      1.92s WALL (   14683 calls)
     g_psi        :      2.41s CPU      0.61s WALL (   10175 calls)

     Called by h_psi:
     h_psi:calbec :     11.37s CPU      3.85s WALL (   14683 calls)
     vloc_psi     :    359.87s CPU    150.75s WALL (   14683 calls)
     add_vuspsi   :      7.01s CPU      1.98s WALL (   14683 calls)

     General routines
     calbec       :     17.97s CPU      5.93s WALL (   20675 calls)
     fft          :      4.58s CPU      2.94s WALL (    2388 calls)
     ffts         :      2.89s CPU      1.33s WALL (    4281 calls)
     fftw         :    386.40s CPU    162.04s WALL (  933476 calls)
     interpolate  :      0.43s CPU      0.25s WALL (     163 calls)

     Parallel routines

     PWSCF        :  14m 4.03s CPU   5m44.81s WALL


   This run was terminated on:  15: 8:48   5Jun2025            

=------------------------------------------------------------------------------=
   JOB DONE.
=------------------------------------------------------------------------------=
Note: The following floating-point exceptions are signalling: IEEE_INVALID_FLAG
