
     Program PWSCF v.7.2 starts on  3Jul2025 at 13:38:44 

     This program is part of the open-source Quantum ESPRESSO suite
     for quantum simulation of materials; please cite
         "P. Giannozzi et al., J. Phys.:Condens. Matter 21 395502 (2009);
         "P. Giannozzi et al., J. Phys.:Condens. Matter 29 465901 (2017);
         "P. Giannozzi et al., J. Chem. Phys. 152 154105 (2020);
          URL http://www.quantum-espresso.org", 
     in publications or presentations arising from this work. More details at
     http://www.quantum-espresso.org/quote

     Parallel version (MPI), running on    16 processors

     MPI processes distributed on     1 nodes
     106785 MiB available memory on the printing compute node when the environment starts

     Reading input from ZnO-222.in
Warning: card &CELL ignored
Warning: card / ignored
Warning: card &FCP ignored
Warning: card / ignored
Warning: card &RISM ignored
Warning: card / ignored

     Current dimensions of program PWSCF are:
     Max number of different atomic species (ntypx) = 10
     Max number of k-points (npk) =  40000
     Max angular momentum in pseudopotentials (lmaxx) =  4
     file Zn.upf: wavefunction(s)  3D renormalized
     Found identity + (  0.0000  0.0000 -0.5000) symmetry
     This is a supercell, fractional translations are disabled
     Message from routine setup:
     using ibrav=0 with symmetry is DISCOURAGED, use correct ibrav instead

     K-points division:     npool     =       2
     R & G space division:  proc/nbgrp/npool/nimage =       8
     Subspace diagonalization in iterative solution of the eigenvalue problem:
     a serial algorithm will be used


     Parallelization info
     --------------------
     sticks:   dense  smooth     PW     G-vecs:    dense   smooth      PW
     Min         519     259     72                43359    15335    2250
     Max         520     260     73                43366    15340    2255
     Sum        4153    2077    583               346889   122693   18029

     Using Slab Decomposition



     bravais-lattice index     =            0
     lattice parameter (alat)  =      12.2832  a.u.
     unit-cell volume          =    2567.9543 (a.u.)^3
     number of atoms/cell      =           32
     number of atomic types    =            2
     number of electrons       =       288.00
     number of Kohn-Sham states=          144
     kinetic-energy cutoff     =      50.0000  Ry
     charge density cutoff     =     400.0000  Ry
     scf convergence threshold =      1.0E-08
     mixing beta               =       0.3000
     number of iterations used =            8  plain     mixing
     Exchange-correlation= PBE
                           (   1   4   3   4   0   0   0)

     celldm(1)=  12.283220  celldm(2)=   0.000000  celldm(3)=   0.000000
     celldm(4)=   0.000000  celldm(5)=   0.000000  celldm(6)=   0.000000

     crystal axes: (cart. coord. in units of alat)
               a(1) = (   1.000000   0.000000   0.000000 )  
               a(2) = (  -0.500000   0.866025   0.000000 )  
               a(3) = (   0.000000   0.000000   1.600000 )  

     reciprocal axes: (cart. coord. in units 2 pi/alat)
               b(1) = (  1.000000  0.577350 -0.000000 )  
               b(2) = (  0.000000  1.154701  0.000000 )  
               b(3) = (  0.000000 -0.000000  0.625000 )  


     PseudoPot. # 1 for Zn read from file:
     ../pseudos/Zn.upf
     MD5 check sum: 7f56cabf9682ed8c977c2f7d0c5985c5
     Pseudo is Ultrasoft + core correction, Zval = 12.0
     Generated using &quot;atomic&quot; code by A. Dal Corso  v.6.2.2
     Using radial grid of 1201 points,  6 beta functions with: 
                l(1) =   0
                l(2) =   0
                l(3) =   1
                l(4) =   1
                l(5) =   2
                l(6) =   2
     Q(r) pseudized with 0 coefficients 


     PseudoPot. # 2 for O  read from file:
     ../pseudos/O.upf
     MD5 check sum: 91400c9766925bcf19f520983a725ff0
     Pseudo is Ultrasoft + core correction, Zval =  6.0
     Generated using &quot;atomic&quot; code by A. Dal Corso  v.6.3MaX
     Using radial grid of 1095 points,  4 beta functions with: 
                l(1) =   0
                l(2) =   0
                l(3) =   1
                l(4) =   1
     Q(r) pseudized with 0 coefficients 


     atomic species   valence    mass     pseudopotential
        Zn            12.00    65.38000     Zn( 1.00)
        O              6.00    15.99900     O ( 1.00)

      6 Sym. Ops. (no inversion) found



   Cartesian axes

     site n.     atom                  positions (alat units)
         1           Zn  tau(   1) = (   0.0000000   0.0000000   0.0000000  )
         2           O   tau(   2) = (   0.0000000   0.2886751   0.0958333  )
         3           Zn  tau(   3) = (   0.0000000   0.2886751   0.4000000  )
         4           O   tau(   4) = (   0.0000000   0.0000000   0.4958333  )
         5           Zn  tau(   5) = (   0.0000000   0.0000000   0.8000000  )
         6           O   tau(   6) = (   0.0000000   0.2886751   0.8958333  )
         7           Zn  tau(   7) = (   0.0000000   0.2886751   1.2000000  )
         8           O   tau(   8) = (   0.0000000   0.0000000   1.2958333  )
         9           Zn  tau(   9) = (  -0.2500000   0.4330127   0.0000000  )
        10           O   tau(  10) = (  -0.2500000   0.7216878   0.0958333  )
        11           Zn  tau(  11) = (  -0.2500000   0.7216878   0.4000000  )
        12           O   tau(  12) = (  -0.2500000   0.4330127   0.4958333  )
        13           Zn  tau(  13) = (  -0.2500000   0.4330127   0.8000000  )
        14           O   tau(  14) = (  -0.2500000   0.7216878   0.8958333  )
        15           Zn  tau(  15) = (  -0.2500000   0.7216878   1.2000000  )
        16           O   tau(  16) = (  -0.2500000   0.4330127   1.2958333  )
        17           Zn  tau(  17) = (   0.5000000   0.0000000   0.0000000  )
        18           O   tau(  18) = (   0.5000000   0.2886751   0.0958333  )
        19           Zn  tau(  19) = (   0.5000000   0.2886751   0.4000000  )
        20           O   tau(  20) = (   0.5000000   0.0000000   0.4958333  )
        21           Zn  tau(  21) = (   0.5000000   0.0000000   0.8000000  )
        22           O   tau(  22) = (   0.5000000   0.2886751   0.8958333  )
        23           Zn  tau(  23) = (   0.5000000   0.2886751   1.2000000  )
        24           O   tau(  24) = (   0.5000000   0.0000000   1.2958333  )
        25           Zn  tau(  25) = (   0.2500000   0.4330127   0.0000000  )
        26           O   tau(  26) = (   0.2500000   0.7216878   0.0958333  )
        27           Zn  tau(  27) = (   0.2500000   0.7216878   0.4000000  )
        28           O   tau(  28) = (   0.2500000   0.4330127   0.4958333  )
        29           Zn  tau(  29) = (   0.2500000   0.4330127   0.8000000  )
        30           O   tau(  30) = (   0.2500000   0.7216878   0.8958333  )
        31           Zn  tau(  31) = (   0.2500000   0.7216878   1.2000000  )
        32           O   tau(  32) = (   0.2500000   0.4330127   1.2958333  )

     number of k points=    34
                       cart. coord. in units 2pi/alat
        k(    1) = (   0.0000000   0.0000000   0.0000000), wk =   0.0092593
        k(    2) = (   0.0000000   0.0000000   0.1041667), wk =   0.0185185
        k(    3) = (   0.0000000   0.0000000   0.2083333), wk =   0.0185185
        k(    4) = (   0.0000000   0.0000000  -0.3125000), wk =   0.0092593
        k(    5) = (   0.0000000   0.1924501   0.0000000), wk =   0.0555556
        k(    6) = (   0.0000000   0.1924501   0.1041667), wk =   0.0555556
        k(    7) = (   0.0000000   0.1924501   0.2083333), wk =   0.0555556
        k(    8) = (   0.0000000   0.1924501  -0.3125000), wk =   0.0555556
        k(    9) = (   0.0000000   0.3849002   0.0000000), wk =   0.0555556
        k(   10) = (   0.0000000   0.3849002   0.1041667), wk =   0.0555556
        k(   11) = (   0.0000000   0.3849002   0.2083333), wk =   0.0555556
        k(   12) = (   0.0000000   0.3849002  -0.3125000), wk =   0.0555556
        k(   13) = (   0.0000000  -0.5773503   0.0000000), wk =   0.0277778
        k(   14) = (   0.0000000  -0.5773503   0.1041667), wk =   0.0555556
        k(   15) = (   0.0000000  -0.5773503   0.2083333), wk =   0.0555556
        k(   16) = (   0.0000000  -0.5773503  -0.3125000), wk =   0.0277778
        k(   17) = (   0.1666667   0.2886751   0.0000000), wk =   0.0555556
        k(   18) = (   0.1666667   0.2886751   0.1041667), wk =   0.1111111
        k(   19) = (   0.1666667   0.2886751   0.2083333), wk =   0.1111111
        k(   20) = (   0.1666667   0.2886751  -0.3125000), wk =   0.0555556
        k(   21) = (   0.1666667   0.4811252   0.0000000), wk =   0.1111111
        k(   22) = (   0.1666667   0.4811252   0.1041667), wk =   0.1111111
        k(   23) = (   0.1666667   0.4811252   0.2083333), wk =   0.1111111
        k(   24) = (   0.1666667   0.4811252  -0.3125000), wk =   0.1111111
        k(   25) = (   0.3333333   0.5773503   0.0000000), wk =   0.0185185
        k(   26) = (   0.3333333   0.5773503   0.1041667), wk =   0.0370370
        k(   27) = (   0.3333333   0.5773503   0.2083333), wk =   0.0370370
        k(   28) = (   0.3333333   0.5773503  -0.3125000), wk =   0.0185185
        k(   29) = (   0.0000000  -0.1924501   0.1041667), wk =   0.0555556
        k(   30) = (   0.0000000  -0.1924501   0.2083333), wk =   0.0555556
        k(   31) = (   0.0000000  -0.3849002   0.1041667), wk =   0.0555556
        k(   32) = (   0.0000000  -0.3849002   0.2083333), wk =   0.0555556
        k(   33) = (  -0.1666667  -0.4811252   0.1041667), wk =   0.1111111
        k(   34) = (  -0.1666667  -0.4811252   0.2083333), wk =   0.1111111

     Dense  grid:   346889 G-vectors     FFT dimensions: (  80,  80, 125)

     Smooth grid:   122693 G-vectors     FFT dimensions: (  60,  60,  90)

     Estimated max dynamical RAM per process >     194.46 MB

     Estimated total dynamical RAM >       2.96 GB

     Check: negative core charge=   -0.000002

     Initial potential from superposition of free atoms

     starting charge     287.9404, renormalised to     288.0000
     Starting wfcs are  208 randomized atomic wfcs

     total cpu time spent up to now is       21.5 secs

     Self-consistent Calculation

     iteration #  1     ecut=    50.00 Ry     beta= 0.30
     Davidson diagonalization with overlap
     ethr =  1.00E-02,  avg # of iterations =  2.0

     total cpu time spent up to now is       57.1 secs

     total energy              =   -2891.85086158 Ry
     estimated scf accuracy    <       5.46880302 Ry

     iteration #  2     ecut=    50.00 Ry     beta= 0.30
     Davidson diagonalization with overlap
     ethr =  1.90E-03,  avg # of iterations =  2.1

     total cpu time spent up to now is      101.8 secs

     total energy              =   -2892.59225222 Ry
     estimated scf accuracy    <       0.73848102 Ry

     iteration #  3     ecut=    50.00 Ry     beta= 0.30
     Davidson diagonalization with overlap
     ethr =  2.56E-04,  avg # of iterations =  7.8

     total cpu time spent up to now is      185.1 secs

     total energy              =   -2892.87151724 Ry
     estimated scf accuracy    <       0.46638534 Ry

     iteration #  4     ecut=    50.00 Ry     beta= 0.30
     Davidson diagonalization with overlap
     ethr =  1.62E-04,  avg # of iterations =  9.6

     total cpu time spent up to now is      287.8 secs

     total energy              =   -2893.20647783 Ry
     estimated scf accuracy    <       1.97977684 Ry

     iteration #  5     ecut=    50.00 Ry     beta= 0.30
     Davidson diagonalization with overlap
     ethr =  1.62E-04,  avg # of iterations =  2.0

     total cpu time spent up to now is      324.4 secs

     total energy              =   -2892.27189413 Ry
     estimated scf accuracy    <       1.15817176 Ry

     iteration #  6     ecut=    50.00 Ry     beta= 0.30
     Davidson diagonalization with overlap
     c_bands:  1 eigenvalues not converged
     ethr =  1.62E-04,  avg # of iterations = 12.7

     total cpu time spent up to now is      445.7 secs

     total energy              =   -2892.47038573 Ry
     estimated scf accuracy    <       6.64361175 Ry

     iteration #  7     ecut=    50.00 Ry     beta= 0.30
     Davidson diagonalization with overlap
     ethr =  1.62E-04,  avg # of iterations =  9.6

     total cpu time spent up to now is      544.1 secs

     total energy              =   -2893.06985150 Ry
     estimated scf accuracy    <       0.43913766 Ry

     iteration #  8     ecut=    50.00 Ry     beta= 0.30
     Davidson diagonalization with overlap
     ethr =  1.52E-04,  avg # of iterations =  1.9

     total cpu time spent up to now is      579.7 secs

     total energy              =   -2893.08388603 Ry
     estimated scf accuracy    <       0.23988829 Ry

     iteration #  9     ecut=    50.00 Ry     beta= 0.30
     Davidson diagonalization with overlap
     ethr =  8.33E-05,  avg # of iterations =  2.2

     total cpu time spent up to now is      615.6 secs

     total energy              =   -2892.98563109 Ry
     estimated scf accuracy    <       0.20925709 Ry

     iteration # 10     ecut=    50.00 Ry     beta= 0.30
     Davidson diagonalization with overlap
     ethr =  7.27E-05,  avg # of iterations =  6.9

     total cpu time spent up to now is      684.7 secs

     total energy              =   -2893.07802019 Ry
     estimated scf accuracy    <       0.02154324 Ry

     iteration # 11     ecut=    50.00 Ry     beta= 0.30
     Davidson diagonalization with overlap
     ethr =  7.48E-06,  avg # of iterations =  5.7

     total cpu time spent up to now is      737.6 secs

     total energy              =   -2893.07992919 Ry
     estimated scf accuracy    <       0.01550526 Ry

     iteration # 12     ecut=    50.00 Ry     beta= 0.30
     Davidson diagonalization with overlap
     ethr =  5.38E-06,  avg # of iterations =  1.8

     total cpu time spent up to now is      774.5 secs

     total energy              =   -2893.07721738 Ry
     estimated scf accuracy    <       0.00767515 Ry

     iteration # 13     ecut=    50.00 Ry     beta= 0.30
     Davidson diagonalization with overlap
     ethr =  2.66E-06,  avg # of iterations =  5.6

     total cpu time spent up to now is      833.2 secs

     total energy              =   -2893.08022539 Ry
     estimated scf accuracy    <       0.00007496 Ry

     iteration # 14     ecut=    50.00 Ry     beta= 0.30
     Davidson diagonalization with overlap
     c_bands:  1 eigenvalues not converged
     c_bands:  1 eigenvalues not converged
     ethr =  2.60E-08,  avg # of iterations = 10.9

     total cpu time spent up to now is      949.0 secs

     total energy              =   -2893.08009722 Ry
     estimated scf accuracy    <       0.00075488 Ry

     iteration # 15     ecut=    50.00 Ry     beta= 0.30
     Davidson diagonalization with overlap
     c_bands:  1 eigenvalues not converged
     c_bands:  1 eigenvalues not converged
     c_bands:  1 eigenvalues not converged
     ethr =  2.60E-08,  avg # of iterations = 15.2

     total cpu time spent up to now is     1093.6 secs

     total energy              =   -2893.08100137 Ry
     estimated scf accuracy    <       0.00134096 Ry

     iteration # 16     ecut=    50.00 Ry     beta= 0.30
     Davidson diagonalization with overlap
     ethr =  2.60E-08,  avg # of iterations =  6.4

     total cpu time spent up to now is     1149.9 secs

     total energy              =   -2893.08070515 Ry
     estimated scf accuracy    <       0.00207418 Ry

     iteration # 17     ecut=    50.00 Ry     beta= 0.30
     Davidson diagonalization with overlap
     ethr =  2.60E-08,  avg # of iterations =  6.2

     total cpu time spent up to now is     1205.0 secs

     total energy              =   -2893.08003153 Ry
     estimated scf accuracy    <       0.00123416 Ry

     iteration # 18     ecut=    50.00 Ry     beta= 0.30
     Davidson diagonalization with overlap
     ethr =  2.60E-08,  avg # of iterations = 13.7

     total cpu time spent up to now is     1336.8 secs

     total energy              =   -2893.08061357 Ry
     estimated scf accuracy    <       0.00024445 Ry

     iteration # 19     ecut=    50.00 Ry     beta= 0.30
     Davidson diagonalization with overlap
     ethr =  2.60E-08,  avg # of iterations =  6.3

     total cpu time spent up to now is     1391.8 secs

     total energy              =   -2893.08040446 Ry
     estimated scf accuracy    <       0.00056091 Ry

     iteration # 20     ecut=    50.00 Ry     beta= 0.30
     Davidson diagonalization with overlap
     ethr =  2.60E-08,  avg # of iterations =  7.5

     total cpu time spent up to now is     1465.2 secs

     total energy              =   -2893.08043732 Ry
     estimated scf accuracy    <       0.00006372 Ry

     iteration # 21     ecut=    50.00 Ry     beta= 0.30
     Davidson diagonalization with overlap
     ethr =  2.21E-08,  avg # of iterations =  4.1

     total cpu time spent up to now is     1507.0 secs

     total energy              =   -2893.08042907 Ry
     estimated scf accuracy    <       0.00002238 Ry

     iteration # 22     ecut=    50.00 Ry     beta= 0.30
     Davidson diagonalization with overlap
     ethr =  7.77E-09,  avg # of iterations =  8.5

     total cpu time spent up to now is     1596.5 secs

     total energy              =   -2893.08044250 Ry
     estimated scf accuracy    <       0.00003226 Ry

     iteration # 23     ecut=    50.00 Ry     beta= 0.30
     Davidson diagonalization with overlap
     ethr =  7.77E-09,  avg # of iterations =  2.0

     total cpu time spent up to now is     1633.9 secs

     total energy              =   -2893.08044087 Ry
     estimated scf accuracy    <       0.00000879 Ry

     iteration # 24     ecut=    50.00 Ry     beta= 0.30
     Davidson diagonalization with overlap
     ethr =  3.05E-09,  avg # of iterations =  6.7

     total cpu time spent up to now is     1704.9 secs

     total energy              =   -2893.08044749 Ry
     estimated scf accuracy    <       0.00000212 Ry

     iteration # 25     ecut=    50.00 Ry     beta= 0.30
     Davidson diagonalization with overlap
     ethr =  7.36E-10,  avg # of iterations =  3.3

     total cpu time spent up to now is     1745.3 secs

     total energy              =   -2893.08044628 Ry
     estimated scf accuracy    <       0.00000251 Ry

     iteration # 26     ecut=    50.00 Ry     beta= 0.30
     Davidson diagonalization with overlap
     ethr =  7.36E-10,  avg # of iterations =  2.3

     total cpu time spent up to now is     1786.5 secs

     total energy              =   -2893.08044648 Ry
     estimated scf accuracy    <       0.00000032 Ry

     iteration # 27     ecut=    50.00 Ry     beta= 0.30
     Davidson diagonalization with overlap
     ethr =  1.10E-10,  avg # of iterations =  8.1

     total cpu time spent up to now is     1872.7 secs

     total energy              =   -2893.08044686 Ry
     estimated scf accuracy    <       0.00000017 Ry

     iteration # 28     ecut=    50.00 Ry     beta= 0.30
     Davidson diagonalization with overlap
     ethr =  5.95E-11,  avg # of iterations =  1.6

     total cpu time spent up to now is     1907.5 secs

     total energy              =   -2893.08044686 Ry
     estimated scf accuracy    <       0.00000013 Ry

     iteration # 29     ecut=    50.00 Ry     beta= 0.30
     Davidson diagonalization with overlap
     ethr =  4.59E-11,  avg # of iterations =  1.0

     total cpu time spent up to now is     1939.9 secs

     total energy              =   -2893.08044685 Ry
     estimated scf accuracy    <       0.00000012 Ry

     iteration # 30     ecut=    50.00 Ry     beta= 0.30
     Davidson diagonalization with overlap
     ethr =  4.06E-11,  avg # of iterations =  1.0

     total cpu time spent up to now is     1972.1 secs

     total energy              =   -2893.08044683 Ry
     estimated scf accuracy    <       0.00000010 Ry

     iteration # 31     ecut=    50.00 Ry     beta= 0.30
     Davidson diagonalization with overlap
     ethr =  3.36E-11,  avg # of iterations =  1.8

     total cpu time spent up to now is     2007.6 secs

     total energy              =   -2893.08044682 Ry
     estimated scf accuracy    <       0.00000004 Ry

     iteration # 32     ecut=    50.00 Ry     beta= 0.30
     Davidson diagonalization with overlap
     ethr =  1.45E-11,  avg # of iterations =  4.1

     total cpu time spent up to now is     2055.5 secs

     End of self-consistent calculation

          k = 0.0000 0.0000 0.0000 ( 15291 PWs)   bands (ev):

   -10.8122 -10.4554 -10.4554 -10.1285 -10.1285 -10.1285 -10.0784 -10.0064
   -10.0064 -10.0064 -10.0064 -10.0064 -10.0064  -9.9031  -9.9031  -9.9031
     1.1690   1.1690   1.1690   1.1690   1.1690   1.1690   1.3608   1.3608
     1.3608   1.3791   1.3791   1.5539   1.5539   1.5539   1.5898   1.5898
     1.6489   1.6605   1.6605   1.6605   1.6605   1.6613   1.7838   1.7838
     1.8501   1.8501   1.8501   2.0799   2.0799   2.0799   2.0799   2.0799
     2.0799   2.1388   2.1388   2.1388   2.1388   2.1388   2.1388   2.2159
     2.2159   2.2159   2.2619   2.2619   2.2619   2.3906   2.3906   2.3906
     2.7802   2.7802   2.8189   2.8189   2.8189   2.9113   2.9113   2.9113
     2.9113   2.9527   2.9527   2.9527   2.9784   2.9784   2.9784   2.9784
     2.9784   2.9784   2.9954   2.9954   3.0440   3.0440   3.0440   3.0679
     3.0679   3.0679   3.0679   3.0679   3.0679   3.1150   3.1150   3.1150
     3.2691   3.5438   3.5438   3.5438   3.5438   3.5438   3.5438   3.5892
     3.5892   3.5892   3.7364   3.7364   3.7364   4.4653   4.4653   4.4653
     4.9988   4.9988   4.9988   5.0645   5.0645   5.7669   5.7669   5.7669
     5.7669   5.7669   5.7669   5.9362   5.9362   5.9362   5.9362   5.9362
     5.9362   6.0103   6.0103   6.0103   6.4419   6.4419   6.4419   6.4766
     6.4766   6.8842   6.8842   6.8842   6.8842   7.2039   7.2814   7.2814

          k = 0.0000 0.0000 0.1042 ( 15290 PWs)   bands (ev):

   -10.8004 -10.5496 -10.3598 -10.1241 -10.1241 -10.1241 -10.0916 -10.0363
   -10.0363 -10.0363  -9.9778  -9.9777  -9.9777  -9.9063  -9.9063  -9.9063
     1.1749   1.1749   1.1749   1.1988   1.1988   1.1988   1.3473   1.3473
     1.3473   1.3705   1.4170   1.5256   1.5256   1.5256   1.5916   1.5916
     1.6261   1.6347   1.6376   1.6376   1.6869   1.6869   1.7786   1.7786
     1.8569   1.8569   1.8569   2.0143   2.0143   2.0143   2.1334   2.1334
     2.1334   2.1511   2.1511   2.1511   2.1534   2.1534   2.1534   2.2029
     2.2029   2.2029   2.2536   2.2536   2.2536   2.3780   2.3780   2.3780
     2.7855   2.7855   2.8388   2.8388   2.8388   2.8816   2.8816   2.9383
     2.9383   2.9532   2.9532   2.9532   2.9702   2.9702   2.9702   2.9886
     2.9886   2.9886   2.9938   2.9938   3.0353   3.0353   3.0353   3.0395
     3.0395   3.0395   3.0905   3.0905   3.0905   3.1150   3.1150   3.1150
     3.3535   3.5225   3.5225   3.5225   3.5736   3.5736   3.5736   3.5754
     3.5754   3.5754   3.7251   3.7251   3.7251   4.5472   4.5472   4.5472
     4.6613   5.0281   5.0281   5.0281   5.4671   5.5817   5.5817   5.5817
     5.6836   5.6836   5.6836   5.9467   5.9467   5.9467   6.0374   6.0374
     6.0374   6.1055   6.1055   6.1055   6.4196   6.4196   6.4196   6.4907
     6.4907   6.7796   6.7796   6.9881   6.9881   7.0114   7.2681   7.2681

          k = 0.0000 0.0000 0.2083 ( 15326 PWs)   bands (ev):

   -10.7655 -10.6362 -10.2695 -10.1301 -10.1112 -10.1112 -10.1112 -10.0653
   -10.0653 -10.0653  -9.9522  -9.9522  -9.9522  -9.9158  -9.9158  -9.9158
     1.2092   1.2092   1.2092   1.2636   1.2636   1.2636   1.3102   1.3102
     1.3102   1.3977   1.4507   1.4507   1.4507   1.4739   1.5447   1.5948
     1.5967   1.5967   1.6192   1.6192   1.7149   1.7149   1.7637   1.7637
     1.8774   1.8774   1.8774   1.9571   1.9571   1.9571   2.1376   2.1376
     2.1376   2.1757   2.1757   2.1757   2.1760   2.1760   2.1760   2.2226
     2.2226   2.2226   2.2318   2.2318   2.2318   2.3428   2.3428   2.3428
     2.8004   2.8004   2.8512   2.8512   2.8859   2.8859   2.8859   2.9552
     2.9552   2.9552   2.9605   2.9605   2.9636   2.9636   2.9636   2.9881
     2.9881   2.9924   2.9924   2.9924   3.0008   3.0008   3.0008   3.0287
     3.0287   3.0287   3.1043   3.1043   3.1043   3.1145   3.1145   3.1145
     3.5141   3.5141   3.5141   3.5436   3.5436   3.5436   3.5798   3.6139
     3.6139   3.6139   3.6953   3.6953   3.6953   4.2670   4.7628   4.7628
     4.7628   5.1124   5.1124   5.1124   5.3776   5.3776   5.3776   5.4023
     5.4023   5.4023   5.8659   6.1027   6.1027   6.1027   6.1104   6.1104
     6.1104   6.1781   6.1781   6.1781   6.3539   6.3539   6.3539   6.5317
     6.5317   6.6506   6.6815   6.6815   7.0843   7.0843   7.2289   7.2289

          k = 0.0000 0.0000-0.3125 ( 15332 PWs)   bands (ev):

   -10.7097 -10.7097 -10.1910 -10.1910 -10.0910 -10.0910 -10.0910 -10.0910
   -10.0910 -10.0910  -9.9313  -9.9313  -9.9313  -9.9312  -9.9312  -9.9312
     1.2594   1.2594   1.2594   1.2594   1.2594   1.2594   1.3542   1.3542
     1.3542   1.3542   1.3542   1.3542   1.4594   1.4594   1.5374   1.5374
     1.6057   1.6057   1.6058   1.6058   1.7416   1.7416   1.7416   1.7416
     1.9110   1.9110   1.9110   1.9110   1.9110   1.9110   2.1520   2.1520
     2.1520   2.1520   2.1520   2.1520   2.2034   2.2034   2.2034   2.2034
     2.2034   2.2034   2.2889   2.2889   2.2889   2.2889   2.2889   2.2889
     2.8231   2.8231   2.8231   2.8231   2.9410   2.9410   2.9410   2.9410
     2.9410   2.9410   2.9587   2.9587   2.9587   2.9587   2.9587   2.9587
     2.9771   2.9771   2.9771   2.9771   3.0148   3.0148   3.0148   3.0148
     3.0148   3.0148   3.1117   3.1117   3.1117   3.1117   3.1117   3.1117
     3.5211   3.5211   3.5211   3.5211   3.5211   3.5211   3.6556   3.6556
     3.6556   3.6556   3.6556   3.6556   3.8977   3.8977   5.0563   5.0563
     5.0563   5.0563   5.0563   5.0563   5.2414   5.2414   5.2414   5.2414
     5.2414   5.2414   6.1653   6.1653   6.1653   6.1653   6.1653   6.1653
     6.2488   6.2488   6.2488   6.2488   6.2488   6.2488   6.2610   6.2610
     6.5969   6.5969   6.5969   6.5969   7.1663   7.1663   7.1664   7.1664

          k = 0.0000 0.1925 0.0000 ( 15306 PWs)   bands (ev):

   -10.7740 -10.4267 -10.4266 -10.1917 -10.1312 -10.1312 -10.0617 -10.0379
   -10.0379 -10.0071 -10.0071 -10.0071 -10.0071  -9.9016  -9.9016  -9.9003
     1.1705   1.1705   1.2108   1.2108   1.2108   1.2108   1.3145   1.3546
     1.3546   1.3819   1.3819   1.5437   1.5924   1.6126   1.6304   1.6304
     1.6743   1.6832   1.6832   1.6875   1.6875   1.7122   1.7852   1.8154
     1.8345   1.8345   1.8398   2.0325   2.0325   2.0325   2.0325   2.0524
     2.0524   2.0852   2.0852   2.1400   2.1507   2.1507   2.1507   2.1507
     2.1607   2.1607   2.2935   2.2935   2.3042   2.3370   2.4024   2.4024
     2.7643   2.7779   2.7917   2.8056   2.8056   2.9099   2.9099   2.9116
     2.9116   2.9123   2.9123   2.9201   2.9497   2.9497   2.9497   2.9497
     2.9637   2.9637   2.9997   3.0109   3.0109   3.0262   3.0394   3.0503
     3.0503   3.0875   3.0875   3.0875   3.0875   3.1528   3.1528   3.2328
     3.2607   3.3858   3.5025   3.5025   3.6164   3.6164   3.6164   3.6164
     3.7705   3.7705   3.8566   3.8566   3.8899   4.4512   4.4512   4.5912
     4.9191   4.9191   5.0613   5.0613   5.1124   5.5814   5.5814   5.5814
     5.5814   5.8485   5.8485   5.9247   5.9247   5.9873   5.9873   5.9873
     5.9873   5.9921   5.9921   6.1560   6.2225   6.3475   6.3475   6.3823
     6.5049   6.6921   6.6921   6.8041   6.8128   6.8129   7.1579   7.2314

          k = 0.0000 0.1925 0.1042 ( 15314 PWs)   bands (ev):

   -10.7624 -10.5182 -10.3339 -10.1862 -10.1267 -10.1267 -10.0763 -10.0744
   -10.0376 -10.0376 -10.0006  -9.9779  -9.9779  -9.9049  -9.9049  -9.9046
     1.1642   1.2114   1.2114   1.2121   1.2467   1.2467   1.3028   1.3550
     1.3696   1.3696   1.3839   1.5379   1.5646   1.6001   1.6001   1.6144
     1.6579   1.6632   1.6635   1.6755   1.7077   1.7150   1.7871   1.8099
     1.8399   1.8399   1.8461   1.9765   1.9765   1.9917   2.0719   2.0777
     2.0777   2.1098   2.1178   2.1294   2.1522   2.1522   2.1606   2.1606
     2.1678   2.1678   2.2816   2.2816   2.2840   2.3257   2.3865   2.3865
     2.7702   2.7830   2.8014   2.8202   2.8202   2.8779   2.8794   2.9171
     2.9171   2.9213   2.9376   2.9401   2.9401   2.9419   2.9508   2.9533
     2.9533   2.9638   2.9780   2.9974   3.0175   3.0352   3.0477   3.0477
     3.0558   3.0617   3.0617   3.1138   3.1138   3.1545   3.1545   3.2163
     3.3536   3.4089   3.4926   3.4926   3.5612   3.5612   3.6765   3.6765
     3.6893   3.8492   3.8554   3.8554   3.9234   4.5153   4.5153   4.6249
     4.6732   4.9548   4.9548   5.1401   5.3754   5.3754   5.4383   5.6421
     5.6693   5.7310   5.7310   5.8005   5.8005   6.0170   6.0170   6.0229
     6.1312   6.1429   6.1429   6.1786   6.2369   6.3261   6.3261   6.3971
     6.4831   6.5698   6.7022   6.7025   6.8167   6.9224   7.1493   7.2173

          k = 0.0000 0.1925 0.2083 ( 15334 PWs)   bands (ev):

   -10.7284 -10.6025 -10.2464 -10.1703 -10.1136 -10.1136 -10.1130 -10.1116
   -10.0670 -10.0670  -9.9668  -9.9518  -9.9518  -9.9176  -9.9146  -9.9146
     1.1873   1.2413   1.2413   1.2708   1.2879   1.3183   1.3183   1.3353
     1.3353   1.3915   1.4319   1.4888   1.5162   1.5197   1.5197   1.5682
     1.6198   1.6441   1.6504   1.6556   1.7341   1.7439   1.7786   1.7945
     1.8564   1.8564   1.8651   1.9256   1.9256   1.9389   2.0710   2.0994
     2.0994   2.1056   2.1333   2.1333   2.1448   2.1836   2.1845   2.1845
     2.2202   2.2202   2.2384   2.2521   2.2521   2.2935   2.3440   2.3440
     2.7869   2.7977   2.8291   2.8440   2.8487   2.8541   2.8541   2.9159
     2.9219   2.9219   2.9251   2.9279   2.9279   2.9400   2.9497   2.9497
     2.9610   2.9675   2.9905   2.9938   3.0037   3.0245   3.0416   3.0416
     3.0434   3.0434   3.0991   3.1359   3.1359   3.1560   3.1560   3.1811
     3.4634   3.4802   3.4802   3.5157   3.5157   3.5912   3.6090   3.7373
     3.7373   3.8364   3.8364   3.9196   3.9713   4.2854   4.6910   4.6910
     4.7553   5.0615   5.0615   5.1575   5.1575   5.2198   5.3187   5.4856
     5.4856   5.4967   5.7982   5.9491   5.9491   6.0693   6.0693   6.1820
     6.2128   6.2128   6.2290   6.2432   6.2697   6.2697   6.2742   6.4191
     6.4406   6.4585   6.4650   6.5990   6.9342   7.0237   7.1094   7.1760

          k = 0.0000 0.1925-0.3125 ( 15318 PWs)   bands (ev):

   -10.6740 -10.6740 -10.1704 -10.1704 -10.1452 -10.1452 -10.0931 -10.0931
   -10.0931 -10.0931  -9.9387  -9.9387  -9.9304  -9.9304  -9.9304  -9.9304
     1.2277   1.2277   1.2878   1.2878   1.2878   1.2878   1.3873   1.3873
     1.4162   1.4162   1.4162   1.4162   1.4607   1.4607   1.4867   1.4867
     1.6296   1.6296   1.6472   1.6472   1.7592   1.7593   1.7715   1.7715
     1.8850   1.8850   1.8850   1.8850   1.8962   1.8963   2.0830   2.0830
     2.1147   2.1147   2.1147   2.1147   2.1887   2.1887   2.2167   2.2167
     2.2168   2.2168   2.2442   2.2442   2.2849   2.2849   2.2849   2.2849
     2.8127   2.8127   2.8205   2.8205   2.8694   2.8694   2.8920   2.8920
     2.8920   2.8920   2.9314   2.9314   2.9401   2.9401   2.9401   2.9401
     2.9787   2.9787   2.9879   2.9879   3.0098   3.0098   3.0379   3.0379
     3.0379   3.0379   3.1408   3.1408   3.1507   3.1507   3.1507   3.1507
     3.4868   3.4868   3.4868   3.4868   3.5325   3.5325   3.7936   3.7936
     3.7936   3.7936   3.9156   3.9156   3.9682   3.9682   4.9242   4.9242
     4.9242   4.9242   5.0026   5.0026   5.2412   5.2412   5.2412   5.2412
     5.3426   5.3426   6.0661   6.0661   6.0661   6.0661   6.1325   6.1325
     6.2254   6.2254   6.2254   6.2254   6.2657   6.2657   6.3167   6.3167
     6.3696   6.3697   6.5095   6.5095   7.0349   7.0349   7.1101   7.1101

          k = 0.0000 0.3849 0.0000 ( 15322 PWs)   bands (ev):

   -10.6664 -10.3472 -10.3472 -10.3378 -10.1365 -10.1365 -10.1229 -10.1229
   -10.0174 -10.0085 -10.0085 -10.0085 -10.0085  -9.9168  -9.8987  -9.8987
     1.1855   1.1855   1.2839   1.2943   1.2943   1.3080   1.3080   1.3080
     1.3080   1.4384   1.4623   1.4623   1.6406   1.6721   1.7045   1.7073
     1.7073   1.7483   1.7483   1.7625   1.7625   1.7715   1.8059   1.8603
     1.8603   1.9057   1.9097   1.9416   1.9416   1.9416   1.9416   1.9687
     1.9687   1.9751   1.9751   2.0016   2.0686   2.0686   2.1552   2.1552
     2.1552   2.1552   2.2031   2.3248   2.3615   2.3615   2.4290   2.4290
     2.6893   2.7207   2.7533   2.7533   2.7789   2.8272   2.8272   2.8546
     2.9084   2.9084   2.9143   2.9143   2.9157   2.9157   2.9157   2.9157
     2.9346   2.9346   2.9535   2.9535   3.0085   3.0293   3.0552   3.0552
     3.1099   3.1121   3.1121   3.1121   3.1121   3.1642   3.2378   3.2378
     3.2427   3.4126   3.4126   3.4434   3.7842   3.7842   3.7842   3.7842
     4.0317   4.0317   4.1368   4.2434   4.2434   4.4018   4.4018   4.7462
     4.7462   4.9992   4.9992   5.0172   5.2562   5.2562   5.2562   5.2562
     5.4032   5.5707   5.9123   5.9123   5.9711   5.9711   6.0207   6.0207
     6.0207   6.0207   6.0637   6.0637   6.1257   6.1582   6.1582   6.1746
     6.2845   6.2845   6.4678   6.6169   6.6169   6.6711   7.0165   7.0898

          k = 0.0000 0.3849 0.1042 ( 15332 PWs)   bands (ev):

   -10.6557 -10.4309 -10.3304 -10.2628 -10.1778 -10.1319 -10.1319 -10.0685
   -10.0400 -10.0400 -10.0288  -9.9782  -9.9782  -9.9237  -9.9021  -9.9021
     1.1710   1.2351   1.2747   1.2989   1.3058   1.3058   1.3217   1.3480
     1.3480   1.4303   1.4525   1.4525   1.6134   1.6745   1.6774   1.6858
     1.6858   1.7312   1.7346   1.7565   1.7720   1.7939   1.8108   1.8525
     1.8525   1.8915   1.8995   1.8995   1.8997   1.9266   1.9506   1.9801
     1.9801   1.9930   2.0000   2.0274   2.0627   2.0627   2.1599   2.1599
     2.1742   2.1742   2.1941   2.2780   2.3413   2.3413   2.3985   2.3985
     2.7008   2.7294   2.7485   2.7485   2.7838   2.8572   2.8604   2.8604
     2.8716   2.8776   2.8913   2.8913   2.8964   2.9133   2.9282   2.9282
     2.9373   2.9536   2.9567   3.0057   3.0072   3.0252   3.0536   3.0536
     3.0769   3.0814   3.0814   3.1494   3.1494   3.1549   3.2454   3.2454
     3.3664   3.4185   3.4185   3.5256   3.6959   3.6959   3.8697   3.8697
     4.0475   4.0475   4.1291   4.1752   4.3453   4.4231   4.4231   4.6754
     4.7975   4.7975   5.0025   5.0500   5.0500   5.2829   5.4273   5.4402
     5.4402   5.5866   5.5893   5.8124   5.8124   5.8999   5.9776   5.9776
     6.0993   6.1306   6.1428   6.1522   6.1522   6.1665   6.1665   6.1826
     6.2242   6.4780   6.4846   6.4917   6.6509   6.7409   7.0004   7.0740

          k = 0.0000 0.3849 0.2083 ( 15348 PWs)   bands (ev):

   -10.6243 -10.5082 -10.3086 -10.2295 -10.1836 -10.1184 -10.1184 -10.0705
   -10.0705 -10.0622 -10.0185  -9.9512  -9.9512  -9.9438  -9.9123  -9.9123
     1.1849   1.2494   1.3195   1.3288   1.3343   1.3343   1.3830   1.4064
     1.4231   1.4231   1.4240   1.4240   1.5361   1.5886   1.6203   1.6203
     1.6815   1.7115   1.7231   1.7361   1.8000   1.8257   1.8266   1.8414
     1.8414   1.8602   1.8645   1.8645   1.8828   1.8844   1.9457   1.9732
     2.0083   2.0083   2.0444   2.0477   2.0477   2.0801   2.1680   2.1847
     2.1847   2.1863   2.2179   2.2179   2.2863   2.2863   2.3395   2.3395
     2.7339   2.7531   2.7692   2.7692   2.7978   2.8283   2.8380   2.8472
     2.8549   2.8549   2.8649   2.8938   2.9011   2.9011   2.9308   2.9308
     2.9625   2.9785   2.9881   2.9969   3.0144   3.0446   3.0507   3.0507
     3.0558   3.0612   3.0612   3.1316   3.1887   3.1887   3.2467   3.2467
     3.4529   3.4529   3.6071   3.6071   3.6309   3.6986   3.9495   3.9495
     4.0054   4.0541   4.0541   4.2848   4.3234   4.4157   4.5075   4.5075
     4.8460   4.8460   4.9497   4.9497   4.9827   5.2677   5.4329   5.4329
     5.4970   5.5169   5.6282   5.7287   5.7287   5.7435   5.9501   5.9501
     5.9541   6.0186   6.1677   6.1677   6.1928   6.2261   6.2261   6.3703
     6.3714   6.3739   6.4911   6.5914   6.6756   6.8554   6.9433   7.0274

          k = 0.0000 0.3849-0.3125 ( 15364 PWs)   bands (ev):

   -10.5741 -10.5741 -10.2742 -10.2742 -10.1150 -10.1150 -10.0974 -10.0974
   -10.0973 -10.0973  -9.9760  -9.9760  -9.9288  -9.9288  -9.9288  -9.9288
     1.2156   1.2156   1.3695   1.3695   1.3792   1.3792   1.3792   1.3792
     1.4279   1.4279   1.4767   1.4767   1.5233   1.5233   1.5233   1.5233
     1.6937   1.6937   1.7247   1.7247   1.8298   1.8298   1.8438   1.8438
     1.8439   1.8439   1.8505   1.8505   1.8572   1.8572   1.9544   1.9544
     2.0291   2.0292   2.0292   2.0292   2.1051   2.1051   2.1285   2.1285
     2.2273   2.2273   2.2273   2.2273   2.2772   2.2772   2.2772   2.2772
     2.7821   2.7821   2.7874   2.7874   2.8106   2.8106   2.8106   2.8106
     2.8196   2.8196   2.8774   2.8774   2.9232   2.9232   2.9232   2.9232
     2.9824   2.9824   2.9982   2.9982   3.0175   3.0175   3.0518   3.0518
     3.0518   3.0518   3.0979   3.0979   3.2242   3.2242   3.2242   3.2242
     3.5221   3.5221   3.5221   3.5221   3.8659   3.8659   3.9645   3.9645
     4.0163   4.0163   4.0163   4.0163   4.4022   4.4022   4.6584   4.6584
     4.6584   4.6584   5.0425   5.0425   5.1832   5.1832   5.1832   5.1832
     5.6056   5.6056   5.6481   5.6481   5.8508   5.8508   5.8508   5.8508
     5.9114   5.9114   6.2123   6.2123   6.2123   6.2123   6.2718   6.2718
     6.4675   6.4675   6.4963   6.4963   6.8340   6.8340   6.9529   6.9529

          k = 0.0000-0.5774 0.0000 ( 15374 PWs)   bands (ev):

   -10.5101 -10.5101 -10.2365 -10.2364 -10.2364 -10.2364 -10.1391 -10.1391
   -10.0092 -10.0092 -10.0092 -10.0092  -9.9618  -9.9618  -9.8973  -9.8973
     1.2289   1.2289   1.2289   1.2289   1.3327   1.3327   1.3681   1.3681
     1.3681   1.3681   1.5562   1.5562   1.6363   1.6363   1.6795   1.6795
     1.7454   1.7454   1.8479   1.8479   1.8479   1.8479   1.8681   1.8681
     1.8682   1.8682   1.8686   1.8686   1.8868   1.8868   1.8868   1.8868
     1.9537   1.9537   2.0111   2.0111   2.0433   2.0433   2.1497   2.1497
     2.1543   2.1543   2.1543   2.1543   2.3887   2.3887   2.4900   2.4900
     2.6630   2.6630   2.6688   2.6688   2.7992   2.7992   2.8013   2.8013
     2.9038   2.9038   2.9038   2.9038   2.9145   2.9145   2.9145   2.9145
     2.9256   2.9256   2.9256   2.9256   3.0184   3.0184   3.0562   3.0562
     3.1218   3.1218   3.1218   3.1218   3.1607   3.1607   3.2841   3.2841
     3.3067   3.3067   3.3842   3.3842   3.8911   3.8911   3.8911   3.8911
     4.0861   4.0861   4.4300   4.4300   4.6141   4.6141   4.7276   4.7276
     4.7276   4.7276   4.7942   4.7942   5.0791   5.0791   5.0791   5.0791
     5.5752   5.5752   5.7720   5.7720   5.9753   5.9753   5.9866   5.9866
     5.9866   5.9866   6.0294   6.0294   6.0294   6.0294   6.0554   6.0554
     6.3449   6.3449   6.3449   6.3449   6.7798   6.7798   6.8864   6.8864

          k = 0.0000-0.5774 0.1042 ( 15370 PWs)   bands (ev):

   -10.5009 -10.5009 -10.3075 -10.3075 -10.1653 -10.1653 -10.1345 -10.1344
   -10.0413 -10.0413  -9.9784  -9.9784  -9.9711  -9.9711  -9.9008  -9.9008
     1.2197   1.2197   1.2722   1.2722   1.3243   1.3243   1.3765   1.3765
     1.3968   1.3968   1.5539   1.5539   1.6146   1.6146   1.6521   1.6521
     1.7489   1.7489   1.8302   1.8302   1.8320   1.8320   1.8609   1.8609
     1.8624   1.8624   1.8756   1.8756   1.9076   1.9076   1.9125   1.9125
     1.9520   1.9520   1.9937   1.9937   2.0363   2.0363   2.1062   2.1062
     2.1559   2.1559   2.1753   2.1753   2.3736   2.3736   2.4160   2.4160
     2.6791   2.6791   2.6835   2.6835   2.8054   2.8054   2.8422   2.8422
     2.8723   2.8723   2.8740   2.8740   2.8862   2.8862   2.9202   2.9202
     2.9419   2.9419   2.9750   2.9750   3.0150   3.0150   3.0547   3.0548
     3.0879   3.0879   3.1262   3.1262   3.1639   3.1639   3.2945   3.2945
     3.4014   3.4014   3.4361   3.4361   3.7948   3.7948   3.9811   3.9811
     4.1058   4.1058   4.4247   4.4247   4.5338   4.5338   4.6797   4.6797
     4.8167   4.8167   4.8748   4.8748   4.8827   4.8827   5.2649   5.2649
     5.5467   5.5467   5.6979   5.6979   5.7924   5.7924   5.8217   5.8217
     5.9475   5.9475   6.0822   6.0822   6.1730   6.1730   6.2005   6.2005
     6.2689   6.2689   6.4873   6.4873   6.7750   6.7750   6.8683   6.8683

          k = 0.0000-0.5774 0.2083 ( 15334 PWs)   bands (ev):

   -10.4736 -10.4736 -10.3736 -10.3736 -10.1208 -10.1208 -10.0990 -10.0990
   -10.0721 -10.0721  -9.9985  -9.9985  -9.9508  -9.9508  -9.9112  -9.9112
     1.2370   1.2370   1.3010   1.3010   1.3515   1.3515   1.4193   1.4193
     1.4525   1.4525   1.5422   1.5422   1.5578   1.5578   1.5714   1.5714
     1.7594   1.7594   1.8011   1.8011   1.8238   1.8238   1.8438   1.8438
     1.8555   1.8555   1.9129   1.9129   1.9309   1.9309   1.9433   1.9433
     1.9479   1.9479   1.9480   1.9480   2.0161   2.0161   2.0266   2.0266
     2.1773   2.1773   2.2189   2.2189   2.3004   2.3004   2.3325   2.3325
     2.7188   2.7188   2.7213   2.7213   2.8172   2.8172   2.8178   2.8178
     2.8298   2.8298   2.8592   2.8592   2.8932   2.8932   2.9251   2.9251
     2.9673   2.9673   3.0048   3.0048   3.0188   3.0188   3.0526   3.0526
     3.0657   3.0657   3.0903   3.0903   3.2089   3.2089   3.2857   3.2857
     3.4762   3.4762   3.6921   3.6921   3.7014   3.7014   4.0621   4.0621
     4.1374   4.1374   4.2941   4.2941   4.4365   4.4365   4.6812   4.6812
     4.8610   4.8610   4.8814   4.8814   4.9818   4.9818   5.3213   5.3213
     5.4752   5.4752   5.4766   5.4766   5.6749   5.6749   5.8515   5.8515
     5.8681   5.8681   6.0638   6.0638   6.1468   6.1468   6.2299   6.2299
     6.5014   6.5014   6.6184   6.6184   6.7454   6.7454   6.8150   6.8150

          k = 0.0000-0.5774-0.3125 ( 15316 PWs)   bands (ev):

   -10.4303 -10.4302 -10.4302 -10.4302 -10.0994 -10.0994 -10.0994 -10.0994
   -10.0421 -10.0421 -10.0421 -10.0421  -9.9281  -9.9281  -9.9280  -9.9280
     1.2684   1.2684   1.2685   1.2685   1.4590   1.4590   1.4590   1.4590
     1.4855   1.4855   1.4855   1.4855   1.5092   1.5092   1.5092   1.5092
     1.7769   1.7769   1.7769   1.7769   1.8290   1.8290   1.8290   1.8290
     1.8839   1.8839   1.8839   1.8839   1.9415   1.9415   1.9415   1.9415
     1.9613   1.9613   1.9613   1.9613   1.9854   1.9854   1.9854   1.9854
     2.2213   2.2213   2.2213   2.2213   2.2760   2.2760   2.2760   2.2760
     2.7652   2.7652   2.7652   2.7652   2.7758   2.7758   2.7758   2.7758
     2.8357   2.8357   2.8357   2.8357   2.9180   2.9180   2.9180   2.9180
     2.9886   2.9886   2.9886   2.9886   3.0549   3.0549   3.0549   3.0549
     3.0568   3.0568   3.0568   3.0568   3.2519   3.2519   3.2519   3.2519
     3.5834   3.5834   3.5834   3.5834   4.0070   4.0070   4.0070   4.0070
     4.1231   4.1232   4.1232   4.1232   4.5232   4.5232   4.5232   4.5232
     4.9663   4.9663   4.9663   4.9663   5.1120   5.1120   5.1120   5.1120
     5.4152   5.4152   5.4152   5.4152   5.7530   5.7530   5.7531   5.7531
     5.9445   5.9445   5.9445   5.9445   6.2103   6.2103   6.2103   6.2103
     6.6609   6.6609   6.6609   6.6609   6.7300   6.7300   6.7300   6.7300

          k = 0.1667 0.2887 0.0000 ( 15324 PWs)   bands (ev):

   -10.7010 -10.3726 -10.3726 -10.2425 -10.2425 -10.0751 -10.0656 -10.0656
   -10.0655 -10.0655 -10.0312  -9.9814  -9.9814  -9.9082  -9.9023  -9.9023
     1.2074   1.2074   1.2074   1.2074   1.3146   1.3146   1.3275   1.3275
     1.3329   1.3329   1.4728   1.4842   1.6247   1.6439   1.6439   1.7101
     1.7101   1.7117   1.7534   1.7534   1.7574   1.8128   1.8128   1.8213
     1.8367   1.8574   1.8801   1.9581   1.9581   1.9714   1.9714   1.9714
     1.9714   2.0609   2.0609   2.0673   2.0673   2.0673   2.0673   2.0996
     2.2170   2.2170   2.2921   2.2921   2.3465   2.3499   2.3499   2.4593
     2.7350   2.7350   2.7376   2.7741   2.7888   2.8659   2.8659   2.8665
     2.9018   2.9018   2.9077   2.9077   2.9142   2.9142   2.9370   2.9370
     2.9370   2.9370   3.0051   3.0055   3.0055   3.0055   3.0055   3.0373
     3.0373   3.0715   3.0724   3.0847   3.1870   3.1870   3.2320   3.2320
     3.2467   3.4239   3.4239   3.5783   3.5783   3.6245   3.8494   3.9927
     3.9927   3.9927   3.9927   4.0137   4.0137   4.1089   4.7518   4.7518
     4.9037   5.0307   5.0307   5.0687   5.0687   5.1530   5.1530   5.7271
     5.7271   5.7271   5.7271   5.7576   5.8289   5.9903   5.9903   5.9903
     5.9903   6.0295   6.0295   6.0725   6.0804   6.2715   6.2715   6.4080
     6.4080   6.4221   6.4709   6.4709   6.6625   6.6625   7.0653   7.1177

          k = 0.1667 0.2887 0.1042 ( 15319 PWs)   bands (ev):

   -10.6901 -10.4588 -10.2854 -10.2363 -10.2363 -10.1102 -10.1102 -10.0716
   -10.0430 -10.0218 -10.0218 -10.0038  -9.9604  -9.9103  -9.9076  -9.9076
     1.1973   1.1973   1.2536   1.2536   1.3222   1.3222   1.3269   1.3282
     1.3322   1.3667   1.4645   1.4765   1.6161   1.6174   1.6174   1.6989
     1.7059   1.7070   1.7261   1.7560   1.7759   1.7911   1.8177   1.8177
     1.8197   1.8473   1.8744   1.9023   1.9332   1.9332   1.9922   1.9922
     2.0172   2.0525   2.0525   2.0677   2.0677   2.1023   2.1023   2.1043
     2.2219   2.2277   2.2804   2.2804   2.3133   2.3133   2.3332   2.4382
     2.7383   2.7383   2.7448   2.7796   2.8053   2.8727   2.8740   2.8769
     2.8784   2.8784   2.8960   2.9044   2.9065   2.9065   2.9367   2.9387
     2.9387   2.9504   2.9904   2.9904   3.0025   3.0339   3.0339   3.0478
     3.0478   3.0604   3.0757   3.0779   3.1744   3.1824   3.2158   3.2158
     3.3599   3.4740   3.4740   3.5436   3.6051   3.6278   3.8349   3.8929
     3.8929   4.0601   4.0601   4.0866   4.0866   4.1694   4.6817   4.7555
     4.7555   4.9328   4.9592   5.0968   5.0968   5.3488   5.3648   5.5187
     5.5187   5.6938   5.6938   5.7742   5.8448   5.8467   5.9573   5.9573
     6.0684   6.0689   6.1317   6.1923   6.1923   6.2464   6.2871   6.2871
     6.3860   6.4507   6.4507   6.5205   6.6046   6.7791   7.0497   7.1022

          k = 0.1667 0.2887 0.2083 ( 15331 PWs)   bands (ev):

   -10.6578 -10.5385 -10.2181 -10.2181 -10.2034 -10.1526 -10.1525 -10.0777
   -10.0615 -10.0259  -9.9819  -9.9819  -9.9421  -9.9232  -9.9232  -9.9167
     1.2167   1.2167   1.2929   1.2929   1.3345   1.3346   1.3559   1.3701
     1.3789   1.4392   1.4461   1.4528   1.5427   1.5427   1.5620   1.6831
     1.6840   1.6902   1.6906   1.6969   1.7782   1.8051   1.8197   1.8276
     1.8327   1.8327   1.8581   1.8583   1.8926   1.8926   2.0000   2.0000
     2.0326   2.0326   2.0667   2.1018   2.1018   2.1069   2.1540   2.1540
     2.2290   2.2290   2.2393   2.2551   2.2551   2.2611   2.3018   2.3847
     2.7617   2.7617   2.7653   2.7949   2.8337   2.8395   2.8459   2.8568
     2.8568   2.8859   2.8861   2.8977   2.8977   2.9032   2.9275   2.9275
     2.9613   2.9820   2.9944   2.9986   2.9986   3.0245   3.0245   3.0331
     3.0911   3.0955   3.0955   3.0962   3.1508   3.1580   3.1820   3.1820
     3.5310   3.5692   3.5766   3.5766   3.6172   3.6847   3.7902   3.7902
     3.7961   4.1577   4.1577   4.1648   4.1648   4.3145   4.3168   4.7142
     4.8045   4.8045   5.1160   5.1781   5.1781   5.2492   5.2492   5.4781
     5.4781   5.5552   5.6035   5.6293   5.7819   5.8994   6.0189   6.0631
     6.1028   6.1126   6.1126   6.1484   6.3067   6.3067   6.3227   6.3227
     6.3325   6.4019   6.4019   6.4290   6.7554   6.8894   6.9952   7.0567

          k = 0.1667 0.2887-0.3125 ( 15336 PWs)   bands (ev):

   -10.6062 -10.6062 -10.1895 -10.1895 -10.1895 -10.1895 -10.1325 -10.1325
   -10.0457 -10.0457  -9.9485  -9.9484  -9.9484  -9.9484  -9.9274  -9.9274
     1.2533   1.2533   1.2533   1.2533   1.3992   1.3992   1.4147   1.4147
     1.4387   1.4387   1.4387   1.4387   1.4639   1.4639   1.5577   1.5577
     1.6799   1.6799   1.6897   1.6897   1.8038   1.8038   1.8306   1.8306
     1.8338   1.8339   1.8580   1.8580   1.8580   1.8580   2.0126   2.0126
     2.0126   2.0126   2.0961   2.0961   2.1567   2.1567   2.1567   2.1567
     2.2078   2.2078   2.2078   2.2078   2.2672   2.2672   2.3183   2.3183
     2.7962   2.7962   2.8049   2.8049   2.8049   2.8049   2.8178   2.8178
     2.8682   2.8682   2.8973   2.8973   2.9137   2.9137   2.9137   2.9137
     2.9809   2.9809   3.0089   3.0089   3.0119   3.0119   3.0119   3.0119
     3.1221   3.1221   3.1225   3.1225   3.1410   3.1410   3.1410   3.1410
     3.5411   3.5411   3.6850   3.6850   3.6850   3.6850   3.7430   3.7430
     3.9496   3.9497   4.2022   4.2023   4.2023   4.2023   4.5055   4.5055
     4.9762   4.9762   4.9762   4.9762   5.3065   5.3065   5.3065   5.3065
     5.3451   5.3451   5.7053   5.7053   5.8630   5.8630   5.9857   5.9857
     6.1055   6.1055   6.2444   6.2444   6.2444   6.2444   6.3518   6.3518
     6.3746   6.3746   6.3746   6.3746   6.8948   6.8948   6.9841   6.9842

          k = 0.1667 0.4811 0.0000 ( 15347 PWs)   bands (ev):

   -10.5689 -10.4040 -10.2774 -10.2774 -10.2714 -10.1651 -10.1650 -10.0819
   -10.0819 -10.0387  -9.9813  -9.9670  -9.9670  -9.9313  -9.9167  -9.9045
     1.2207   1.2207   1.2607   1.2607   1.2698   1.2698   1.3307   1.3956
     1.4276   1.4575   1.4575   1.5413   1.6059   1.6476   1.6534   1.7418
     1.7698   1.7698   1.7736   1.8124   1.8263   1.8508   1.8581   1.8581
     1.8649   1.8649   1.8666   1.8666   1.8821   1.8821   1.9310   1.9689
     1.9689   1.9792   1.9991   2.0129   2.0600   2.0600   2.0609   2.0906
     2.1496   2.2689   2.2689   2.2729   2.2793   2.3678   2.4447   2.5405
     2.6635   2.6656   2.6940   2.7598   2.7762   2.7816   2.8189   2.8269
     2.8493   2.8493   2.9087   2.9087   2.9205   2.9205   2.9237   2.9237
     2.9241   2.9241   2.9495   2.9495   3.0129   3.0129   3.0135   3.0223
     3.0241   3.0370   3.0401   3.1622   3.1661   3.2317   3.2418   3.2418
     3.2654   3.4065   3.4640   3.5882   3.6458   3.6458   3.7451   3.9815
     4.1912   4.1912   4.3045   4.4578   4.4823   4.4823   4.6760   4.7956
     4.7956   4.8704   4.8704   4.9848   4.9853   5.1594   5.1674   5.4889
     5.5407   5.5407   5.5936   5.6427   5.8127   5.8989   5.8989   5.9942
     6.0108   6.0108   6.0492   6.0492   6.0812   6.0812   6.1104   6.1104
     6.3155   6.3810   6.3938   6.3938   6.6067   6.6789   6.8813   6.9145

          k = 0.1667 0.4811 0.1042 ( 15342 PWs)   bands (ev):

   -10.5591 -10.3958 -10.3534 -10.2648 -10.2266 -10.2011 -10.1299 -10.1039
   -10.0359 -10.0346  -9.9914  -9.9836  -9.9519  -9.9391  -9.9181  -9.9103
     1.2103   1.2619   1.2660   1.2662   1.2933   1.3101   1.3214   1.3869
     1.4155   1.4620   1.4928   1.5428   1.5932   1.6297   1.6299   1.7366
     1.7585   1.7737   1.7756   1.8032   1.8045   1.8123   1.8442   1.8468
     1.8530   1.8656   1.8773   1.8830   1.8942   1.9238   1.9330   1.9598
     1.9686   1.9708   1.9920   2.0019   2.0252   2.0483   2.0949   2.0961
     2.1410   2.2195   2.2685   2.2719   2.2793   2.3060   2.4238   2.4972
     2.6778   2.6781   2.7044   2.7420   2.7881   2.8270   2.8305   2.8336
     2.8504   2.8620   2.8721   2.8806   2.8807   2.8865   2.9031   2.9304
     2.9392   2.9539   2.9687   2.9980   2.9996   3.0102   3.0206   3.0340
     3.0353   3.0537   3.0613   3.1167   3.1499   3.1983   3.2187   3.2689
     3.4046   3.5096   3.5300   3.5769   3.5854   3.7119   3.7886   3.9722
     4.0789   4.2953   4.3426   4.3429   4.4874   4.5622   4.6022   4.6228
     4.6965   4.9868   5.0235   5.0417   5.0739   5.1492   5.1877   5.3735
     5.5000   5.5716   5.5864   5.6039   5.6424   5.8207   5.8315   5.8669
     5.9018   5.9066   5.9867   6.1065   6.1912   6.2237   6.2306   6.2811
     6.2957   6.3653   6.3915   6.5272   6.6085   6.6609   6.8715   6.8977

          k = 0.1667 0.4811 0.2083 ( 15331 PWs)   bands (ev):

   -10.5302 -10.4239 -10.3718 -10.2841 -10.2455 -10.1754 -10.1297 -10.0473
   -10.0279 -10.0211 -10.0003  -9.9914  -9.9622  -9.9391  -9.9274  -9.9222
     1.2278   1.2878   1.2922   1.2959   1.3473   1.3619   1.3621   1.3820
     1.3835   1.4948   1.5430   1.5498   1.5581   1.5638   1.5657   1.7317
     1.7444   1.7467   1.7701   1.7836   1.7840   1.7851   1.8213   1.8395
     1.8488   1.8723   1.8791   1.8811   1.9055   1.9066   1.9154   1.9486
     1.9573   1.9768   1.9848   2.0000   2.0437   2.0646   2.0873   2.1094
     2.1281   2.1431   2.1940   2.2386   2.2907   2.3040   2.3750   2.4175
     2.7147   2.7149   2.7329   2.7619   2.8040   2.8144   2.8215   2.8221
     2.8291   2.8428   2.8519   2.8655   2.8709   2.8812   2.8835   2.9215
     2.9643   2.9752   3.0008   3.0049   3.0096   3.0105   3.0259   3.0461
     3.0590   3.0778   3.1032   3.1220   3.1340   3.1480   3.1891   3.2642
     3.5452   3.5546   3.6738   3.6769   3.7353   3.7773   3.8598   3.9580
     3.9878   4.1786   4.3288   4.3367   4.3852   4.4223   4.5734   4.6863
     4.7764   5.0148   5.1235   5.1916   5.1954   5.2277   5.2328   5.2448
     5.3094   5.3151   5.5449   5.5553   5.5936   5.6232   5.7051   5.7581
     5.8836   5.9777   5.9885   6.0786   6.1243   6.2275   6.3576   6.3641
     6.4172   6.4592   6.5718   6.5802   6.6255   6.6556   6.8266   6.8506

          k = 0.1667 0.4811-0.3125 ( 15336 PWs)   bands (ev):

   -10.4842 -10.4842 -10.3337 -10.3337 -10.2149 -10.2149 -10.0683 -10.0683
   -10.0156 -10.0156  -9.9990  -9.9990  -9.9549  -9.9549  -9.9292  -9.9291
     1.2609   1.2609   1.3256   1.3256   1.3361   1.3361   1.4532   1.4532
     1.4606   1.4606   1.4732   1.4732   1.5295   1.5295   1.6589   1.6589
     1.7363   1.7363   1.7723   1.7723   1.7999   1.7999   1.8027   1.8027
     1.8387   1.8387   1.8897   1.8897   1.9077   1.9077   1.9231   1.9231
     1.9480   1.9480   2.0366   2.0366   2.0546   2.0546   2.0856   2.0857
     2.1106   2.1106   2.1940   2.1940   2.3260   2.3260   2.3491   2.3491
     2.7651   2.7651   2.7685   2.7685   2.7735   2.7735   2.7904   2.7904
     2.8258   2.8258   2.8609   2.8609   2.8741   2.8741   2.9062   2.9062
     2.9852   2.9852   2.9948   2.9948   3.0152   3.0152   3.0451   3.0451
     3.0878   3.0878   3.0984   3.0984   3.1497   3.1497   3.2145   3.2146
     3.5380   3.5380   3.8241   3.8241   3.8357   3.8357   3.9760   3.9760
     4.0019   4.0020   4.1332   4.1332   4.4414   4.4414   4.6771   4.6771
     4.9707   4.9707   5.1070   5.1070   5.1373   5.1373   5.3006   5.3006
     5.3374   5.3374   5.5231   5.5231   5.5380   5.5380   5.6334   5.6334
     5.9895   5.9895   6.0343   6.0343   6.1164   6.1164   6.4214   6.4214
     6.4880   6.4880   6.5746   6.5746   6.7303   6.7303   6.7681   6.7681

          k = 0.3333 0.5774 0.0000 ( 15300 PWs)   bands (ev):

   -10.4277 -10.4277 -10.4277 -10.1805 -10.1805 -10.1805 -10.1805 -10.1805
   -10.1805  -9.9631  -9.9631  -9.9519  -9.9519  -9.9372  -9.9372  -9.9372
     1.2487   1.2487   1.2487   1.2487   1.2487   1.2487   1.3921   1.3921
     1.3921   1.5514   1.5514   1.5548   1.6016   1.6016   1.6016   1.8048
     1.8048   1.8121   1.8121   1.8121   1.8121   1.8121   1.8121   1.8201
     1.8201   1.8201   1.8618   1.8618   1.8618   1.9346   1.9346   1.9675
     1.9675   1.9675   1.9675   1.9675   1.9675   2.1377   2.1377   2.1377
     2.2377   2.2377   2.2377   2.3063   2.3466   2.3466   2.5874   2.5874
     2.6690   2.6690   2.6690   2.7079   2.7895   2.7895   2.8000   2.8000
     2.8000   2.8467   2.8603   2.8603   2.9163   2.9163   2.9163   2.9163
     2.9163   2.9163   2.9511   2.9511   2.9511   2.9511   2.9511   2.9511
     3.0220   3.0220   3.0220   3.1739   3.1739   3.1739   3.3113   3.3113
     3.3923   3.3923   3.3923   3.5293   3.5970   3.5970   3.7737   3.7737
     4.5918   4.5918   4.5918   4.5918   4.5918   4.5918   4.5950   4.5950
     4.7499   4.7499   4.7499   4.9973   4.9973   4.9973   5.3741   5.3741
     5.5569   5.5668   5.5668   5.5668   5.8911   5.8911   5.8911   5.8911
     5.8911   5.8911   6.0601   6.0601   6.0846   6.0846   6.0846   6.0846
     6.0846   6.0846   6.6266   6.6266   6.6266   6.6650   6.6650   6.6650

          k = 0.3333 0.5774 0.1042 ( 15315 PWs)   bands (ev):

   -10.4192 -10.4192 -10.4192 -10.2443 -10.2443 -10.2443 -10.1170 -10.1170
   -10.1170  -9.9624  -9.9624  -9.9527  -9.9526  -9.9453  -9.9453  -9.9453
     1.2468   1.2468   1.2468   1.2857   1.2857   1.2857   1.3817   1.3817
     1.3817   1.5614   1.5750   1.5750   1.5874   1.5874   1.5874   1.7285
     1.8042   1.8042   1.8042   1.8161   1.8161   1.8161   1.8171   1.8171
     1.8171   1.8530   1.8530   1.8530   1.8938   1.9081   1.9081   1.9562
     1.9562   1.9562   1.9970   1.9970   1.9970   2.1298   2.1298   2.1298
     2.1835   2.1835   2.1835   2.2753   2.3523   2.3523   2.5371   2.5371
     2.6811   2.6811   2.6811   2.7135   2.7734   2.8048   2.8126   2.8126
     2.8126   2.8445   2.8780   2.8780   2.8780   2.9002   2.9002   2.9002
     2.9220   2.9220   2.9541   2.9541   2.9541   2.9979   2.9979   2.9979
     3.0185   3.0185   3.0185   3.1534   3.1534   3.1534   3.2884   3.2884
     3.5014   3.5014   3.5014   3.5748   3.6114   3.6114   3.7615   3.7615
     4.3455   4.4335   4.4335   4.4335   4.7282   4.7282   4.7282   4.7825
     4.7825   4.7825   4.8408   4.9963   4.9963   4.9963   5.4224   5.4224
     5.5228   5.5608   5.5608   5.5608   5.6394   5.6394   5.6394   5.8216
     5.8216   5.8216   6.0156   6.0156   6.1744   6.1744   6.1744   6.2804
     6.2804   6.2804   6.6051   6.6051   6.6051   6.6678   6.6678   6.6678

          k = 0.3333 0.5774 0.2083 ( 15312 PWs)   bands (ev):

   -10.3945 -10.3945 -10.3945 -10.3039 -10.3039 -10.3038 -10.0581 -10.0581
   -10.0581  -9.9694  -9.9694  -9.9694  -9.9603  -9.9603  -9.9547  -9.9547
     1.2722   1.2722   1.2722   1.3527   1.3527   1.3527   1.3580   1.3580
     1.3580   1.5379   1.5379   1.5379   1.5822   1.6412   1.6412   1.6658
     1.7992   1.7992   1.7992   1.8075   1.8075   1.8075   1.8167   1.8167
     1.8167   1.8332   1.8332   1.8332   1.8348   1.8348   1.9706   1.9706
     1.9706   1.9929   2.0351   2.0351   2.0351   2.0855   2.0855   2.0855
     2.1073   2.1073   2.1073   2.1974   2.3699   2.3699   2.4599   2.4599
     2.7148   2.7148   2.7148   2.7265   2.7573   2.8188   2.8199   2.8199
     2.8199   2.8344   2.8344   2.8344   2.8390   2.8778   2.8778   2.8778
     2.9745   2.9745   2.9745   3.0086   3.0086   3.0086   3.0333   3.0333
     3.0457   3.0457   3.0457   3.1223   3.1223   3.1223   3.2277   3.2277
     3.6461   3.6461   3.7008   3.7301   3.7301   3.7408   3.7408   3.7408
     4.1042   4.2424   4.2424   4.2424   4.8445   4.8445   4.8445   4.8851
     4.8851   4.8851   4.9819   4.9819   4.9819   5.0700   5.3308   5.3308
     5.3308   5.4239   5.5518   5.5519   5.5618   5.5618   5.5618   5.6965
     5.6965   5.6965   5.8933   5.8933   6.3162   6.3162   6.3162   6.4821
     6.4821   6.4821   6.5424   6.5424   6.5424   6.6600   6.6600   6.6600

          k = 0.3333 0.5774-0.3125 ( 15354 PWs)   bands (ev):

   -10.3551 -10.3551 -10.3551 -10.3551 -10.3551 -10.3551 -10.0078 -10.0078
   -10.0078 -10.0078 -10.0078 -10.0078  -9.9575  -9.9575  -9.9575  -9.9575
     1.3121   1.3121   1.3121   1.3121   1.3121   1.3121   1.4520   1.4520
     1.4520   1.4520   1.4520   1.4520   1.6168   1.6168   1.7359   1.7359
     1.7359   1.7359   1.8004   1.8004   1.8004   1.8004   1.8004   1.8004
     1.8191   1.8191   1.8191   1.8191   1.8191   1.8191   2.0122   2.0122
     2.0122   2.0122   2.0122   2.0122   2.0740   2.0740   2.0740   2.0740
     2.0740   2.0740   2.0972   2.0972   2.4038   2.4038   2.4038   2.4038
     2.7415   2.7415   2.7633   2.7633   2.7633   2.7633   2.7633   2.7633
     2.8300   2.8300   2.8558   2.8558   2.8558   2.8558   2.8558   2.8558
     2.9935   2.9935   2.9935   2.9935   2.9935   2.9935   3.0872   3.0872
     3.0872   3.0873   3.0873   3.0873   3.1399   3.1399   3.1399   3.1399
     3.6886   3.6886   3.6886   3.6886   3.8840   3.8840   4.0072   4.0072
     4.0072   4.0072   4.0072   4.0072   4.9326   4.9327   4.9327   4.9327
     4.9327   4.9327   5.0681   5.0681   5.0681   5.0681   5.0681   5.0681
     5.2689   5.2689   5.6037   5.6037   5.6037   5.6037   5.6037   5.6037
     5.7243   5.7243   5.7243   5.7243   6.4433   6.4434   6.4434   6.4434
     6.4434   6.4434   6.6073   6.6073   6.6073   6.6073   6.6073   6.6073

          k = 0.0000-0.1925 0.1042 ( 15314 PWs)   bands (ev):

   -10.7624 -10.5182 -10.3339 -10.1862 -10.1267 -10.1267 -10.0763 -10.0744
   -10.0376 -10.0376 -10.0006  -9.9779  -9.9779  -9.9049  -9.9049  -9.9046
     1.1642   1.2114   1.2114   1.2121   1.2467   1.2467   1.3028   1.3550
     1.3696   1.3696   1.3839   1.5379   1.5646   1.6001   1.6001   1.6144
     1.6579   1.6632   1.6635   1.6755   1.7077   1.7150   1.7871   1.8099
     1.8399   1.8399   1.8461   1.9765   1.9765   1.9917   2.0719   2.0777
     2.0777   2.1098   2.1178   2.1294   2.1522   2.1522   2.1606   2.1606
     2.1678   2.1678   2.2816   2.2816   2.2840   2.3257   2.3865   2.3865
     2.7702   2.7830   2.8014   2.8202   2.8202   2.8779   2.8794   2.9171
     2.9171   2.9213   2.9376   2.9401   2.9401   2.9419   2.9508   2.9533
     2.9533   2.9638   2.9780   2.9974   3.0175   3.0352   3.0477   3.0477
     3.0558   3.0617   3.0617   3.1138   3.1138   3.1545   3.1545   3.2163
     3.3536   3.4089   3.4926   3.4926   3.5612   3.5612   3.6765   3.6765
     3.6893   3.8492   3.8554   3.8554   3.9234   4.5153   4.5153   4.6249
     4.6732   4.9548   4.9548   5.1401   5.3754   5.3754   5.4383   5.6421
     5.6693   5.7310   5.7310   5.8005   5.8005   6.0170   6.0170   6.0229
     6.1312   6.1429   6.1429   6.1786   6.2369   6.3261   6.3261   6.3971
     6.4831   6.5698   6.7022   6.7025   6.8167   6.9224   7.1493   7.2173

          k = 0.0000-0.1925 0.2083 ( 15334 PWs)   bands (ev):

   -10.7284 -10.6025 -10.2464 -10.1703 -10.1136 -10.1136 -10.1130 -10.1116
   -10.0670 -10.0670  -9.9668  -9.9518  -9.9518  -9.9176  -9.9146  -9.9146
     1.1873   1.2413   1.2413   1.2708   1.2879   1.3183   1.3183   1.3353
     1.3353   1.3915   1.4319   1.4888   1.5162   1.5197   1.5197   1.5682
     1.6198   1.6441   1.6504   1.6556   1.7341   1.7439   1.7786   1.7945
     1.8564   1.8564   1.8651   1.9256   1.9256   1.9389   2.0711   2.0994
     2.0994   2.1056   2.1333   2.1333   2.1448   2.1836   2.1845   2.1845
     2.2202   2.2202   2.2384   2.2521   2.2521   2.2935   2.3440   2.3440
     2.7869   2.7977   2.8291   2.8440   2.8487   2.8541   2.8541   2.9159
     2.9219   2.9219   2.9251   2.9279   2.9279   2.9400   2.9497   2.9497
     2.9610   2.9675   2.9905   2.9938   3.0037   3.0245   3.0416   3.0416
     3.0434   3.0434   3.0991   3.1359   3.1359   3.1560   3.1560   3.1811
     3.4634   3.4802   3.4802   3.5157   3.5157   3.5912   3.6090   3.7373
     3.7373   3.8364   3.8364   3.9196   3.9713   4.2854   4.6910   4.6910
     4.7553   5.0615   5.0615   5.1575   5.1575   5.2198   5.3187   5.4856
     5.4856   5.4967   5.7982   5.9491   5.9491   6.0693   6.0693   6.1820
     6.2128   6.2128   6.2290   6.2432   6.2697   6.2697   6.2742   6.4191
     6.4406   6.4585   6.4650   6.5990   6.9342   7.0237   7.1094   7.1760

          k = 0.0000-0.3849 0.1042 ( 15332 PWs)   bands (ev):

   -10.6557 -10.4309 -10.3304 -10.2628 -10.1778 -10.1319 -10.1319 -10.0685
   -10.0400 -10.0400 -10.0288  -9.9782  -9.9782  -9.9237  -9.9021  -9.9021
     1.1710   1.2351   1.2747   1.2989   1.3058   1.3058   1.3217   1.3480
     1.3480   1.4303   1.4525   1.4525   1.6134   1.6745   1.6773   1.6858
     1.6858   1.7312   1.7346   1.7565   1.7720   1.7939   1.8108   1.8525
     1.8525   1.8915   1.8995   1.8995   1.8997   1.9266   1.9506   1.9801
     1.9801   1.9930   2.0000   2.0274   2.0627   2.0627   2.1599   2.1599
     2.1742   2.1742   2.1941   2.2780   2.3413   2.3413   2.3985   2.3985
     2.7008   2.7294   2.7485   2.7485   2.7838   2.8572   2.8604   2.8604
     2.8716   2.8776   2.8913   2.8913   2.8964   2.9133   2.9282   2.9282
     2.9373   2.9536   2.9567   3.0057   3.0072   3.0252   3.0536   3.0536
     3.0769   3.0814   3.0814   3.1494   3.1494   3.1549   3.2454   3.2454
     3.3664   3.4185   3.4185   3.5256   3.6959   3.6959   3.8697   3.8697
     4.0475   4.0475   4.1291   4.1752   4.3453   4.4231   4.4231   4.6754
     4.7975   4.7975   5.0025   5.0500   5.0500   5.2829   5.4273   5.4402
     5.4402   5.5866   5.5893   5.8124   5.8124   5.8999   5.9776   5.9776
     6.0993   6.1306   6.1428   6.1522   6.1522   6.1665   6.1665   6.1826
     6.2242   6.4780   6.4846   6.4917   6.6509   6.7409   7.0004   7.0740

          k = 0.0000-0.3849 0.2083 ( 15348 PWs)   bands (ev):

   -10.6243 -10.5082 -10.3086 -10.2295 -10.1836 -10.1184 -10.1184 -10.0705
   -10.0705 -10.0622 -10.0185  -9.9512  -9.9512  -9.9438  -9.9123  -9.9123
     1.1849   1.2494   1.3195   1.3288   1.3343   1.3343   1.3830   1.4064
     1.4231   1.4231   1.4240   1.4240   1.5361   1.5886   1.6203   1.6203
     1.6815   1.7115   1.7231   1.7361   1.8000   1.8257   1.8266   1.8414
     1.8414   1.8602   1.8645   1.8645   1.8828   1.8844   1.9457   1.9732
     2.0083   2.0083   2.0444   2.0477   2.0477   2.0801   2.1680   2.1847
     2.1847   2.1863   2.2179   2.2179   2.2863   2.2863   2.3395   2.3395
     2.7339   2.7531   2.7692   2.7692   2.7978   2.8283   2.8380   2.8472
     2.8549   2.8549   2.8649   2.8938   2.9011   2.9011   2.9308   2.9308
     2.9625   2.9785   2.9881   2.9969   3.0144   3.0446   3.0507   3.0507
     3.0558   3.0612   3.0612   3.1316   3.1887   3.1887   3.2467   3.2467
     3.4529   3.4529   3.6071   3.6071   3.6309   3.6986   3.9495   3.9495
     4.0054   4.0541   4.0541   4.2848   4.3234   4.4157   4.5075   4.5075
     4.8460   4.8460   4.9497   4.9497   4.9827   5.2677   5.4329   5.4329
     5.4970   5.5169   5.6282   5.7287   5.7287   5.7435   5.9501   5.9501
     5.9541   6.0186   6.1677   6.1677   6.1928   6.2261   6.2261   6.3703
     6.3714   6.3739   6.4911   6.5914   6.6756   6.8554   6.9433   7.0274

          k =-0.1667-0.4811 0.1042 ( 15342 PWs)   bands (ev):

   -10.5591 -10.3958 -10.3534 -10.2648 -10.2266 -10.2011 -10.1299 -10.1039
   -10.0359 -10.0346  -9.9914  -9.9836  -9.9519  -9.9391  -9.9181  -9.9103
     1.2103   1.2619   1.2660   1.2662   1.2933   1.3101   1.3214   1.3869
     1.4155   1.4620   1.4928   1.5428   1.5932   1.6297   1.6299   1.7366
     1.7585   1.7737   1.7756   1.8032   1.8045   1.8123   1.8442   1.8468
     1.8530   1.8656   1.8773   1.8830   1.8942   1.9238   1.9330   1.9598
     1.9686   1.9708   1.9920   2.0019   2.0252   2.0483   2.0949   2.0961
     2.1410   2.2195   2.2685   2.2719   2.2793   2.3060   2.4238   2.4972
     2.6778   2.6781   2.7045   2.7420   2.7881   2.8270   2.8305   2.8336
     2.8504   2.8620   2.8721   2.8806   2.8807   2.8865   2.9031   2.9304
     2.9392   2.9539   2.9687   2.9980   2.9996   3.0102   3.0206   3.0340
     3.0353   3.0537   3.0613   3.1167   3.1499   3.1983   3.2187   3.2689
     3.4046   3.5096   3.5300   3.5769   3.5854   3.7119   3.7886   3.9722
     4.0789   4.2953   4.3426   4.3429   4.4874   4.5622   4.6022   4.6228
     4.6965   4.9868   5.0235   5.0417   5.0739   5.1492   5.1877   5.3735
     5.5000   5.5715   5.5864   5.6039   5.6424   5.8207   5.8315   5.8669
     5.9018   5.9066   5.9867   6.1065   6.1912   6.2237   6.2306   6.2811
     6.2957   6.3653   6.3915   6.5272   6.6085   6.6609   6.8715   6.8977

          k =-0.1667-0.4811 0.2083 ( 15331 PWs)   bands (ev):

   -10.5302 -10.4239 -10.3718 -10.2841 -10.2455 -10.1754 -10.1297 -10.0473
   -10.0279 -10.0211 -10.0003  -9.9914  -9.9622  -9.9391  -9.9274  -9.9222
     1.2278   1.2878   1.2922   1.2959   1.3473   1.3619   1.3621   1.3820
     1.3835   1.4948   1.5430   1.5498   1.5582   1.5638   1.5657   1.7317
     1.7444   1.7467   1.7701   1.7836   1.7840   1.7851   1.8213   1.8395
     1.8488   1.8723   1.8791   1.8811   1.9055   1.9066   1.9154   1.9486
     1.9573   1.9768   1.9848   2.0000   2.0437   2.0646   2.0873   2.1094
     2.1281   2.1431   2.1940   2.2386   2.2907   2.3040   2.3750   2.4175
     2.7147   2.7149   2.7329   2.7619   2.8040   2.8144   2.8215   2.8221
     2.8291   2.8428   2.8519   2.8655   2.8709   2.8812   2.8835   2.9215
     2.9643   2.9752   3.0008   3.0049   3.0096   3.0105   3.0259   3.0461
     3.0590   3.0778   3.1032   3.1220   3.1340   3.1480   3.1891   3.2642
     3.5452   3.5546   3.6738   3.6769   3.7353   3.7773   3.8598   3.9580
     3.9878   4.1786   4.3288   4.3367   4.3852   4.4223   4.5734   4.6863
     4.7764   5.0148   5.1235   5.1916   5.1954   5.2277   5.2328   5.2448
     5.3094   5.3151   5.5449   5.5553   5.5936   5.6232   5.7051   5.7581
     5.8836   5.9777   5.9885   6.0786   6.1243   6.2275   6.3576   6.3641
     6.4172   6.4592   6.5718   6.5802   6.6255   6.6556   6.8266   6.8506

     highest occupied level (ev):     7.2814

!    total energy              =   -2893.08044683 Ry
     estimated scf accuracy    <          5.3E-09 Ry

     The total energy is the sum of the following terms:
     one-electron contribution =   -1211.51400406 Ry
     hartree contribution      =     937.60464731 Ry
     xc contribution           =    -876.81414647 Ry
     ewald contribution        =   -1742.35694360 Ry

     convergence has been achieved in  32 iterations

     Forces acting on atoms (cartesian axes, Ry/au):

     atom    1 type  1   force =     0.00000000    0.00000000    0.00157823
     atom    2 type  2   force =     0.00000000   -0.00000028   -0.00157654
     atom    3 type  1   force =     0.00000000    0.00000068    0.00157063
     atom    4 type  2   force =     0.00000000    0.00000000   -0.00157812
     atom    5 type  1   force =     0.00000000    0.00000000    0.00157357
     atom    6 type  2   force =     0.00000000    0.00000124   -0.00157326
     atom    7 type  1   force =     0.00000000    0.00000001    0.00157932
     atom    8 type  2   force =     0.00000000    0.00000000   -0.00157350
     atom    9 type  1   force =     0.00000012    0.00000007    0.00157924
     atom   10 type  2   force =    -0.00000024    0.00000014   -0.00157654
     atom   11 type  1   force =     0.00000059   -0.00000034    0.00157063
     atom   12 type  2   force =     0.00000064    0.00000037   -0.00157819
     atom   13 type  1   force =     0.00000136    0.00000079    0.00157241
     atom   14 type  2   force =     0.00000107   -0.00000062   -0.00157326
     atom   15 type  1   force =     0.00000001   -0.00000001    0.00157932
     atom   16 type  2   force =    -0.00000022   -0.00000012   -0.00157373
     atom   17 type  1   force =     0.00000000   -0.00000014    0.00157924
     atom   18 type  2   force =     0.00000000    0.00000000   -0.00157660
     atom   19 type  1   force =     0.00000000    0.00000000    0.00156990
     atom   20 type  2   force =     0.00000000   -0.00000074   -0.00157819
     atom   21 type  1   force =     0.00000000   -0.00000157    0.00157241
     atom   22 type  2   force =     0.00000000    0.00000000   -0.00157324
     atom   23 type  1   force =     0.00000000    0.00000000    0.00158014
     atom   24 type  2   force =    -0.00000000    0.00000025   -0.00157373
     atom   25 type  1   force =    -0.00000012    0.00000007    0.00157924
     atom   26 type  2   force =     0.00000024    0.00000014   -0.00157654
     atom   27 type  1   force =    -0.00000059   -0.00000034    0.00157063
     atom   28 type  2   force =    -0.00000064    0.00000037   -0.00157819
     atom   29 type  1   force =    -0.00000136    0.00000079    0.00157241
     atom   30 type  2   force =    -0.00000107   -0.00000062   -0.00157326
     atom   31 type  1   force =    -0.00000001   -0.00000001    0.00157932
     atom   32 type  2   force =     0.00000022   -0.00000012   -0.00157373
     The non-local contrib.  to forces
     atom    1 type  1   force =     0.00000000    0.00000000    0.02430124
     atom    2 type  2   force =     0.00000000   -0.00000014    0.01078978
     atom    3 type  1   force =     0.00000000    0.00000007    0.02429046
     atom    4 type  2   force =     0.00000000    0.00000000    0.01079065
     atom    5 type  1   force =     0.00000000   -0.00000000    0.02429414
     atom    6 type  2   force =     0.00000000    0.00000078    0.01079601
     atom    7 type  1   force =     0.00000000   -0.00000013    0.02430695
     atom    8 type  2   force =     0.00000000    0.00000000    0.01079495
     atom    9 type  1   force =     0.00000028    0.00000016    0.02430184
     atom   10 type  2   force =    -0.00000012    0.00000007    0.01078978
     atom   11 type  1   force =     0.00000006   -0.00000003    0.02429046
     atom   12 type  2   force =     0.00000034    0.00000019    0.01078985
     atom   13 type  1   force =    -0.00000092   -0.00000053    0.02429372
     atom   14 type  2   force =     0.00000067   -0.00000039    0.01079601
     atom   15 type  1   force =    -0.00000012    0.00000007    0.02430695
     atom   16 type  2   force =     0.00000004    0.00000002    0.01079570
     atom   17 type  1   force =     0.00000000   -0.00000032    0.02430184
     atom   18 type  2   force =     0.00000000    0.00000000    0.01079008
     atom   19 type  1   force =     0.00000000    0.00000000    0.02429075
     atom   20 type  2   force =     0.00000000   -0.00000039    0.01078985
     atom   21 type  1   force =     0.00000000    0.00000106    0.02429372
     atom   22 type  2   force =     0.00000000    0.00000000    0.01079570
     atom   23 type  1   force =     0.00000000    0.00000000    0.02430567
     atom   24 type  2   force =     0.00000000   -0.00000004    0.01079570
     atom   25 type  1   force =    -0.00000028    0.00000016    0.02430184
     atom   26 type  2   force =     0.00000012    0.00000007    0.01078978
     atom   27 type  1   force =    -0.00000006   -0.00000003    0.02429046
     atom   28 type  2   force =    -0.00000034    0.00000019    0.01078985
     atom   29 type  1   force =     0.00000092   -0.00000053    0.02429372
     atom   30 type  2   force =    -0.00000067   -0.00000039    0.01079601
     atom   31 type  1   force =     0.00000012    0.00000007    0.02430695
     atom   32 type  2   force =    -0.00000004    0.00000002    0.01079570
     The ionic contribution  to forces
     atom    1 type  1   force =    -0.00000000    0.00000000    0.07991262
     atom    2 type  2   force =    -0.00000000   -0.00000000   -0.07991262
     atom    3 type  1   force =     0.00000000   -0.00000000    0.07991262
     atom    4 type  2   force =     0.00000000    0.00000000   -0.07991262
     atom    5 type  1   force =    -0.00000000    0.00000000    0.07991262
     atom    6 type  2   force =    -0.00000000   -0.00000000   -0.07991262
     atom    7 type  1   force =     0.00000000   -0.00000000    0.07991262
     atom    8 type  2   force =    -0.00000000    0.00000000   -0.07991262
     atom    9 type  1   force =    -0.00000000    0.00000000    0.07991262
     atom   10 type  2   force =     0.00000000   -0.00000000   -0.07991262
     atom   11 type  1   force =     0.00000000   -0.00000000    0.07991262
     atom   12 type  2   force =     0.00000000    0.00000000   -0.07991262
     atom   13 type  1   force =    -0.00000000    0.00000000    0.07991262
     atom   14 type  2   force =     0.00000000   -0.00000000   -0.07991262
     atom   15 type  1   force =     0.00000000   -0.00000000    0.07991262
     atom   16 type  2   force =     0.00000000    0.00000000   -0.07991262
     atom   17 type  1   force =     0.00000000    0.00000000    0.07991262
     atom   18 type  2   force =    -0.00000000   -0.00000000   -0.07991262
     atom   19 type  1   force =    -0.00000000   -0.00000000    0.07991262
     atom   20 type  2   force =    -0.00000000    0.00000000   -0.07991262
     atom   21 type  1   force =    -0.00000000    0.00000000    0.07991262
     atom   22 type  2   force =    -0.00000000   -0.00000000   -0.07991262
     atom   23 type  1   force =     0.00000000   -0.00000000    0.07991262
     atom   24 type  2   force =    -0.00000000    0.00000000   -0.07991262
     atom   25 type  1   force =     0.00000000    0.00000000    0.07991262
     atom   26 type  2   force =     0.00000000   -0.00000000   -0.07991262
     atom   27 type  1   force =     0.00000000   -0.00000000    0.07991262
     atom   28 type  2   force =     0.00000000    0.00000000   -0.07991262
     atom   29 type  1   force =    -0.00000000    0.00000000    0.07991262
     atom   30 type  2   force =     0.00000000   -0.00000000   -0.07991262
     atom   31 type  1   force =     0.00000000   -0.00000000    0.07991262
     atom   32 type  2   force =     0.00000000    0.00000000   -0.07991262
     The local contribution  to forces
     atom    1 type  1   force =    -0.00000000   -0.00000000   -0.10073165
     atom    2 type  2   force =     0.00000000   -0.00000079    0.06760851
     atom    3 type  1   force =     0.00000000   -0.00000065   -0.10073042
     atom    4 type  2   force =     0.00000000   -0.00000000    0.06760365
     atom    5 type  1   force =    -0.00000000   -0.00000000   -0.10073826
     atom    6 type  2   force =    -0.00000000    0.00000014    0.06760403
     atom    7 type  1   force =     0.00000000    0.00000029   -0.10074051
     atom    8 type  2   force =    -0.00000000    0.00000000    0.06760633
     atom    9 type  1   force =    -0.00000057   -0.00000033   -0.10073263
     atom   10 type  2   force =    -0.00000069    0.00000039    0.06760851
     atom   11 type  1   force =    -0.00000055    0.00000031   -0.10073042
     atom   12 type  2   force =    -0.00000036   -0.00000021    0.06760434
     atom   13 type  1   force =     0.00000044    0.00000026   -0.10073686
     atom   14 type  2   force =     0.00000012   -0.00000007    0.06760403
     atom   15 type  1   force =     0.00000026   -0.00000016   -0.10074051
     atom   16 type  2   force =    -0.00000096   -0.00000055    0.06760428
     atom   17 type  1   force =    -0.00000000    0.00000066   -0.10073263
     atom   18 type  2   force =    -0.00000000   -0.00000000    0.06760810
     atom   19 type  1   force =    -0.00000000   -0.00000001   -0.10073066
     atom   20 type  2   force =    -0.00000000    0.00000042    0.06760434
     atom   21 type  1   force =    -0.00000000   -0.00000051   -0.10073686
     atom   22 type  2   force =    -0.00000000   -0.00000000    0.06760415
     atom   23 type  1   force =    -0.00000000   -0.00000001   -0.10073898
     atom   24 type  2   force =    -0.00000000    0.00000110    0.06760428
     atom   25 type  1   force =     0.00000057   -0.00000033   -0.10073263
     atom   26 type  2   force =     0.00000069    0.00000039    0.06760851
     atom   27 type  1   force =     0.00000055    0.00000031   -0.10073042
     atom   28 type  2   force =     0.00000036   -0.00000021    0.06760434
     atom   29 type  1   force =    -0.00000044    0.00000026   -0.10073686
     atom   30 type  2   force =    -0.00000012   -0.00000007    0.06760403
     atom   31 type  1   force =    -0.00000026   -0.00000016   -0.10074051
     atom   32 type  2   force =     0.00000096   -0.00000055    0.06760428
     The core correction contribution to forces
     atom    1 type  1   force =     0.00000000    0.00000000   -0.00190107
     atom    2 type  2   force =     0.00000000    0.00000000   -0.00006211
     atom    3 type  1   force =     0.00000000    0.00000000   -0.00189712
     atom    4 type  2   force =    -0.00000000    0.00000000   -0.00005993
     atom    5 type  1   force =     0.00000000   -0.00000000   -0.00189809
     atom    6 type  2   force =     0.00000000   -0.00000001   -0.00006234
     atom    7 type  1   force =    -0.00000000   -0.00000001   -0.00190200
     atom    8 type  2   force =     0.00000000   -0.00000000   -0.00006449
     atom    9 type  1   force =     0.00000001    0.00000001   -0.00190109
     atom   10 type  2   force =     0.00000000   -0.00000000   -0.00006211
     atom   11 type  1   force =     0.00000000   -0.00000000   -0.00189712
     atom   12 type  2   force =    -0.00000000   -0.00000000   -0.00005992
     atom   13 type  1   force =    -0.00000001   -0.00000000   -0.00189806
     atom   14 type  2   force =    -0.00000001    0.00000000   -0.00006234
     atom   15 type  1   force =    -0.00000001    0.00000000   -0.00190200
     atom   16 type  2   force =    -0.00000000   -0.00000000   -0.00006450
     atom   17 type  1   force =    -0.00000000   -0.00000002   -0.00190109
     atom   18 type  2   force =    -0.00000000    0.00000000   -0.00006212
     atom   19 type  1   force =    -0.00000000   -0.00000000   -0.00189711
     atom   20 type  2   force =     0.00000000    0.00000000   -0.00005992
     atom   21 type  1   force =    -0.00000000    0.00000001   -0.00189806
     atom   22 type  2   force =     0.00000000    0.00000000   -0.00006234
     atom   23 type  1   force =    -0.00000000   -0.00000000   -0.00190201
     atom   24 type  2   force =    -0.00000000    0.00000000   -0.00006450
     atom   25 type  1   force =    -0.00000001    0.00000001   -0.00190109
     atom   26 type  2   force =    -0.00000000   -0.00000000   -0.00006211
     atom   27 type  1   force =    -0.00000000   -0.00000000   -0.00189712
     atom   28 type  2   force =     0.00000000   -0.00000000   -0.00005992
     atom   29 type  1   force =     0.00000001   -0.00000000   -0.00189806
     atom   30 type  2   force =     0.00000001    0.00000000   -0.00006234
     atom   31 type  1   force =     0.00000001    0.00000000   -0.00190200
     atom   32 type  2   force =     0.00000000   -0.00000000   -0.00006450
     The Hubbard contrib.    to forces
     atom    1 type  1   force =     0.00000000    0.00000000    0.00000000
     atom    2 type  2   force =     0.00000000    0.00000000    0.00000000
     atom    3 type  1   force =     0.00000000    0.00000000    0.00000000
     atom    4 type  2   force =     0.00000000    0.00000000    0.00000000
     atom    5 type  1   force =     0.00000000    0.00000000    0.00000000
     atom    6 type  2   force =     0.00000000    0.00000000    0.00000000
     atom    7 type  1   force =     0.00000000    0.00000000    0.00000000
     atom    8 type  2   force =     0.00000000    0.00000000    0.00000000
     atom    9 type  1   force =     0.00000000    0.00000000    0.00000000
     atom   10 type  2   force =     0.00000000    0.00000000    0.00000000
     atom   11 type  1   force =     0.00000000    0.00000000    0.00000000
     atom   12 type  2   force =     0.00000000    0.00000000    0.00000000
     atom   13 type  1   force =     0.00000000    0.00000000    0.00000000
     atom   14 type  2   force =     0.00000000    0.00000000    0.00000000
     atom   15 type  1   force =     0.00000000    0.00000000    0.00000000
     atom   16 type  2   force =     0.00000000    0.00000000    0.00000000
     atom   17 type  1   force =     0.00000000    0.00000000    0.00000000
     atom   18 type  2   force =     0.00000000    0.00000000    0.00000000
     atom   19 type  1   force =     0.00000000    0.00000000    0.00000000
     atom   20 type  2   force =     0.00000000    0.00000000    0.00000000
     atom   21 type  1   force =     0.00000000    0.00000000    0.00000000
     atom   22 type  2   force =     0.00000000    0.00000000    0.00000000
     atom   23 type  1   force =     0.00000000    0.00000000    0.00000000
     atom   24 type  2   force =     0.00000000    0.00000000    0.00000000
     atom   25 type  1   force =     0.00000000    0.00000000    0.00000000
     atom   26 type  2   force =     0.00000000    0.00000000    0.00000000
     atom   27 type  1   force =     0.00000000    0.00000000    0.00000000
     atom   28 type  2   force =     0.00000000    0.00000000    0.00000000
     atom   29 type  1   force =     0.00000000    0.00000000    0.00000000
     atom   30 type  2   force =     0.00000000    0.00000000    0.00000000
     atom   31 type  1   force =     0.00000000    0.00000000    0.00000000
     atom   32 type  2   force =     0.00000000    0.00000000    0.00000000
     The SCF correction term to forces
     atom    1 type  1   force =     0.00000000   -0.00000000   -0.00000322
     atom    2 type  2   force =     0.00000000    0.00000065   -0.00000043
     atom    3 type  1   force =     0.00000000    0.00000125   -0.00000523
     atom    4 type  2   force =     0.00000000   -0.00000000   -0.00000018
     atom    5 type  1   force =     0.00000000   -0.00000000    0.00000284
     atom    6 type  2   force =     0.00000000    0.00000033    0.00000134
     atom    7 type  1   force =     0.00000000   -0.00000014    0.00000195
     atom    8 type  2   force =     0.00000000   -0.00000000    0.00000201
     atom    9 type  1   force =     0.00000040    0.00000023   -0.00000180
     atom   10 type  2   force =     0.00000057   -0.00000033   -0.00000043
     atom   11 type  1   force =     0.00000108   -0.00000062   -0.00000523
     atom   12 type  2   force =     0.00000067    0.00000039   -0.00000015
     atom   13 type  1   force =     0.00000185    0.00000107    0.00000069
     atom   14 type  2   force =     0.00000029   -0.00000017    0.00000134
     atom   15 type  1   force =    -0.00000013    0.00000007    0.00000195
     atom   16 type  2   force =     0.00000071    0.00000041    0.00000308
     atom   17 type  1   force =    -0.00000000   -0.00000046   -0.00000180
     atom   18 type  2   force =     0.00000000   -0.00000000   -0.00000037
     atom   19 type  1   force =     0.00000000   -0.00000000   -0.00000602
     atom   20 type  2   force =     0.00000000   -0.00000077   -0.00000015
     atom   21 type  1   force =     0.00000000   -0.00000214    0.00000069
     atom   22 type  2   force =     0.00000000   -0.00000000    0.00000154
     atom   23 type  1   force =     0.00000000   -0.00000000    0.00000253
     atom   24 type  2   force =     0.00000000   -0.00000081    0.00000308
     atom   25 type  1   force =    -0.00000040    0.00000023   -0.00000180
     atom   26 type  2   force =    -0.00000057   -0.00000033   -0.00000043
     atom   27 type  1   force =    -0.00000108   -0.00000062   -0.00000523
     atom   28 type  2   force =    -0.00000067    0.00000039   -0.00000015
     atom   29 type  1   force =    -0.00000185    0.00000107    0.00000069
     atom   30 type  2   force =    -0.00000029   -0.00000017    0.00000134
     atom   31 type  1   force =     0.00000013    0.00000007    0.00000195
     atom   32 type  2   force =    -0.00000071    0.00000041    0.00000308

     Total force =     0.008912     Total SCF correction =     0.000015

     Writing all to output data dir ./ZnO_supercells.save/

     init_run     :     27.23s CPU     21.16s WALL (       1 calls)
     electrons    :   2879.44s CPU   2034.06s WALL (       1 calls)
     forces       :     11.28s CPU      7.16s WALL (       1 calls)

     Called by init_run:
     wfcinit      :     23.85s CPU     17.69s WALL (       1 calls)
     potinit      :      1.64s CPU      1.66s WALL (       1 calls)
     hinit0       :      1.34s CPU      1.36s WALL (       1 calls)

     Called by electrons:
     c_bands      :   2672.73s CPU   1861.01s WALL (      32 calls)
     sum_band     :    193.82s CPU    159.92s WALL (      32 calls)
     v_of_rho     :      4.21s CPU      4.14s WALL (      33 calls)
     newd         :      7.89s CPU      8.30s WALL (      33 calls)
     mix_rho      :      0.77s CPU      0.68s WALL (      32 calls)

     Called by c_bands:
     init_us_2    :      7.76s CPU      6.64s WALL (    1122 calls)
     init_us_2:cp :      7.74s CPU      6.63s WALL (    1122 calls)
     cegterg      :   2581.71s CPU   1778.34s WALL (     544 calls)

     Called by *egterg:
     cdiaghg      :    389.39s CPU    278.22s WALL (    3786 calls)
     h_psi        :   1197.10s CPU    980.29s WALL (    3803 calls)
     s_psi        :    241.36s CPU    121.67s WALL (    3803 calls)
     g_psi        :      5.03s CPU      4.11s WALL (    3242 calls)

     Called by h_psi:
     h_psi:calbec :    237.76s CPU    123.42s WALL (    3803 calls)
     vloc_psi     :    711.55s CPU    726.72s WALL (    3803 calls)
     add_vuspsi   :    243.35s CPU    122.89s WALL (    3803 calls)

     General routines
     calbec       :    310.63s CPU    161.09s WALL (    4415 calls)
     fft          :      2.59s CPU      2.67s WALL (     438 calls)
     ffts         :      0.37s CPU      0.38s WALL (      65 calls)
     fftw         :    704.11s CPU    718.97s WALL (  636816 calls)
     interpolate  :      0.47s CPU      0.50s WALL (      33 calls)

     Parallel routines

     PWSCF        :  48m38.99s CPU  34m24.70s WALL


   This run was terminated on:  14:13: 8   3Jul2025            

=------------------------------------------------------------------------------=
   JOB DONE.
=------------------------------------------------------------------------------=
