
     Program PWSCF v.7.0 starts on 26Aug2025 at 17:41:29 

     This program is part of the open-source Quantum ESPRESSO suite
     for quantum simulation of materials; please cite
         "P. Giannozzi et al., J. Phys.:Condens. Matter 21 395502 (2009);
         "P. Giannozzi et al., J. Phys.:Condens. Matter 29 465901 (2017);
         "P. Giannozzi et al., J. Chem. Phys. 152 154105 (2020);
          URL http://www.quantum-espresso.org", 
     in publications or presentations arising from this work. More details at
     http://www.quantum-espresso.org/quote

     Parallel version (MPI & OpenMP), running on      16 processor cores
     Number of MPI processes:                16
     Threads/MPI process:                     1

     MPI processes distributed on     1 nodes
     K-points division:     npool     =       4
     band groups division:  nbgrp     =       4
     105908 MiB available memory on the printing compute node when the environment starts

     Reading input from /home/jvc/QEspresso7.2/ZnO_database/scripts/cell112.in/ZnO-3.40-1.71-112.in
Warning: card &CELL ignored
Warning: card / ignored
Warning: card &FCP ignored
Warning: card / ignored
Warning: card &RISM ignored
Warning: card / ignored

     Current dimensions of program PWSCF are:
     Max number of different atomic species (ntypx) = 10
     Max number of k-points (npk) =  40000
     Max angular momentum in pseudopotentials (lmaxx) =  4
     file Zn.upf: wavefunction(s)  3D renormalized
     Found identity + (  0.0000  0.0000 -0.5000) symmetry
     This is a supercell, fractional translations are disabled
     Message from routine setup:
     using ibrav=0 with symmetry is DISCOURAGED, use correct ibrav instead

     Subspace diagonalization in iterative solution of the eigenvalue problem:
     a serial algorithm will be used


     G-vector sticks info
     --------------------
     sticks:   dense  smooth     PW     G-vecs:    dense   smooth      PW
     Sum        1147     571    163               106383    37605    6109

     Using Slab Decomposition



     bravais-lattice index     =            0
     lattice parameter (alat)  =       6.4260  a.u.
     unit-cell volume          =     786.4847 (a.u.)^3
     number of atoms/cell      =            8
     number of atomic types    =            2
     number of electrons       =        72.00
     number of Kohn-Sham states=           36
     kinetic-energy cutoff     =      50.0000  Ry
     charge density cutoff     =     400.0000  Ry
     scf convergence threshold =      1.0E-08
     mixing beta               =       0.3000
     number of iterations used =            8  plain     mixing
     Exchange-correlation= PBE
                           (   1   4   3   4   0   0   0)

     celldm(1)=   6.426008  celldm(2)=   0.000000  celldm(3)=   0.000000
     celldm(4)=   0.000000  celldm(5)=   0.000000  celldm(6)=   0.000000

     crystal axes: (cart. coord. in units of alat)
               a(1) = (   1.000000   0.000000   0.000000 )  
               a(2) = (  -0.500000   0.866025   0.000000 )  
               a(3) = (   0.000000   0.000000   3.422440 )  

     reciprocal axes: (cart. coord. in units 2 pi/alat)
               b(1) = (  1.000000  0.577350 -0.000000 )  
               b(2) = (  0.000000  1.154701  0.000000 )  
               b(3) = (  0.000000 -0.000000  0.292189 )  


     PseudoPot. # 1 for Zn read from file:
     /home/jvc/QEspresso7.2/ZnO_database/pseudos/Zn.upf
     MD5 check sum: 7f56cabf9682ed8c977c2f7d0c5985c5
     Pseudo is Ultrasoft + core correction, Zval = 12.0
     Generated using &quot;atomic&quot; code by A. Dal Corso  v.6.2.2
     Using radial grid of 1201 points,  6 beta functions with: 
                l(1) =   0
                l(2) =   0
                l(3) =   1
                l(4) =   1
                l(5) =   2
                l(6) =   2
     Q(r) pseudized with 0 coefficients 


     PseudoPot. # 2 for O  read from file:
     /home/jvc/QEspresso7.2/ZnO_database/pseudos/O.upf
     MD5 check sum: 91400c9766925bcf19f520983a725ff0
     Pseudo is Ultrasoft + core correction, Zval =  6.0
     Generated using &quot;atomic&quot; code by A. Dal Corso  v.6.3MaX
     Using radial grid of 1095 points,  4 beta functions with: 
                l(1) =   0
                l(2) =   0
                l(3) =   1
                l(4) =   1
     Q(r) pseudized with 0 coefficients 


     atomic species   valence    mass     pseudopotential
        Zn            12.00    65.38000     Zn( 1.00)
        O              6.00    15.99900     O ( 1.00)

      6 Sym. Ops. (no inversion) found


                                    s                        frac. trans.

      isym =  1     identity                                     

 cryst.   s( 1) = (     1          0          0      )
                  (     0          1          0      )
                  (     0          0          1      )

 cart.    s( 1) = (  1.0000000  0.0000000  0.0000000 )
                  (  0.0000000  1.0000000  0.0000000 )
                  (  0.0000000  0.0000000  1.0000000 )


      isym =  2     120 deg rotation - cryst. axis [0,0,1]       

 cryst.   s( 2) = (     0          1          0      )
                  (    -1         -1          0      )
                  (     0          0          1      )

 cart.    s( 2) = ( -0.5000000 -0.8660254  0.0000000 )
                  (  0.8660254 -0.5000000  0.0000000 )
                  (  0.0000000  0.0000000  1.0000000 )


      isym =  3     120 deg rotation - cryst. axis [0,0,-1]      

 cryst.   s( 3) = (    -1         -1          0      )
                  (     1          0          0      )
                  (     0          0          1      )

 cart.    s( 3) = ( -0.5000000  0.8660254  0.0000000 )
                  ( -0.8660254 -0.5000000  0.0000000 )
                  (  0.0000000  0.0000000  1.0000000 )


      isym =  4     inv. 180 deg rotation - cart. axis [1,0,0]   

 cryst.   s( 4) = (    -1          0          0      )
                  (     1          1          0      )
                  (     0          0          1      )

 cart.    s( 4) = ( -1.0000000  0.0000000  0.0000000 )
                  (  0.0000000  1.0000000  0.0000000 )
                  (  0.0000000  0.0000000  1.0000000 )


      isym =  5     inv. 180 deg rotation - cryst. axis [0,1,0]  

 cryst.   s( 5) = (     1          1          0      )
                  (     0         -1          0      )
                  (     0          0          1      )

 cart.    s( 5) = (  0.5000000  0.8660254  0.0000000 )
                  (  0.8660254 -0.5000000  0.0000000 )
                  (  0.0000000  0.0000000  1.0000000 )


      isym =  6     inv. 180 deg rotation - cryst. axis [1,1,0]  

 cryst.   s( 6) = (     0         -1          0      )
                  (    -1          0          0      )
                  (     0          0          1      )

 cart.    s( 6) = (  0.5000000 -0.8660254  0.0000000 )
                  ( -0.8660254 -0.5000000  0.0000000 )
                  (  0.0000000  0.0000000  1.0000000 )


   Cartesian axes

     site n.     atom                  positions (alat units)
         1           Zn  tau(   1) = (   0.5000000   0.2886751   0.8566941  )
         2           Zn  tau(   2) = (  -0.0000000   0.5773503   0.0010842  )
         3           O   tau(   3) = (   0.5000000   0.2886751   1.5053197  )
         4           O   tau(   4) = (  -0.0000000   0.5773503   0.6497098  )
         5           Zn  tau(   5) = (   0.5000000   0.2886751   2.5679140  )
         6           Zn  tau(   6) = (  -0.0000000   0.5773503   1.7123041  )
         7           O   tau(   7) = (   0.5000000   0.2886751   3.2165396  )
         8           O   tau(   8) = (  -0.0000000   0.5773503   2.3609297  )

   Crystallographic axes

     site n.     atom                  positions (cryst. coord.)
         1           Zn  tau(   1) = (  0.6666667  0.3333333  0.2503168  )
         2           Zn  tau(   2) = (  0.3333333  0.6666667  0.0003168  )
         3           O   tau(   3) = (  0.6666667  0.3333333  0.4398382  )
         4           O   tau(   4) = (  0.3333333  0.6666667  0.1898382  )
         5           Zn  tau(   5) = (  0.6666667  0.3333333  0.7503168  )
         6           Zn  tau(   6) = (  0.3333333  0.6666667  0.5003168  )
         7           O   tau(   7) = (  0.6666667  0.3333333  0.9398382  )
         8           O   tau(   8) = (  0.3333333  0.6666667  0.6898382  )

     number of k points=    34
                       cart. coord. in units 2pi/alat
        k(    1) = (   0.0000000   0.0000000   0.0000000), wk =   0.0092593
        k(    2) = (   0.0000000   0.0000000   0.0486982), wk =   0.0185185
        k(    3) = (   0.0000000   0.0000000   0.0973964), wk =   0.0185185
        k(    4) = (   0.0000000   0.0000000  -0.1460946), wk =   0.0092593
        k(    5) = (   0.0000000   0.1924501   0.0000000), wk =   0.0555556
        k(    6) = (   0.0000000   0.1924501   0.0486982), wk =   0.0555556
        k(    7) = (   0.0000000   0.1924501   0.0973964), wk =   0.0555556
        k(    8) = (   0.0000000   0.1924501  -0.1460946), wk =   0.0555556
        k(    9) = (   0.0000000   0.3849002   0.0000000), wk =   0.0555556
        k(   10) = (   0.0000000   0.3849002   0.0486982), wk =   0.0555556
        k(   11) = (   0.0000000   0.3849002   0.0973964), wk =   0.0555556
        k(   12) = (   0.0000000   0.3849002  -0.1460946), wk =   0.0555556
        k(   13) = (   0.0000000  -0.5773503   0.0000000), wk =   0.0277778
        k(   14) = (   0.0000000  -0.5773503   0.0486982), wk =   0.0555556
        k(   15) = (   0.0000000  -0.5773503   0.0973964), wk =   0.0555556
        k(   16) = (   0.0000000  -0.5773503  -0.1460946), wk =   0.0277778
        k(   17) = (   0.1666667   0.2886751   0.0000000), wk =   0.0555556
        k(   18) = (   0.1666667   0.2886751   0.0486982), wk =   0.1111111
        k(   19) = (   0.1666667   0.2886751   0.0973964), wk =   0.1111111
        k(   20) = (   0.1666667   0.2886751  -0.1460946), wk =   0.0555556
        k(   21) = (   0.1666667   0.4811252   0.0000000), wk =   0.1111111
        k(   22) = (   0.1666667   0.4811252   0.0486982), wk =   0.1111111
        k(   23) = (   0.1666667   0.4811252   0.0973964), wk =   0.1111111
        k(   24) = (   0.1666667   0.4811252  -0.1460946), wk =   0.1111111
        k(   25) = (   0.3333333   0.5773503   0.0000000), wk =   0.0185185
        k(   26) = (   0.3333333   0.5773503   0.0486982), wk =   0.0370370
        k(   27) = (   0.3333333   0.5773503   0.0973964), wk =   0.0370370
        k(   28) = (   0.3333333   0.5773503  -0.1460946), wk =   0.0185185
        k(   29) = (   0.0000000  -0.1924501   0.0486982), wk =   0.0555556
        k(   30) = (   0.0000000  -0.1924501   0.0973964), wk =   0.0555556
        k(   31) = (   0.0000000  -0.3849002   0.0486982), wk =   0.0555556
        k(   32) = (   0.0000000  -0.3849002   0.0973964), wk =   0.0555556
        k(   33) = (  -0.1666667  -0.4811252   0.0486982), wk =   0.1111111
        k(   34) = (  -0.1666667  -0.4811252   0.0973964), wk =   0.1111111

                       cryst. coord.
        k(    1) = (   0.0000000   0.0000000   0.0000000), wk =   0.0092593
        k(    2) = (   0.0000000   0.0000000   0.1666667), wk =   0.0185185
        k(    3) = (   0.0000000   0.0000000   0.3333333), wk =   0.0185185
        k(    4) = (   0.0000000   0.0000000  -0.5000000), wk =   0.0092593
        k(    5) = (   0.0000000   0.1666667   0.0000000), wk =   0.0555556
        k(    6) = (   0.0000000   0.1666667   0.1666667), wk =   0.0555556
        k(    7) = (   0.0000000   0.1666667   0.3333333), wk =   0.0555556
        k(    8) = (   0.0000000   0.1666667  -0.5000000), wk =   0.0555556
        k(    9) = (   0.0000000   0.3333333   0.0000000), wk =   0.0555556
        k(   10) = (   0.0000000   0.3333333   0.1666667), wk =   0.0555556
        k(   11) = (   0.0000000   0.3333333   0.3333333), wk =   0.0555556
        k(   12) = (   0.0000000   0.3333333  -0.5000000), wk =   0.0555556
        k(   13) = (   0.0000000  -0.5000000   0.0000000), wk =   0.0277778
        k(   14) = (   0.0000000  -0.5000000   0.1666667), wk =   0.0555556
        k(   15) = (   0.0000000  -0.5000000   0.3333333), wk =   0.0555556
        k(   16) = (   0.0000000  -0.5000000  -0.5000000), wk =   0.0277778
        k(   17) = (   0.1666667   0.1666667   0.0000000), wk =   0.0555556
        k(   18) = (   0.1666667   0.1666667   0.1666667), wk =   0.1111111
        k(   19) = (   0.1666667   0.1666667   0.3333333), wk =   0.1111111
        k(   20) = (   0.1666667   0.1666667  -0.5000000), wk =   0.0555556
        k(   21) = (   0.1666667   0.3333333   0.0000000), wk =   0.1111111
        k(   22) = (   0.1666667   0.3333333   0.1666667), wk =   0.1111111
        k(   23) = (   0.1666667   0.3333333   0.3333333), wk =   0.1111111
        k(   24) = (   0.1666667   0.3333333  -0.5000000), wk =   0.1111111
        k(   25) = (   0.3333333   0.3333333   0.0000000), wk =   0.0185185
        k(   26) = (   0.3333333   0.3333333   0.1666667), wk =   0.0370370
        k(   27) = (   0.3333333   0.3333333   0.3333333), wk =   0.0370370
        k(   28) = (   0.3333333   0.3333333  -0.5000000), wk =   0.0185185
        k(   29) = (   0.0000000  -0.1666667   0.1666667), wk =   0.0555556
        k(   30) = (   0.0000000  -0.1666667   0.3333333), wk =   0.0555556
        k(   31) = (   0.0000000  -0.3333333   0.1666667), wk =   0.0555556
        k(   32) = (   0.0000000  -0.3333333   0.3333333), wk =   0.0555556
        k(   33) = (  -0.1666667  -0.3333333   0.1666667), wk =   0.1111111
        k(   34) = (  -0.1666667  -0.3333333   0.3333333), wk =   0.1111111

     Dense  grid:   106383 G-vectors     FFT dimensions: (  45,  45, 144)

     Smooth grid:    37605 G-vectors     FFT dimensions: (  30,  30, 100)

     Dynamical RAM for                 wfc:       2.58 MB

     Dynamical RAM for     wfc (w. buffer):      25.80 MB

     Dynamical RAM for           str. fact:       3.25 MB

     Dynamical RAM for           local pot:       0.00 MB

     Dynamical RAM for          nlocal pot:       7.45 MB

     Dynamical RAM for                qrad:       3.21 MB

     Dynamical RAM for          rho,v,vnew:      11.54 MB

     Dynamical RAM for               rhoin:       3.85 MB

     Dynamical RAM for            rho*nmix:      25.97 MB

     Dynamical RAM for           G-vectors:       6.37 MB

     Dynamical RAM for          h,s,v(r/c):       0.24 MB

     Dynamical RAM for          <psi|beta>:       0.06 MB

     Dynamical RAM for                 psi:       5.16 MB

     Dynamical RAM for                hpsi:       5.16 MB

     Dynamical RAM for                spsi:       5.16 MB

     Dynamical RAM for      wfcinit/wfcrot:       7.51 MB

     Dynamical RAM for           addusdens:      78.32 MB

     Dynamical RAM for          addusforce:      80.37 MB

     Estimated static dynamical RAM per process >      77.47 MB

     Estimated max dynamical RAM per process >     183.80 MB

     Estimated total dynamical RAM >       2.57 GB

     Check: negative core charge=   -0.000002

     Initial potential from superposition of free atoms

     starting charge      71.9851, renormalised to      72.0000
     Starting wfcs are   52 randomized atomic wfcs

     total cpu time spent up to now is        8.7 secs

     per-process dynamical memory:    95.3 Mb

     Self-consistent Calculation

     iteration #  1     ecut=    50.00 Ry     beta= 0.30
     Davidson diagonalization with overlap

---- Real-time Memory Report at c_bands before calling an iterative solver
           154 MiB given to the printing process from OS
            93 MiB allocation reported by mallinfo(arena+hblkhd)
        104895 MiB available memory on the node where the printing process lives
------------------
     ethr =  1.00E-02,  avg # of iterations =  1.3

     total cpu time spent up to now is       14.2 secs

     total energy              =    -722.82795244 Ry
     estimated scf accuracy    <       1.55431974 Ry

     iteration #  2     ecut=    50.00 Ry     beta= 0.30
     Davidson diagonalization with overlap

---- Real-time Memory Report at c_bands before calling an iterative solver
           230 MiB given to the printing process from OS
           134 MiB allocation reported by mallinfo(arena+hblkhd)
        103822 MiB available memory on the node where the printing process lives
------------------
     ethr =  2.16E-03,  avg # of iterations =  2.3

     total cpu time spent up to now is       21.1 secs

     total energy              =    -723.06778755 Ry
     estimated scf accuracy    <       0.17401783 Ry

     iteration #  3     ecut=    50.00 Ry     beta= 0.30
     Davidson diagonalization with overlap

---- Real-time Memory Report at c_bands before calling an iterative solver
           231 MiB given to the printing process from OS
           135 MiB allocation reported by mallinfo(arena+hblkhd)
        103700 MiB available memory on the node where the printing process lives
------------------
     ethr =  2.42E-04,  avg # of iterations =  7.1

     total cpu time spent up to now is       31.9 secs

     total energy              =    -723.09056773 Ry
     estimated scf accuracy    <       0.20746893 Ry

     iteration #  4     ecut=    50.00 Ry     beta= 0.30
     Davidson diagonalization with overlap

---- Real-time Memory Report at c_bands before calling an iterative solver
           232 MiB given to the printing process from OS
           136 MiB allocation reported by mallinfo(arena+hblkhd)
        104368 MiB available memory on the node where the printing process lives
------------------
     ethr =  2.42E-04,  avg # of iterations =  9.3

     total cpu time spent up to now is       45.1 secs

     total energy              =    -723.26181753 Ry
     estimated scf accuracy    <       0.88696269 Ry

     iteration #  5     ecut=    50.00 Ry     beta= 0.30
     Davidson diagonalization with overlap

---- Real-time Memory Report at c_bands before calling an iterative solver
           234 MiB given to the printing process from OS
           138 MiB allocation reported by mallinfo(arena+hblkhd)
        105020 MiB available memory on the node where the printing process lives
------------------
     ethr =  2.42E-04,  avg # of iterations =  2.0

     total cpu time spent up to now is       50.4 secs

     total energy              =    -722.88795421 Ry
     estimated scf accuracy    <       0.56497502 Ry

     iteration #  6     ecut=    50.00 Ry     beta= 0.30
     Davidson diagonalization with overlap

---- Real-time Memory Report at c_bands before calling an iterative solver
           234 MiB given to the printing process from OS
           139 MiB allocation reported by mallinfo(arena+hblkhd)
        104385 MiB available memory on the node where the printing process lives
------------------
     ethr =  2.42E-04,  avg # of iterations =  8.9

     total cpu time spent up to now is       62.8 secs

     total energy              =    -723.19526488 Ry
     estimated scf accuracy    <       0.71524092 Ry

     iteration #  7     ecut=    50.00 Ry     beta= 0.30
     Davidson diagonalization with overlap

---- Real-time Memory Report at c_bands before calling an iterative solver
           236 MiB given to the printing process from OS
           140 MiB allocation reported by mallinfo(arena+hblkhd)
        103706 MiB available memory on the node where the printing process lives
------------------
     ethr =  2.42E-04,  avg # of iterations =  2.0

     total cpu time spent up to now is       68.7 secs

     total energy              =    -723.20276785 Ry
     estimated scf accuracy    <       0.35675037 Ry

     iteration #  8     ecut=    50.00 Ry     beta= 0.30
     Davidson diagonalization with overlap

---- Real-time Memory Report at c_bands before calling an iterative solver
           237 MiB given to the printing process from OS
           141 MiB allocation reported by mallinfo(arena+hblkhd)
        103612 MiB available memory on the node where the printing process lives
------------------
     ethr =  2.42E-04,  avg # of iterations =  2.0

     total cpu time spent up to now is       74.4 secs

     total energy              =    -723.21252349 Ry
     estimated scf accuracy    <       0.27255296 Ry

     iteration #  9     ecut=    50.00 Ry     beta= 0.30
     Davidson diagonalization with overlap

---- Real-time Memory Report at c_bands before calling an iterative solver
           238 MiB given to the printing process from OS
           142 MiB allocation reported by mallinfo(arena+hblkhd)
        103640 MiB available memory on the node where the printing process lives
------------------
     ethr =  2.42E-04,  avg # of iterations =  1.7

     total cpu time spent up to now is       79.9 secs

     total energy              =    -723.22082126 Ry
     estimated scf accuracy    <       0.22342340 Ry

     iteration # 10     ecut=    50.00 Ry     beta= 0.30
     Davidson diagonalization with overlap

---- Real-time Memory Report at c_bands before calling an iterative solver
           239 MiB given to the printing process from OS
           143 MiB allocation reported by mallinfo(arena+hblkhd)
        104046 MiB available memory on the node where the printing process lives
------------------
     ethr =  2.42E-04,  avg # of iterations =  1.2

     total cpu time spent up to now is       84.9 secs

     total energy              =    -723.20112974 Ry
     estimated scf accuracy    <       0.19655002 Ry

     iteration # 11     ecut=    50.00 Ry     beta= 0.30
     Davidson diagonalization with overlap

---- Real-time Memory Report at c_bands before calling an iterative solver
           239 MiB given to the printing process from OS
           143 MiB allocation reported by mallinfo(arena+hblkhd)
        104337 MiB available memory on the node where the printing process lives
------------------
     ethr =  2.42E-04,  avg # of iterations =  1.8

     total cpu time spent up to now is       90.3 secs

     total energy              =    -723.19619356 Ry
     estimated scf accuracy    <       0.12686194 Ry

     iteration # 12     ecut=    50.00 Ry     beta= 0.30
     Davidson diagonalization with overlap

---- Real-time Memory Report at c_bands before calling an iterative solver
           239 MiB given to the printing process from OS
           143 MiB allocation reported by mallinfo(arena+hblkhd)
        103317 MiB available memory on the node where the printing process lives
------------------
     ethr =  1.76E-04,  avg # of iterations =  1.8

     total cpu time spent up to now is       95.4 secs

     total energy              =    -723.21468393 Ry
     estimated scf accuracy    <       0.08723931 Ry

     iteration # 13     ecut=    50.00 Ry     beta= 0.30
     Davidson diagonalization with overlap

---- Real-time Memory Report at c_bands before calling an iterative solver
           240 MiB given to the printing process from OS
           143 MiB allocation reported by mallinfo(arena+hblkhd)
        103912 MiB available memory on the node where the printing process lives
------------------
     ethr =  1.21E-04,  avg # of iterations =  1.6

     total cpu time spent up to now is      100.3 secs

     total energy              =    -723.28151284 Ry
     estimated scf accuracy    <       0.10597869 Ry

     iteration # 14     ecut=    50.00 Ry     beta= 0.30
     Davidson diagonalization with overlap

---- Real-time Memory Report at c_bands before calling an iterative solver
           240 MiB given to the printing process from OS
           143 MiB allocation reported by mallinfo(arena+hblkhd)
        104209 MiB available memory on the node where the printing process lives
------------------
     ethr =  1.21E-04,  avg # of iterations =  2.5

     total cpu time spent up to now is      105.9 secs

     total energy              =    -723.24408235 Ry
     estimated scf accuracy    <       0.24868910 Ry

     iteration # 15     ecut=    50.00 Ry     beta= 0.30
     Davidson diagonalization with overlap

---- Real-time Memory Report at c_bands before calling an iterative solver
           240 MiB given to the printing process from OS
           143 MiB allocation reported by mallinfo(arena+hblkhd)
        104253 MiB available memory on the node where the printing process lives
------------------
     ethr =  1.21E-04,  avg # of iterations =  1.0

     total cpu time spent up to now is      110.3 secs

     total energy              =    -723.20474436 Ry
     estimated scf accuracy    <       0.19153868 Ry

     iteration # 16     ecut=    50.00 Ry     beta= 0.30
     Davidson diagonalization with overlap

---- Real-time Memory Report at c_bands before calling an iterative solver
           240 MiB given to the printing process from OS
           143 MiB allocation reported by mallinfo(arena+hblkhd)
        103885 MiB available memory on the node where the printing process lives
------------------
     ethr =  1.21E-04,  avg # of iterations =  1.8

     total cpu time spent up to now is      115.3 secs

     total energy              =    -723.20060368 Ry
     estimated scf accuracy    <       0.11957186 Ry

     iteration # 17     ecut=    50.00 Ry     beta= 0.30
     Davidson diagonalization with overlap

---- Real-time Memory Report at c_bands before calling an iterative solver
           240 MiB given to the printing process from OS
           143 MiB allocation reported by mallinfo(arena+hblkhd)
        103635 MiB available memory on the node where the printing process lives
------------------
     ethr =  1.21E-04,  avg # of iterations =  1.9

     total cpu time spent up to now is      120.5 secs

     total energy              =    -723.17873295 Ry
     estimated scf accuracy    <       0.07463128 Ry

     iteration # 18     ecut=    50.00 Ry     beta= 0.30
     Davidson diagonalization with overlap

---- Real-time Memory Report at c_bands before calling an iterative solver
           240 MiB given to the printing process from OS
           143 MiB allocation reported by mallinfo(arena+hblkhd)
        103973 MiB available memory on the node where the printing process lives
------------------
     ethr =  1.04E-04,  avg # of iterations =  4.6

     total cpu time spent up to now is      127.1 secs

     total energy              =    -723.17717218 Ry
     estimated scf accuracy    <       0.01373635 Ry

     iteration # 19     ecut=    50.00 Ry     beta= 0.30
     Davidson diagonalization with overlap

---- Real-time Memory Report at c_bands before calling an iterative solver
           240 MiB given to the printing process from OS
           143 MiB allocation reported by mallinfo(arena+hblkhd)
        103103 MiB available memory on the node where the printing process lives
------------------
     ethr =  1.91E-05,  avg # of iterations = 10.7

     total cpu time spent up to now is      140.8 secs

     total energy              =    -723.17802260 Ry
     estimated scf accuracy    <       0.16260634 Ry

     iteration # 20     ecut=    50.00 Ry     beta= 0.30
     Davidson diagonalization with overlap

---- Real-time Memory Report at c_bands before calling an iterative solver
           240 MiB given to the printing process from OS
           143 MiB allocation reported by mallinfo(arena+hblkhd)
        104318 MiB available memory on the node where the printing process lives
------------------
     ethr =  1.91E-05,  avg # of iterations =  7.8

     total cpu time spent up to now is      151.4 secs

     total energy              =    -723.19472563 Ry
     estimated scf accuracy    <       0.00469553 Ry

     iteration # 21     ecut=    50.00 Ry     beta= 0.30
     Davidson diagonalization with overlap

---- Real-time Memory Report at c_bands before calling an iterative solver
           240 MiB given to the printing process from OS
           143 MiB allocation reported by mallinfo(arena+hblkhd)
        103115 MiB available memory on the node where the printing process lives
------------------
     ethr =  6.52E-06,  avg # of iterations =  7.4

     total cpu time spent up to now is      163.0 secs

     total energy              =    -723.20265836 Ry
     estimated scf accuracy    <       0.01078053 Ry

     iteration # 22     ecut=    50.00 Ry     beta= 0.30
     Davidson diagonalization with overlap

---- Real-time Memory Report at c_bands before calling an iterative solver
           240 MiB given to the printing process from OS
           143 MiB allocation reported by mallinfo(arena+hblkhd)
        103709 MiB available memory on the node where the printing process lives
------------------
     ethr =  6.52E-06,  avg # of iterations =  2.0

     total cpu time spent up to now is      167.9 secs

     total energy              =    -723.19586023 Ry
     estimated scf accuracy    <       0.01592782 Ry

     iteration # 23     ecut=    50.00 Ry     beta= 0.30
     Davidson diagonalization with overlap

---- Real-time Memory Report at c_bands before calling an iterative solver
           240 MiB given to the printing process from OS
           143 MiB allocation reported by mallinfo(arena+hblkhd)
        105010 MiB available memory on the node where the printing process lives
------------------
     ethr =  6.52E-06,  avg # of iterations =  5.1

     total cpu time spent up to now is      175.0 secs

     total energy              =    -723.19880675 Ry
     estimated scf accuracy    <       0.00072484 Ry

     iteration # 24     ecut=    50.00 Ry     beta= 0.30
     Davidson diagonalization with overlap

---- Real-time Memory Report at c_bands before calling an iterative solver
           240 MiB given to the printing process from OS
           143 MiB allocation reported by mallinfo(arena+hblkhd)
        103680 MiB available memory on the node where the printing process lives
------------------
     ethr =  1.01E-06,  avg # of iterations =  5.6

     total cpu time spent up to now is      183.9 secs

     total energy              =    -723.19900691 Ry
     estimated scf accuracy    <       0.00681882 Ry

     iteration # 25     ecut=    50.00 Ry     beta= 0.30
     Davidson diagonalization with overlap

---- Real-time Memory Report at c_bands before calling an iterative solver
           240 MiB given to the printing process from OS
           143 MiB allocation reported by mallinfo(arena+hblkhd)
        103720 MiB available memory on the node where the printing process lives
------------------
     ethr =  1.01E-06,  avg # of iterations =  1.0

     total cpu time spent up to now is      190.3 secs

     total energy              =    -723.19835014 Ry
     estimated scf accuracy    <       0.00607027 Ry

     iteration # 26     ecut=    50.00 Ry     beta= 0.30
     Davidson diagonalization with overlap

---- Real-time Memory Report at c_bands before calling an iterative solver
           240 MiB given to the printing process from OS
           143 MiB allocation reported by mallinfo(arena+hblkhd)
        103502 MiB available memory on the node where the printing process lives
------------------
     ethr =  1.01E-06,  avg # of iterations =  2.1

     total cpu time spent up to now is      197.6 secs

     total energy              =    -723.19769678 Ry
     estimated scf accuracy    <       0.00430412 Ry

     iteration # 27     ecut=    50.00 Ry     beta= 0.30
     Davidson diagonalization with overlap

---- Real-time Memory Report at c_bands before calling an iterative solver
           240 MiB given to the printing process from OS
           143 MiB allocation reported by mallinfo(arena+hblkhd)
        103213 MiB available memory on the node where the printing process lives
------------------
     ethr =  1.01E-06,  avg # of iterations =  5.0

     total cpu time spent up to now is      206.8 secs

     total energy              =    -723.19748910 Ry
     estimated scf accuracy    <       0.00129715 Ry

     iteration # 28     ecut=    50.00 Ry     beta= 0.30
     Davidson diagonalization with overlap

---- Real-time Memory Report at c_bands before calling an iterative solver
           240 MiB given to the printing process from OS
           143 MiB allocation reported by mallinfo(arena+hblkhd)
        104146 MiB available memory on the node where the printing process lives
------------------
     ethr =  1.01E-06,  avg # of iterations =  5.0

     total cpu time spent up to now is      216.4 secs

     total energy              =    -723.19755418 Ry
     estimated scf accuracy    <       0.00017247 Ry

     iteration # 29     ecut=    50.00 Ry     beta= 0.30
     Davidson diagonalization with overlap

---- Real-time Memory Report at c_bands before calling an iterative solver
           240 MiB given to the printing process from OS
           143 MiB allocation reported by mallinfo(arena+hblkhd)
        103499 MiB available memory on the node where the printing process lives
------------------
     c_bands:  1 eigenvalues not converged
     ethr =  2.40E-07,  avg # of iterations = 10.2

     total cpu time spent up to now is      232.0 secs

     total energy              =    -723.19778489 Ry
     estimated scf accuracy    <       0.00111437 Ry

     iteration # 30     ecut=    50.00 Ry     beta= 0.30
     Davidson diagonalization with overlap

---- Real-time Memory Report at c_bands before calling an iterative solver
           240 MiB given to the printing process from OS
           143 MiB allocation reported by mallinfo(arena+hblkhd)
        104424 MiB available memory on the node where the printing process lives
------------------
     ethr =  2.40E-07,  avg # of iterations =  2.0

     total cpu time spent up to now is      239.5 secs

     total energy              =    -723.19738282 Ry
     estimated scf accuracy    <       0.00067336 Ry

     iteration # 31     ecut=    50.00 Ry     beta= 0.30
     Davidson diagonalization with overlap

---- Real-time Memory Report at c_bands before calling an iterative solver
           240 MiB given to the printing process from OS
           143 MiB allocation reported by mallinfo(arena+hblkhd)
        103485 MiB available memory on the node where the printing process lives
------------------
     ethr =  2.40E-07,  avg # of iterations = 10.4

     total cpu time spent up to now is      254.4 secs

     total energy              =    -723.19768754 Ry
     estimated scf accuracy    <       0.00069145 Ry

     iteration # 32     ecut=    50.00 Ry     beta= 0.30
     Davidson diagonalization with overlap

---- Real-time Memory Report at c_bands before calling an iterative solver
           241 MiB given to the printing process from OS
           143 MiB allocation reported by mallinfo(arena+hblkhd)
        104291 MiB available memory on the node where the printing process lives
------------------
     ethr =  2.40E-07,  avg # of iterations =  5.7

     total cpu time spent up to now is      263.9 secs

     total energy              =    -723.19772916 Ry
     estimated scf accuracy    <       0.00008658 Ry

     iteration # 33     ecut=    50.00 Ry     beta= 0.30
     Davidson diagonalization with overlap

---- Real-time Memory Report at c_bands before calling an iterative solver
           241 MiB given to the printing process from OS
           143 MiB allocation reported by mallinfo(arena+hblkhd)
        104125 MiB available memory on the node where the printing process lives
------------------
     ethr =  1.20E-07,  avg # of iterations =  4.9

     total cpu time spent up to now is      272.0 secs

     total energy              =    -723.19773058 Ry
     estimated scf accuracy    <       0.00002751 Ry

     iteration # 34     ecut=    50.00 Ry     beta= 0.30
     Davidson diagonalization with overlap

---- Real-time Memory Report at c_bands before calling an iterative solver
           241 MiB given to the printing process from OS
           143 MiB allocation reported by mallinfo(arena+hblkhd)
        103720 MiB available memory on the node where the printing process lives
------------------
     ethr =  3.82E-08,  avg # of iterations =  5.6

     total cpu time spent up to now is      281.9 secs

     total energy              =    -723.19774329 Ry
     estimated scf accuracy    <       0.00000238 Ry

     iteration # 35     ecut=    50.00 Ry     beta= 0.30
     Davidson diagonalization with overlap

---- Real-time Memory Report at c_bands before calling an iterative solver
           241 MiB given to the printing process from OS
           143 MiB allocation reported by mallinfo(arena+hblkhd)
        103691 MiB available memory on the node where the printing process lives
------------------
     ethr =  3.31E-09,  avg # of iterations =  5.3

     total cpu time spent up to now is      290.8 secs

     total energy              =    -723.19774329 Ry
     estimated scf accuracy    <       0.00000105 Ry

     iteration # 36     ecut=    50.00 Ry     beta= 0.30
     Davidson diagonalization with overlap

---- Real-time Memory Report at c_bands before calling an iterative solver
           241 MiB given to the printing process from OS
           143 MiB allocation reported by mallinfo(arena+hblkhd)
        103770 MiB available memory on the node where the printing process lives
------------------
     ethr =  1.46E-09,  avg # of iterations =  5.9

     total cpu time spent up to now is      301.1 secs

     total energy              =    -723.19774384 Ry
     estimated scf accuracy    <       0.00000050 Ry

     iteration # 37     ecut=    50.00 Ry     beta= 0.30
     Davidson diagonalization with overlap

---- Real-time Memory Report at c_bands before calling an iterative solver
           241 MiB given to the printing process from OS
           143 MiB allocation reported by mallinfo(arena+hblkhd)
        104017 MiB available memory on the node where the printing process lives
------------------
     ethr =  6.99E-10,  avg # of iterations =  1.5

     total cpu time spent up to now is      307.9 secs

     total energy              =    -723.19774369 Ry
     estimated scf accuracy    <       0.00000022 Ry

     iteration # 38     ecut=    50.00 Ry     beta= 0.30
     Davidson diagonalization with overlap

---- Real-time Memory Report at c_bands before calling an iterative solver
           241 MiB given to the printing process from OS
           143 MiB allocation reported by mallinfo(arena+hblkhd)
        103474 MiB available memory on the node where the printing process lives
------------------
     ethr =  3.12E-10,  avg # of iterations =  8.1

     total cpu time spent up to now is      321.7 secs

     total energy              =    -723.19774377 Ry
     estimated scf accuracy    <       0.00000098 Ry

     iteration # 39     ecut=    50.00 Ry     beta= 0.30
     Davidson diagonalization with overlap

---- Real-time Memory Report at c_bands before calling an iterative solver
           241 MiB given to the printing process from OS
           143 MiB allocation reported by mallinfo(arena+hblkhd)
        103703 MiB available memory on the node where the printing process lives
------------------
     ethr =  3.12E-10,  avg # of iterations =  5.3

     total cpu time spent up to now is      331.7 secs

     total energy              =    -723.19774383 Ry
     estimated scf accuracy    <       0.00000007 Ry

     iteration # 40     ecut=    50.00 Ry     beta= 0.30
     Davidson diagonalization with overlap

---- Real-time Memory Report at c_bands before calling an iterative solver
           241 MiB given to the printing process from OS
           143 MiB allocation reported by mallinfo(arena+hblkhd)
        103831 MiB available memory on the node where the printing process lives
------------------
     ethr =  9.57E-11,  avg # of iterations =  6.6

     total cpu time spent up to now is      343.0 secs

     total energy              =    -723.19774388 Ry
     estimated scf accuracy    <       0.00000004 Ry

     iteration # 41     ecut=    50.00 Ry     beta= 0.30
     Davidson diagonalization with overlap

---- Real-time Memory Report at c_bands before calling an iterative solver
           241 MiB given to the printing process from OS
           143 MiB allocation reported by mallinfo(arena+hblkhd)
        103960 MiB available memory on the node where the printing process lives
------------------
     ethr =  5.43E-11,  avg # of iterations =  2.0

     total cpu time spent up to now is      350.2 secs

     total energy              =    -723.19774386 Ry
     estimated scf accuracy    <       0.00000006 Ry

     iteration # 42     ecut=    50.00 Ry     beta= 0.30
     Davidson diagonalization with overlap

---- Real-time Memory Report at c_bands before calling an iterative solver
           241 MiB given to the printing process from OS
           143 MiB allocation reported by mallinfo(arena+hblkhd)
        103595 MiB available memory on the node where the printing process lives
------------------
     ethr =  5.43E-11,  avg # of iterations =  3.6

     total cpu time spent up to now is      358.7 secs

     End of self-consistent calculation

          k = 0.0000 0.0000 0.0000 (  4687 PWs)   bands (ev):

   -12.1451 -11.9523 -11.9522 -11.7514  -0.4458  -0.4458  -0.4142  -0.4142
    -0.4016  -0.4006  -0.4006  -0.4006  -0.4006  -0.3368  -0.3368   0.0259
     0.2633   0.2633   0.3221   0.3221   0.3221   0.3221   0.3677   0.3677
     0.8188   2.3730   2.3730   4.1392   4.1392   4.3784   4.3784   4.3785
     4.3785   4.4382   4.6149   4.6149

     occupation numbers 
     1.0000   1.0000   1.0000   1.0000   1.0000   1.0000   1.0000   1.0000
     1.0000   1.0000   1.0000   1.0000   1.0000   1.0000   1.0000   1.0000
     1.0000   1.0000   1.0000   1.0000   1.0000   1.0000   1.0000   1.0000
     1.0000   1.0000   1.0000   1.0000   1.0000   1.0000   1.0000   1.0000
     1.0000   1.0000   1.0000   1.0000

          k = 0.0000 0.0000 0.0487 (  4717 PWs)   bands (ev):

   -12.1387 -12.0029 -11.9011 -11.7584  -0.4448  -0.4448  -0.4303  -0.4141
    -0.4141  -0.4049  -0.3860  -0.3860  -0.3775  -0.3395  -0.3395  -0.0225
     0.2653   0.2653   0.3078   0.3078   0.3353   0.3353   0.3664   0.3664
     0.9016   2.0228   2.7343   4.1474   4.1474   4.2219   4.3168   4.3168
     4.4399   4.4399   4.6069   4.6069

     occupation numbers 
     1.0000   1.0000   1.0000   1.0000   1.0000   1.0000   1.0000   1.0000
     1.0000   1.0000   1.0000   1.0000   1.0000   1.0000   1.0000   1.0000
     1.0000   1.0000   1.0000   1.0000   1.0000   1.0000   1.0000   1.0000
     1.0000   1.0000   1.0000   1.0000   1.0000   1.0000   1.0000   1.0000
     1.0000   1.0000   1.0000   1.0000

          k = 0.0000 0.0000 0.0974 (  4712 PWs)   bands (ev):

   -12.1197 -12.0496 -11.8529 -11.7788  -0.4411  -0.4411  -0.4315  -0.4255
    -0.4255  -0.4138  -0.3712  -0.3712  -0.3468  -0.3468  -0.3164  -0.1253
     0.2716   0.2716   0.2943   0.2943   0.3469   0.3469   0.3624   0.3624
     1.1070   1.6887   3.1037   3.8580   4.1714   4.1714   4.2592   4.2592
     4.4970   4.4970   4.5834   4.5834

     occupation numbers 
     1.0000   1.0000   1.0000   1.0000   1.0000   1.0000   1.0000   1.0000
     1.0000   1.0000   1.0000   1.0000   1.0000   1.0000   1.0000   1.0000
     1.0000   1.0000   1.0000   1.0000   1.0000   1.0000   1.0000   1.0000
     1.0000   1.0000   1.0000   1.0000   1.0000   1.0000   1.0000   1.0000
     1.0000   1.0000   1.0000   1.0000

          k = 0.0000 0.0000-0.1461 (  4694 PWs)   bands (ev):

   -12.0894 -12.0894 -11.8111 -11.8111  -0.4346  -0.4346  -0.4346  -0.4346
    -0.4239  -0.4239  -0.3577  -0.3577  -0.3577  -0.3577  -0.2302  -0.2302
     0.2816   0.2816   0.2817   0.2817   0.3560   0.3560   0.3560   0.3560
     1.3789   1.3789   3.4795   3.4795   4.2096   4.2096   4.2096   4.2096
     4.5459   4.5459   4.5459   4.5459

     occupation numbers 
     1.0000   1.0000   1.0000   1.0000   1.0000   1.0000   1.0000   1.0000
     1.0000   1.0000   1.0000   1.0000   1.0000   1.0000   1.0000   1.0000
     1.0000   1.0000   1.0000   1.0000   1.0000   1.0000   1.0000   1.0000
     1.0000   1.0000   1.0000   1.0000   1.0000   1.0000   1.0000   1.0000
     1.0000   1.0000   1.0000   1.0000

          k = 0.0000 0.1925 0.0000 (  4699 PWs)   bands (ev):

   -12.0440 -11.8731 -11.8730 -11.6974  -0.5005  -0.4910  -0.4910  -0.3833
    -0.3613  -0.3245  -0.3245  -0.2975  -0.2859  -0.2859  -0.2494   0.0676
     0.2258   0.2624   0.3213   0.3213   0.3215   0.3215   0.3723   0.4669
     0.9379   2.3461   2.3461   3.2378   3.5276   3.7945   3.7945   3.8787
     4.1694   4.1695   4.3430   4.4562

     occupation numbers 
     1.0000   1.0000   1.0000   1.0000   1.0000   1.0000   1.0000   1.0000
     1.0000   1.0000   1.0000   1.0000   1.0000   1.0000   1.0000   1.0000
     1.0000   1.0000   1.0000   1.0000   1.0000   1.0000   1.0000   1.0000
     1.0000   1.0000   1.0000   1.0000   1.0000   1.0000   1.0000   1.0000
     1.0000   1.0000   1.0000   1.0000

          k = 0.0000 0.1925 0.0487 (  4702 PWs)   bands (ev):

   -12.0383 -11.9178 -11.8280 -11.7034  -0.5080  -0.5022  -0.4618  -0.3816
    -0.3642  -0.3412  -0.3068  -0.3030  -0.3001  -0.2578  -0.2522   0.0310
     0.2298   0.2645   0.2990   0.3069   0.3352   0.3436   0.3707   0.4449
     1.0262   2.0649   2.6105   3.2295   3.5083   3.6765   3.8887   3.9217
     4.0946   4.2440   4.3206   4.4465

     occupation numbers 
     1.0000   1.0000   1.0000   1.0000   1.0000   1.0000   1.0000   1.0000
     1.0000   1.0000   1.0000   1.0000   1.0000   1.0000   1.0000   1.0000
     1.0000   1.0000   1.0000   1.0000   1.0000   1.0000   1.0000   1.0000
     1.0000   1.0000   1.0000   1.0000   1.0000   1.0000   1.0000   1.0000
     1.0000   1.0000   1.0000   1.0000

          k = 0.0000 0.1925 0.0974 (  4701 PWs)   bands (ev):

   -12.0214 -11.9591 -11.7858 -11.7212  -0.5135  -0.5065  -0.4255  -0.3765
    -0.3740  -0.3557  -0.3113  -0.3062  -0.2891  -0.2605  -0.2128  -0.0540
     0.2409   0.2706   0.2771   0.2930   0.3479   0.3651   0.3658   0.4122
     1.2331   1.7766   2.8486   3.1784   3.4836   3.5769   3.9180   4.0247
     4.0481   4.2578   4.3132   4.4180

     occupation numbers 
     1.0000   1.0000   1.0000   1.0000   1.0000   1.0000   1.0000   1.0000
     1.0000   1.0000   1.0000   1.0000   1.0000   1.0000   1.0000   1.0000
     1.0000   1.0000   1.0000   1.0000   1.0000   1.0000   1.0000   1.0000
     1.0000   1.0000   1.0000   1.0000   1.0000   1.0000   1.0000   1.0000
     1.0000   1.0000   1.0000   1.0000

          k = 0.0000 0.1925-0.1461 (  4698 PWs)   bands (ev):

   -11.9944 -11.9944 -11.7493 -11.7493  -0.5115  -0.5115  -0.3939  -0.3939
    -0.3677  -0.3676  -0.3116  -0.3116  -0.2732  -0.2732  -0.1438  -0.1438
     0.2572   0.2573   0.2805   0.2805   0.3582   0.3582   0.3867   0.3867
     1.4934   1.4934   3.0463   3.0463   3.5069   3.5069   3.9644   3.9644
     4.1636   4.1636   4.3725   4.3726

     occupation numbers 
     1.0000   1.0000   1.0000   1.0000   1.0000   1.0000   1.0000   1.0000
     1.0000   1.0000   1.0000   1.0000   1.0000   1.0000   1.0000   1.0000
     1.0000   1.0000   1.0000   1.0000   1.0000   1.0000   1.0000   1.0000
     1.0000   1.0000   1.0000   1.0000   1.0000   1.0000   1.0000   1.0000
     1.0000   1.0000   1.0000   1.0000

          k = 0.0000 0.3849 0.0000 (  4690 PWs)   bands (ev):

   -11.8225 -11.7103 -11.7102 -11.5995  -0.5229  -0.5111  -0.5111  -0.3348
    -0.2831  -0.1762  -0.1762  -0.0908  -0.0908  -0.0751  -0.0529   0.1173
     0.2184   0.3115   0.3459   0.3459   0.3487   0.3487   0.3870   0.5381
     1.3391   1.7743   1.7744   1.8897   2.5452   3.3552   3.3993   3.3993
     3.7431   3.7431   3.9567   4.1206

     occupation numbers 
     1.0000   1.0000   1.0000   1.0000   1.0000   1.0000   1.0000   1.0000
     1.0000   1.0000   1.0000   1.0000   1.0000   1.0000   1.0000   1.0000
     1.0000   1.0000   1.0000   1.0000   1.0000   1.0000   1.0000   1.0000
     1.0000   1.0000   1.0000   1.0000   1.0000   1.0000   1.0000   1.0000
     1.0000   1.0000   1.0000   1.0000

          k = 0.0000 0.3849 0.0487 (  4700 PWs)   bands (ev):

   -11.8186 -11.7392 -11.6814 -11.6033  -0.5309  -0.5251  -0.4788  -0.3420
    -0.2799  -0.2054  -0.1460  -0.0979  -0.0774  -0.0729  -0.0574   0.1023
     0.2206   0.3125   0.3150   0.3365   0.3556   0.3827   0.3854   0.5229
     1.3667   1.6852   1.8601   1.9122   2.5517   3.1568   3.3687   3.6118
     3.6441   3.8414   3.9530   4.1078

     occupation numbers 
     1.0000   1.0000   1.0000   1.0000   1.0000   1.0000   1.0000   1.0000
     1.0000   1.0000   1.0000   1.0000   1.0000   1.0000   1.0000   1.0000
     1.0000   1.0000   1.0000   1.0000   1.0000   1.0000   1.0000   1.0000
     1.0000   1.0000   1.0000   1.0000   1.0000   1.0000   1.0000   1.0000
     1.0000   1.0000   1.0000   1.0000

          k = 0.0000 0.3849 0.0974 (  4694 PWs)   bands (ev):

   -11.8074 -11.7662 -11.6547 -11.6142  -0.5382  -0.5306  -0.4379  -0.3631
    -0.2698  -0.2316  -0.1168  -0.0969  -0.0834  -0.0704  -0.0411   0.0597
     0.2320   0.2828   0.3158   0.3281   0.3651   0.3808   0.4172   0.4893
     1.4326   1.5974   1.9319   1.9566   2.5932   2.9145   3.4082   3.5511
     3.7747   3.9325   3.9337   4.0702

     occupation numbers 
     1.0000   1.0000   1.0000   1.0000   1.0000   1.0000   1.0000   1.0000
     1.0000   1.0000   1.0000   1.0000   1.0000   1.0000   1.0000   1.0000
     1.0000   1.0000   1.0000   1.0000   1.0000   1.0000   1.0000   1.0000
     1.0000   1.0000   1.0000   1.0000   1.0000   1.0000   1.0000   1.0000
     1.0000   1.0000   1.0000   1.0000

          k = 0.0000 0.3849-0.1461 (  4710 PWs)   bands (ev):

   -11.7895 -11.7895 -11.6318 -11.6318  -0.5365  -0.5365  -0.3967  -0.3967
    -0.2535  -0.2535  -0.0910  -0.0910  -0.0909  -0.0909   0.0054   0.0054
     0.2540   0.2540   0.3210   0.3210   0.3737   0.3737   0.4524   0.4525
     1.5125   1.5126   1.9704   1.9704   2.7130   2.7130   3.4705   3.4705
     3.8800   3.8800   4.0105   4.0105

     occupation numbers 
     1.0000   1.0000   1.0000   1.0000   1.0000   1.0000   1.0000   1.0000
     1.0000   1.0000   1.0000   1.0000   1.0000   1.0000   1.0000   1.0000
     1.0000   1.0000   1.0000   1.0000   1.0000   1.0000   1.0000   1.0000
     1.0000   1.0000   1.0000   1.0000   1.0000   1.0000   1.0000   1.0000
     1.0000   1.0000   1.0000   1.0000

          k = 0.0000-0.5774 0.0000 (  4712 PWs)   bands (ev):

   -11.6885 -11.6265 -11.6265 -11.5690  -0.4911  -0.4911  -0.4762  -0.2613
    -0.2518  -0.1116  -0.1115   0.0235   0.0513   0.0791   0.0791   0.1961
     0.3559   0.3725   0.3828   0.3828   0.4053   0.4364   0.4365   0.4626
     1.0719   1.1700   1.1700   1.5347   2.3971   3.0807   3.4329   3.4330
     3.5210   3.5211   3.5854   3.9432

     occupation numbers 
     1.0000   1.0000   1.0000   1.0000   1.0000   1.0000   1.0000   1.0000
     1.0000   1.0000   1.0000   1.0000   1.0000   1.0000   1.0000   1.0000
     1.0000   1.0000   1.0000   1.0000   1.0000   1.0000   1.0000   1.0000
     1.0000   1.0000   1.0000   1.0000   1.0000   1.0000   1.0000   1.0000
     1.0000   1.0000   1.0000   1.0000

          k = 0.0000-0.5774 0.0487 (  4690 PWs)   bands (ev):

   -11.6863 -11.6421 -11.6112 -11.5709  -0.5056  -0.4796  -0.4611  -0.2756
    -0.2472  -0.1499  -0.0714   0.0245   0.0456   0.0591   0.1043   0.1934
     0.3582   0.3729   0.3796   0.3869   0.4042   0.4210   0.4479   0.4624
     1.0671   1.1163   1.2374   1.5158   2.4490   3.0962   3.2427   3.4096
     3.5696   3.5998   3.6313   3.9290

     occupation numbers 
     1.0000   1.0000   1.0000   1.0000   1.0000   1.0000   1.0000   1.0000
     1.0000   1.0000   1.0000   1.0000   1.0000   1.0000   1.0000   1.0000
     1.0000   1.0000   1.0000   1.0000   1.0000   1.0000   1.0000   1.0000
     1.0000   1.0000   1.0000   1.0000   1.0000   1.0000   1.0000   1.0000
     1.0000   1.0000   1.0000   1.0000

          k = 0.0000-0.5774 0.0974 (  4698 PWs)   bands (ev):

   -11.6799 -11.6570 -11.5972 -11.5765  -0.5070  -0.4885  -0.4173  -0.3139
    -0.2341  -0.1842  -0.0328   0.0276   0.0283   0.0439   0.1324   0.1820
     0.3666   0.3736   0.3770   0.3915   0.4008   0.4021   0.4553   0.4618
     1.0593   1.0794   1.3138   1.4644   2.5912   3.0202   3.1415   3.3044
     3.6322   3.6423   3.7333   3.8871

     occupation numbers 
     1.0000   1.0000   1.0000   1.0000   1.0000   1.0000   1.0000   1.0000
     1.0000   1.0000   1.0000   1.0000   1.0000   1.0000   1.0000   1.0000
     1.0000   1.0000   1.0000   1.0000   1.0000   1.0000   1.0000   1.0000
     1.0000   1.0000   1.0000   1.0000   1.0000   1.0000   1.0000   1.0000
     1.0000   1.0000   1.0000   1.0000

          k = 0.0000-0.5774-0.1461 (  4696 PWs)   bands (ev):

   -11.6699 -11.6699 -11.5854 -11.5854  -0.4994  -0.4994  -0.3651  -0.3650
    -0.2128  -0.2128   0.0015   0.0016   0.0337   0.0337   0.1601   0.1601
     0.3750   0.3750   0.3825   0.3825   0.3964   0.3965   0.4595   0.4596
     1.0609   1.0610   1.3927   1.3928   2.7928   2.7928   3.2128   3.2128
     3.6562   3.6562   3.8204   3.8205

     occupation numbers 
     1.0000   1.0000   1.0000   1.0000   1.0000   1.0000   1.0000   1.0000
     1.0000   1.0000   1.0000   1.0000   1.0000   1.0000   1.0000   1.0000
     1.0000   1.0000   1.0000   1.0000   1.0000   1.0000   1.0000   1.0000
     1.0000   1.0000   1.0000   1.0000   1.0000   1.0000   1.0000   1.0000
     1.0000   1.0000   1.0000   1.0000

          k = 0.1667 0.2887 0.0000 (  4681 PWs)   bands (ev):

   -11.8819 -11.7519 -11.7518 -11.6216  -0.4697  -0.4697  -0.4616  -0.3810
    -0.2676  -0.2598  -0.2598  -0.2263  -0.1524  -0.1523  -0.0853   0.1211
     0.1917   0.2808   0.3298   0.3298   0.3484   0.3484   0.3814   0.5344
     1.2521   2.0564   2.0565   2.4935   2.5939   3.3488   3.4490   3.4490
     3.6973   3.6973   4.0605   4.1073

     occupation numbers 
     1.0000   1.0000   1.0000   1.0000   1.0000   1.0000   1.0000   1.0000
     1.0000   1.0000   1.0000   1.0000   1.0000   1.0000   1.0000   1.0000
     1.0000   1.0000   1.0000   1.0000   1.0000   1.0000   1.0000   1.0000
     1.0000   1.0000   1.0000   1.0000   1.0000   1.0000   1.0000   1.0000
     1.0000   1.0000   1.0000   1.0000

          k = 0.1667 0.2887 0.0487 (  4687 PWs)   bands (ev):

   -11.8775 -11.7855 -11.7181 -11.6261  -0.4848  -0.4645  -0.4438  -0.3814
    -0.2686  -0.2641  -0.2574  -0.2292  -0.1458  -0.1422  -0.0888   0.0928
     0.1979   0.2854   0.3047   0.3243   0.3499   0.3768   0.3798   0.5163
     1.3084   1.9228   2.1764   2.4799   2.6217   3.2429   3.3540   3.5272
     3.7321   3.7766   4.0469   4.0982

     occupation numbers 
     1.0000   1.0000   1.0000   1.0000   1.0000   1.0000   1.0000   1.0000
     1.0000   1.0000   1.0000   1.0000   1.0000   1.0000   1.0000   1.0000
     1.0000   1.0000   1.0000   1.0000   1.0000   1.0000   1.0000   1.0000
     1.0000   1.0000   1.0000   1.0000   1.0000   1.0000   1.0000   1.0000
     1.0000   1.0000   1.0000   1.0000

          k = 0.1667 0.2887 0.0974 (  4684 PWs)   bands (ev):

   -11.8645 -11.8169 -11.6867 -11.6391  -0.4876  -0.4723  -0.4145  -0.3839
    -0.2703  -0.2686  -0.2546  -0.2372  -0.1307  -0.1090  -0.0986   0.0248
     0.2153   0.2719   0.2945   0.3144   0.3593   0.3752   0.4097   0.4800
     1.4452   1.7739   2.2825   2.4387   2.7056   3.0297   3.3732   3.4699
     3.8653   3.8772   4.0073   4.0646

     occupation numbers 
     1.0000   1.0000   1.0000   1.0000   1.0000   1.0000   1.0000   1.0000
     1.0000   1.0000   1.0000   1.0000   1.0000   1.0000   1.0000   1.0000
     1.0000   1.0000   1.0000   1.0000   1.0000   1.0000   1.0000   1.0000
     1.0000   1.0000   1.0000   1.0000   1.0000   1.0000   1.0000   1.0000
     1.0000   1.0000   1.0000   1.0000

          k = 0.1667 0.2887-0.1461 (  4684 PWs)   bands (ev):

   -11.8438 -11.8438 -11.6597 -11.6597  -0.4817  -0.4816  -0.3934  -0.3934
    -0.2708  -0.2708  -0.2473  -0.2473  -0.1135  -0.1135  -0.0505  -0.0505
     0.2411   0.2411   0.3043   0.3044   0.3680   0.3680   0.4436   0.4436
     1.6108   1.6108   2.3716   2.3716   2.8442   2.8442   3.4119   3.4119
     3.9449   3.9449   3.9934   3.9934

     occupation numbers 
     1.0000   1.0000   1.0000   1.0000   1.0000   1.0000   1.0000   1.0000
     1.0000   1.0000   1.0000   1.0000   1.0000   1.0000   1.0000   1.0000
     1.0000   1.0000   1.0000   1.0000   1.0000   1.0000   1.0000   1.0000
     1.0000   1.0000   1.0000   1.0000   1.0000   1.0000   1.0000   1.0000
     1.0000   1.0000   1.0000   1.0000

          k = 0.1667 0.4811 0.0000 (  4693 PWs)   bands (ev):

   -11.6927 -11.6277 -11.6277 -11.5671  -0.4272  -0.3975  -0.3975  -0.2429
    -0.1576  -0.1361  -0.1360   0.0010   0.0012   0.0012   0.0680   0.1166
     0.2460   0.3129   0.3431   0.3431   0.4262   0.4644   0.4644   0.5669
     1.2639   1.4042   1.4043   1.6825   2.3922   2.6966   3.0371   3.0371
     3.5371   3.5372   3.5615   3.6908

     occupation numbers 
     1.0000   1.0000   1.0000   1.0000   1.0000   1.0000   1.0000   1.0000
     1.0000   1.0000   1.0000   1.0000   1.0000   1.0000   1.0000   1.0000
     1.0000   1.0000   1.0000   1.0000   1.0000   1.0000   1.0000   1.0000
     1.0000   1.0000   1.0000   1.0000   1.0000   1.0000   1.0000   1.0000
     1.0000   1.0000   1.0000   1.0000

          k = 0.1667 0.4811 0.0487 (  4699 PWs)   bands (ev):

   -11.6904 -11.6441 -11.6116 -11.5691  -0.4265  -0.4147  -0.3676  -0.2465
    -0.1715  -0.1671  -0.0925  -0.0053  -0.0003   0.0125   0.0618   0.1067
     0.2459   0.3211   0.3274   0.3509   0.4263   0.4470   0.4865   0.5629
     1.2602   1.3456   1.4706   1.6759   2.4242   2.7258   2.8986   3.1554
     3.3933   3.5546   3.6501   3.6928

     occupation numbers 
     1.0000   1.0000   1.0000   1.0000   1.0000   1.0000   1.0000   1.0000
     1.0000   1.0000   1.0000   1.0000   1.0000   1.0000   1.0000   1.0000
     1.0000   1.0000   1.0000   1.0000   1.0000   1.0000   1.0000   1.0000
     1.0000   1.0000   1.0000   1.0000   1.0000   1.0000   1.0000   1.0000
     1.0000   1.0000   1.0000   1.0000

          k = 0.1667 0.4811 0.0974 (  4695 PWs)   bands (ev):

   -11.6837 -11.6597 -11.5968 -11.5750  -0.4250  -0.4218  -0.3278  -0.2591
    -0.1946  -0.1880  -0.0450  -0.0066  -0.0037   0.0288   0.0419   0.0797
     0.2563   0.3047   0.3356   0.3518   0.4271   0.4357   0.5104   0.5511
     1.2577   1.2992   1.5390   1.6503   2.5107   2.7601   2.8150   3.1247
     3.3608   3.5190   3.7061   3.7099

     occupation numbers 
     1.0000   1.0000   1.0000   1.0000   1.0000   1.0000   1.0000   1.0000
     1.0000   1.0000   1.0000   1.0000   1.0000   1.0000   1.0000   1.0000
     1.0000   1.0000   1.0000   1.0000   1.0000   1.0000   1.0000   1.0000
     1.0000   1.0000   1.0000   1.0000   1.0000   1.0000   1.0000   1.0000
     1.0000   1.0000   1.0000   1.0000

          k = 0.1667 0.4811-0.1461 (  4696 PWs)   bands (ev):

   -11.6732 -11.6732 -11.5844 -11.5844  -0.4238  -0.4237  -0.2872  -0.2871
    -0.2010  -0.2010  -0.0095  -0.0095   0.0072   0.0072   0.0508   0.0508
     0.2787   0.2787   0.3465   0.3465   0.4296   0.4296   0.5329   0.5329
     1.2692   1.2692   1.6022   1.6022   2.6284   2.6285   2.9594   2.9594
     3.4469   3.4469   3.7214   3.7214

     occupation numbers 
     1.0000   1.0000   1.0000   1.0000   1.0000   1.0000   1.0000   1.0000
     1.0000   1.0000   1.0000   1.0000   1.0000   1.0000   1.0000   1.0000
     1.0000   1.0000   1.0000   1.0000   1.0000   1.0000   1.0000   1.0000
     1.0000   1.0000   1.0000   1.0000   1.0000   1.0000   1.0000   1.0000
     1.0000   1.0000   1.0000   1.0000

          k = 0.3333 0.5774 0.0000 (  4707 PWs)   bands (ev):

   -11.5897 -11.5896 -11.5868 -11.5867  -0.4266  -0.2338  -0.2338  -0.2180
    -0.2180  -0.0786  -0.0786   0.0630   0.1694   0.1694   0.2256   0.2256
     0.2389   0.2628   0.2628   0.2856   0.4815   0.4815   0.5842   0.5842
     1.2983   1.2983   1.4413   1.4414   1.7458   2.4620   2.4621   3.1279
     3.1279   3.1476   3.5786   3.5786

     occupation numbers 
     1.0000   1.0000   1.0000   1.0000   1.0000   1.0000   1.0000   1.0000
     1.0000   1.0000   1.0000   1.0000   1.0000   1.0000   1.0000   1.0000
     1.0000   1.0000   1.0000   1.0000   1.0000   1.0000   1.0000   1.0000
     1.0000   1.0000   1.0000   1.0000   1.0000   1.0000   1.0000   1.0000
     1.0000   1.0000   1.0000   1.0000

          k = 0.3333 0.5774 0.0487 (  4710 PWs)   bands (ev):

   -11.5895 -11.5894 -11.5870 -11.5869  -0.4210  -0.2902  -0.2088  -0.2088
    -0.1714  -0.0878  -0.0878   0.0494   0.1715   0.1715   0.2190   0.2190
     0.2398   0.2568   0.2687   0.2848   0.4910   0.4910   0.5788   0.5789
     1.3062   1.3062   1.4295   1.4295   1.7727   2.2850   2.6377   3.1236
     3.1599   3.1600   3.5496   3.5497

     occupation numbers 
     1.0000   1.0000   1.0000   1.0000   1.0000   1.0000   1.0000   1.0000
     1.0000   1.0000   1.0000   1.0000   1.0000   1.0000   1.0000   1.0000
     1.0000   1.0000   1.0000   1.0000   1.0000   1.0000   1.0000   1.0000
     1.0000   1.0000   1.0000   1.0000   1.0000   1.0000   1.0000   1.0000
     1.0000   1.0000   1.0000   1.0000

          k = 0.3333 0.5774 0.0974 (  4716 PWs)   bands (ev):

   -11.5890 -11.5889 -11.5875 -11.5875  -0.4041  -0.3380  -0.1836  -0.1836
    -0.1135  -0.1135  -0.1061   0.0116   0.1782   0.1782   0.2041   0.2041
     0.2423   0.2511   0.2740   0.2824   0.5138   0.5138   0.5634   0.5634
     1.3286   1.3286   1.3992   1.3992   1.8497   2.1169   2.8016   3.0537
     3.2457   3.2457   3.4700   3.4700

     occupation numbers 
     1.0000   1.0000   1.0000   1.0000   1.0000   1.0000   1.0000   1.0000
     1.0000   1.0000   1.0000   1.0000   1.0000   1.0000   1.0000   1.0000
     1.0000   1.0000   1.0000   1.0000   1.0000   1.0000   1.0000   1.0000
     1.0000   1.0000   1.0000   1.0000   1.0000   1.0000   1.0000   1.0000
     1.0000   1.0000   1.0000   1.0000

          k = 0.3333 0.5774-0.1461 (  4704 PWs)   bands (ev):

   -11.5882 -11.5882 -11.5882 -11.5881  -0.3763  -0.3763  -0.1487  -0.1487
    -0.1487  -0.1487  -0.0428  -0.0428   0.1892   0.1892   0.1893   0.1893
     0.2463   0.2463   0.2788   0.2788   0.5405   0.5405   0.5405   0.5405
     1.3620   1.3620   1.3620   1.3621   1.9681   1.9681   2.9436   2.9436
     3.3593   3.3593   3.3593   3.3594

     occupation numbers 
     1.0000   1.0000   1.0000   1.0000   1.0000   1.0000   1.0000   1.0000
     1.0000   1.0000   1.0000   1.0000   1.0000   1.0000   1.0000   1.0000
     1.0000   1.0000   1.0000   1.0000   1.0000   1.0000   1.0000   1.0000
     1.0000   1.0000   1.0000   1.0000   1.0000   1.0000   1.0000   1.0000
     1.0000   1.0000   1.0000   1.0000

          k = 0.0000-0.1925 0.0487 (  4702 PWs)   bands (ev):

   -12.0383 -11.9178 -11.8280 -11.7034  -0.5080  -0.5022  -0.4618  -0.3816
    -0.3642  -0.3412  -0.3068  -0.3030  -0.3001  -0.2578  -0.2522   0.0310
     0.2298   0.2645   0.2990   0.3069   0.3352   0.3436   0.3707   0.4449
     1.0262   2.0649   2.6105   3.2295   3.5083   3.6765   3.8887   3.9217
     4.0946   4.2440   4.3206   4.4465

     occupation numbers 
     1.0000   1.0000   1.0000   1.0000   1.0000   1.0000   1.0000   1.0000
     1.0000   1.0000   1.0000   1.0000   1.0000   1.0000   1.0000   1.0000
     1.0000   1.0000   1.0000   1.0000   1.0000   1.0000   1.0000   1.0000
     1.0000   1.0000   1.0000   1.0000   1.0000   1.0000   1.0000   1.0000
     1.0000   1.0000   1.0000   1.0000

          k = 0.0000-0.1925 0.0974 (  4701 PWs)   bands (ev):

   -12.0214 -11.9591 -11.7858 -11.7212  -0.5135  -0.5065  -0.4256  -0.3765
    -0.3740  -0.3557  -0.3113  -0.3062  -0.2891  -0.2605  -0.2128  -0.0540
     0.2409   0.2706   0.2771   0.2930   0.3479   0.3651   0.3658   0.4122
     1.2331   1.7766   2.8485   3.1785   3.4835   3.5770   3.9180   4.0247
     4.0481   4.2578   4.3132   4.4180

     occupation numbers 
     1.0000   1.0000   1.0000   1.0000   1.0000   1.0000   1.0000   1.0000
     1.0000   1.0000   1.0000   1.0000   1.0000   1.0000   1.0000   1.0000
     1.0000   1.0000   1.0000   1.0000   1.0000   1.0000   1.0000   1.0000
     1.0000   1.0000   1.0000   1.0000   1.0000   1.0000   1.0000   1.0000
     1.0000   1.0000   1.0000   1.0000

          k = 0.0000-0.3849 0.0487 (  4700 PWs)   bands (ev):

   -11.8186 -11.7392 -11.6814 -11.6033  -0.5309  -0.5251  -0.4788  -0.3420
    -0.2799  -0.2054  -0.1460  -0.0979  -0.0774  -0.0729  -0.0574   0.1023
     0.2206   0.3125   0.3150   0.3365   0.3556   0.3826   0.3854   0.5229
     1.3667   1.6852   1.8600   1.9122   2.5517   3.1569   3.3687   3.6118
     3.6441   3.8414   3.9530   4.1078

     occupation numbers 
     1.0000   1.0000   1.0000   1.0000   1.0000   1.0000   1.0000   1.0000
     1.0000   1.0000   1.0000   1.0000   1.0000   1.0000   1.0000   1.0000
     1.0000   1.0000   1.0000   1.0000   1.0000   1.0000   1.0000   1.0000
     1.0000   1.0000   1.0000   1.0000   1.0000   1.0000   1.0000   1.0000
     1.0000   1.0000   1.0000   1.0000

          k = 0.0000-0.3849 0.0974 (  4694 PWs)   bands (ev):

   -11.8074 -11.7662 -11.6547 -11.6142  -0.5381  -0.5306  -0.4379  -0.3631
    -0.2698  -0.2316  -0.1168  -0.0969  -0.0834  -0.0704  -0.0411   0.0597
     0.2320   0.2828   0.3158   0.3281   0.3651   0.3808   0.4172   0.4893
     1.4326   1.5974   1.9319   1.9567   2.5931   2.9145   3.4082   3.5511
     3.7747   3.9325   3.9337   4.0702

     occupation numbers 
     1.0000   1.0000   1.0000   1.0000   1.0000   1.0000   1.0000   1.0000
     1.0000   1.0000   1.0000   1.0000   1.0000   1.0000   1.0000   1.0000
     1.0000   1.0000   1.0000   1.0000   1.0000   1.0000   1.0000   1.0000
     1.0000   1.0000   1.0000   1.0000   1.0000   1.0000   1.0000   1.0000
     1.0000   1.0000   1.0000   1.0000

          k =-0.1667-0.4811 0.0487 (  4699 PWs)   bands (ev):

   -11.6904 -11.6441 -11.6116 -11.5691  -0.4265  -0.4147  -0.3676  -0.2465
    -0.1715  -0.1671  -0.0925  -0.0053  -0.0003   0.0125   0.0618   0.1067
     0.2459   0.3211   0.3274   0.3509   0.4263   0.4470   0.4865   0.5629
     1.2602   1.3456   1.4706   1.6759   2.4242   2.7258   2.8986   3.1554
     3.3933   3.5546   3.6501   3.6928

     occupation numbers 
     1.0000   1.0000   1.0000   1.0000   1.0000   1.0000   1.0000   1.0000
     1.0000   1.0000   1.0000   1.0000   1.0000   1.0000   1.0000   1.0000
     1.0000   1.0000   1.0000   1.0000   1.0000   1.0000   1.0000   1.0000
     1.0000   1.0000   1.0000   1.0000   1.0000   1.0000   1.0000   1.0000
     1.0000   1.0000   1.0000   1.0000

          k =-0.1667-0.4811 0.0974 (  4695 PWs)   bands (ev):

   -11.6837 -11.6597 -11.5968 -11.5750  -0.4250  -0.4218  -0.3278  -0.2591
    -0.1946  -0.1880  -0.0450  -0.0066  -0.0037   0.0288   0.0419   0.0797
     0.2562   0.3047   0.3356   0.3518   0.4271   0.4357   0.5104   0.5511
     1.2577   1.2992   1.5390   1.6503   2.5107   2.7601   2.8149   3.1247
     3.3607   3.5190   3.7061   3.7099

     occupation numbers 
     1.0000   1.0000   1.0000   1.0000   1.0000   1.0000   1.0000   1.0000
     1.0000   1.0000   1.0000   1.0000   1.0000   1.0000   1.0000   1.0000
     1.0000   1.0000   1.0000   1.0000   1.0000   1.0000   1.0000   1.0000
     1.0000   1.0000   1.0000   1.0000   1.0000   1.0000   1.0000   1.0000
     1.0000   1.0000   1.0000   1.0000

     highest occupied level (ev):     4.6149

!    total energy              =    -723.19774386 Ry
     estimated scf accuracy    <          9.3E-09 Ry

     The total energy is the sum of the following terms:
     one-electron contribution =    -348.84294026 Ry
     hartree contribution      =     251.00707349 Ry
     xc contribution           =    -218.44480063 Ry
     ewald contribution        =    -406.91707647 Ry

     convergence has been achieved in  42 iterations

     Forces acting on atoms (cartesian axes, Ry/au):

     atom    1 type  1   force =     0.00000000   -0.00000000   -0.00111498
     atom    2 type  1   force =     0.00000000    0.00000000   -0.00111018
     atom    3 type  2   force =     0.00000000    0.00000000    0.00112605
     atom    4 type  2   force =     0.00000000   -0.00000000    0.00112120
     atom    5 type  1   force =     0.00000000    0.00000000   -0.00110377
     atom    6 type  1   force =     0.00000000   -0.00000000   -0.00115620
     atom    7 type  2   force =     0.00000000    0.00000000    0.00111443
     atom    8 type  2   force =     0.00000000    0.00000000    0.00112344
     The non-local contrib.  to forces
     atom    1 type  1   force =     0.00000000    0.00000000    0.14310342
     atom    2 type  1   force =    -0.00000000    0.00000000    0.14311564
     atom    3 type  2   force =     0.00000000    0.00000000    0.15761878
     atom    4 type  2   force =    -0.00000000   -0.00000000    0.15761014
     atom    5 type  1   force =     0.00000000    0.00000000    0.14309921
     atom    6 type  1   force =     0.00000000    0.00000000    0.14306907
     atom    7 type  2   force =     0.00000000    0.00000000    0.15759741
     atom    8 type  2   force =     0.00000000   -0.00000000    0.15760588
     The ionic contribution  to forces
     atom    1 type  1   force =    -0.00000000    0.00000000    1.12708981
     atom    2 type  1   force =     0.00000000   -0.00000000    1.12708981
     atom    3 type  2   force =    -0.00000000    0.00000000   -1.12708981
     atom    4 type  2   force =     0.00000000   -0.00000000   -1.12708981
     atom    5 type  1   force =    -0.00000000    0.00000000    1.12708981
     atom    6 type  1   force =     0.00000000   -0.00000000    1.12708981
     atom    7 type  2   force =    -0.00000000    0.00000000   -1.12708981
     atom    8 type  2   force =     0.00000000   -0.00000000   -1.12708981
     The local contribution  to forces
     atom    1 type  1   force =    -0.00000004    0.00000003   -1.26245421
     atom    2 type  1   force =     0.00000004   -0.00000003   -1.26247578
     atom    3 type  2   force =    -0.00000001    0.00000001    0.97203130
     atom    4 type  2   force =     0.00000001   -0.00000001    0.97200705
     atom    5 type  1   force =    -0.00000004    0.00000003   -1.26246056
     atom    6 type  1   force =     0.00000004   -0.00000003   -1.26237632
     atom    7 type  2   force =    -0.00000001    0.00000001    0.97199456
     atom    8 type  2   force =     0.00000001   -0.00000001    0.97201018
     The core correction contribution to forces
     atom    1 type  1   force =    -0.00000001    0.00000000   -0.00885757
     atom    2 type  1   force =     0.00000001   -0.00000000   -0.00885739
     atom    3 type  2   force =     0.00000000   -0.00000000   -0.00140495
     atom    4 type  2   force =    -0.00000000    0.00000000   -0.00140483
     atom    5 type  1   force =    -0.00000001    0.00000000   -0.00885708
     atom    6 type  1   force =     0.00000001   -0.00000000   -0.00885829
     atom    7 type  2   force =     0.00000000   -0.00000000   -0.00140466
     atom    8 type  2   force =    -0.00000000    0.00000000   -0.00140478
     The Hubbard contrib.    to forces
     atom    1 type  1   force =     0.00000000    0.00000000    0.00000000
     atom    2 type  1   force =     0.00000000    0.00000000    0.00000000
     atom    3 type  2   force =     0.00000000    0.00000000    0.00000000
     atom    4 type  2   force =     0.00000000    0.00000000    0.00000000
     atom    5 type  1   force =     0.00000000    0.00000000    0.00000000
     atom    6 type  1   force =     0.00000000    0.00000000    0.00000000
     atom    7 type  2   force =     0.00000000    0.00000000    0.00000000
     atom    8 type  2   force =     0.00000000    0.00000000    0.00000000
     The SCF correction term to forces
     atom    1 type  1   force =    -0.00000000    0.00000000    0.00000379
     atom    2 type  1   force =     0.00000000   -0.00000000    0.00001776
     atom    3 type  2   force =    -0.00000000    0.00000000   -0.00002904
     atom    4 type  2   force =     0.00000000   -0.00000000   -0.00000112
     atom    5 type  1   force =    -0.00000000    0.00000000    0.00002507
     atom    6 type  1   force =     0.00000000   -0.00000000   -0.00008025
     atom    7 type  2   force =    -0.00000000    0.00000000    0.00001716
     atom    8 type  2   force =     0.00000000   -0.00000000    0.00000219

     Total force =     0.003172     Total SCF correction =     0.000092

     init_run     :      7.79s CPU      8.17s WALL (       1 calls)
     electrons    :    331.89s CPU    350.00s WALL (       1 calls)
     forces       :      4.15s CPU      4.29s WALL (       1 calls)

     Called by init_run:
     wfcinit      :      2.52s CPU      2.65s WALL (       1 calls)
     wfcinit:atom :      0.05s CPU      0.05s WALL (       9 calls)
     wfcinit:wfcr :      1.80s CPU      1.93s WALL (       9 calls)
     potinit      :      1.47s CPU      1.54s WALL (       1 calls)
     hinit0       :      3.40s CPU      3.45s WALL (       1 calls)

     Called by electrons:
     c_bands      :    254.91s CPU    268.72s WALL (      42 calls)
     sum_band     :     30.64s CPU     31.26s WALL (      42 calls)
     v_of_rho     :     17.91s CPU     18.09s WALL (      43 calls)
     v_h          :      0.98s CPU      0.99s WALL (      43 calls)
     v_xc         :     17.46s CPU     17.65s WALL (      44 calls)
     newd         :     15.91s CPU     19.49s WALL (      43 calls)
     mix_rho      :      2.62s CPU      2.67s WALL (      42 calls)

     Called by c_bands:
     init_us_2    :      5.63s CPU      5.66s WALL (     774 calls)
     init_us_2:cp :      5.62s CPU      5.66s WALL (     774 calls)
     cegterg      :    199.66s CPU    213.33s WALL (     378 calls)

     Called by sum_band:
     sum_band:wei :      0.05s CPU      0.05s WALL (      42 calls)
     sum_band:loo :     17.35s CPU     17.45s WALL (      42 calls)
     sum_band:buf :      0.51s CPU      0.56s WALL (     378 calls)
     sum_band:ini :      2.65s CPU      2.66s WALL (     378 calls)
     sum_band:cal :      4.42s CPU      4.43s WALL (     378 calls)
     sum_band:bec :      0.03s CPU      0.03s WALL (     378 calls)
     addusdens    :      6.38s CPU      6.62s WALL (      42 calls)
     addusd:skk   :      0.03s CPU      0.03s WALL (      84 calls)
     addusd:dgemm :      0.78s CPU      0.82s WALL (      84 calls)
     addusd:qvan2 :      3.19s CPU      3.20s WALL (      84 calls)

     Called by *egterg:
     cdiaghg      :     10.68s CPU     10.71s WALL (    2424 calls)
     cegterg:over :     14.95s CPU     15.02s WALL (    2046 calls)
     cegterg:upda :     11.99s CPU     14.38s WALL (    2046 calls)
     cegterg:last :     29.97s CPU     37.17s WALL (    1033 calls)
     h_psi        :     93.10s CPU     93.45s WALL (    2433 calls)
     s_psi        :     12.23s CPU     12.29s WALL (    2433 calls)
     g_psi        :      1.78s CPU      1.80s WALL (    2046 calls)

     Called by h_psi:
     h_psi:calbec :     17.46s CPU     17.50s WALL (    2433 calls)
     vloc_psi     :     60.74s CPU     61.01s WALL (    2433 calls)
     add_vuspsi   :     14.42s CPU     14.46s WALL (    2433 calls)

     General routines
     calbec       :     22.81s CPU     22.86s WALL (    2847 calls)
     fft          :     10.25s CPU     10.28s WALL (     568 calls)
     ffts         :      0.80s CPU      0.80s WALL (      85 calls)
     fftw         :     59.02s CPU     59.24s WALL (   25840 calls)
     interpolate  :      1.53s CPU      1.53s WALL (      43 calls)

     Parallel routines

     PWSCF        :   5m44.68s CPU   6m 3.34s WALL


   This run was terminated on:  17:47:33  26Aug2025            

=------------------------------------------------------------------------------=
   JOB DONE.
=------------------------------------------------------------------------------=
