
     Program PWSCF v.7.2 starts on 23Jun2025 at 14:19: 4 

     This program is part of the open-source Quantum ESPRESSO suite
     for quantum simulation of materials; please cite
         "P. Giannozzi et al., J. Phys.:Condens. Matter 21 395502 (2009);
         "P. Giannozzi et al., J. Phys.:Condens. Matter 29 465901 (2017);
         "P. Giannozzi et al., J. Chem. Phys. 152 154105 (2020);
          URL http://www.quantum-espresso.org", 
     in publications or presentations arising from this work. More details at
     http://www.quantum-espresso.org/quote

     Parallel version (MPI), running on     8 processors

     MPI processes distributed on     1 nodes
     91220 MiB available memory on the printing compute node when the environment starts

     Reading input from /home/jvc/QEspresso7.2/ZnO_DataBase/scfs_rnd025.in/scf-6.18-1.49-2.in

     Current dimensions of program PWSCF are:
     Max number of different atomic species (ntypx) = 10
     Max number of k-points (npk) =  40000
     Max angular momentum in pseudopotentials (lmaxx) =  4
     file Zn.upf: wavefunction(s)  3D renormalized

     R & G space division:  proc/nbgrp/npool/nimage =       8
     Subspace diagonalization in iterative solution of the eigenvalue problem:
     a serial algorithm will be used


     Parallelization info
     --------------------
     sticks:   dense  smooth     PW     G-vecs:    dense   smooth      PW
     Min         130      64     20                 5122     1804     310
     Max         132      66     21                 5123     1807     313
     Sum        1045     517    163                40979    14441    2489

     Using Slab Decomposition



     bravais-lattice index     =            4
     lattice parameter (alat)  =       6.1788  a.u.
     unit-cell volume          =     303.4138 (a.u.)^3
     number of atoms/cell      =            4
     number of atomic types    =            2
     number of electrons       =        36.00
     number of Kohn-Sham states=           18
     kinetic-energy cutoff     =      50.0000  Ry
     charge density cutoff     =     400.0000  Ry
     scf convergence threshold =      1.0E-08
     mixing beta               =       0.3000
     number of iterations used =            8  plain     mixing
     Exchange-correlation= PBE
                           (   1   4   3   4   0   0   0)

     celldm(1)=   6.178821  celldm(2)=   0.000000  celldm(3)=   1.485210
     celldm(4)=   0.000000  celldm(5)=   0.000000  celldm(6)=   0.000000

     crystal axes: (cart. coord. in units of alat)
               a(1) = (   1.000000   0.000000   0.000000 )  
               a(2) = (  -0.500000   0.866025   0.000000 )  
               a(3) = (   0.000000   0.000000   1.485210 )  

     reciprocal axes: (cart. coord. in units 2 pi/alat)
               b(1) = (  1.000000  0.577350 -0.000000 )  
               b(2) = (  0.000000  1.154701  0.000000 )  
               b(3) = (  0.000000 -0.000000  0.673306 )  


     PseudoPot. # 1 for Zn read from file:
     ./pseudos/Zn.upf
     MD5 check sum: 7f56cabf9682ed8c977c2f7d0c5985c5
     Pseudo is Ultrasoft + core correction, Zval = 12.0
     Generated using &quot;atomic&quot; code by A. Dal Corso  v.6.2.2
     Using radial grid of 1201 points,  6 beta functions with: 
                l(1) =   0
                l(2) =   0
                l(3) =   1
                l(4) =   1
                l(5) =   2
                l(6) =   2
     Q(r) pseudized with 0 coefficients 


     PseudoPot. # 2 for O  read from file:
     ./pseudos/O.upf
     MD5 check sum: 91400c9766925bcf19f520983a725ff0
     Pseudo is Ultrasoft + core correction, Zval =  6.0
     Generated using &quot;atomic&quot; code by A. Dal Corso  v.6.3MaX
     Using radial grid of 1095 points,  4 beta functions with: 
                l(1) =   0
                l(2) =   0
                l(3) =   1
                l(4) =   1
     Q(r) pseudized with 0 coefficients 


     atomic species   valence    mass     pseudopotential
        Zn            12.00    63.38000     Zn( 1.00)
        O              6.00    15.99900     O ( 1.00)

     No symmetry found



   Cartesian axes

     site n.     atom                  positions (alat units)
         1           Zn  tau(   1) = (   0.4564130   0.1488409   1.0334900  )
         2           Zn  tau(   2) = (   0.0032931   0.5962890   0.1844443  )
         3           O   tau(   3) = (   0.6325131   0.2116124   1.4291410  )
         4           O   tau(   4) = (   0.1256315   0.6072085   0.6753405  )

     number of k points=   112

     Number of k-points >= 100: set verbosity='high' to print them.

     Dense  grid:    40979 G-vectors     FFT dimensions: (  40,  40,  60)

     Smooth grid:    14441 G-vectors     FFT dimensions: (  27,  27,  45)

     Estimated max dynamical RAM per process >      28.44 MB

     Estimated total dynamical RAM >     227.52 MB

     Check: negative core charge=   -0.000002

     Initial potential from superposition of free atoms

     starting charge      35.9925, renormalised to      36.0000
     Starting wfcs are   26 randomized atomic wfcs

     total cpu time spent up to now is        3.8 secs

     Self-consistent Calculation

     iteration #  1     ecut=    50.00 Ry     beta= 0.30
     Davidson diagonalization with overlap
     ethr =  1.00E-02,  avg # of iterations =  2.0

     total cpu time spent up to now is        9.0 secs

     total energy              =    -361.04132401 Ry
     estimated scf accuracy    <       0.90767728 Ry

     iteration #  2     ecut=    50.00 Ry     beta= 0.30
     Davidson diagonalization with overlap
     ethr =  2.52E-03,  avg # of iterations =  2.0

     total cpu time spent up to now is       14.9 secs

     total energy              =    -361.10871421 Ry
     estimated scf accuracy    <       0.15392404 Ry

     iteration #  3     ecut=    50.00 Ry     beta= 0.30
     Davidson diagonalization with overlap
     ethr =  4.28E-04,  avg # of iterations =  6.7

     total cpu time spent up to now is       25.6 secs

     total energy              =    -361.19779681 Ry
     estimated scf accuracy    <       0.13060310 Ry

     iteration #  4     ecut=    50.00 Ry     beta= 0.30
     Davidson diagonalization with overlap
     ethr =  3.63E-04,  avg # of iterations =  2.0

     total cpu time spent up to now is       31.0 secs

     total energy              =    -361.21891749 Ry
     estimated scf accuracy    <       0.02130969 Ry

     iteration #  5     ecut=    50.00 Ry     beta= 0.30
     Davidson diagonalization with overlap
     ethr =  5.92E-05,  avg # of iterations = 10.2

     total cpu time spent up to now is       49.0 secs

     total energy              =    -361.44659704 Ry
     estimated scf accuracy    <       0.80756268 Ry

     iteration #  6     ecut=    50.00 Ry     beta= 0.30
     Davidson diagonalization with overlap
     ethr =  5.92E-05,  avg # of iterations =  1.0

     total cpu time spent up to now is       53.4 secs

     total energy              =    -361.40227929 Ry
     estimated scf accuracy    <       0.79406671 Ry

     iteration #  7     ecut=    50.00 Ry     beta= 0.30
     Davidson diagonalization with overlap
     ethr =  5.92E-05,  avg # of iterations =  1.0

     total cpu time spent up to now is       57.9 secs

     total energy              =    -361.20543968 Ry
     estimated scf accuracy    <       0.70256868 Ry

     iteration #  8     ecut=    50.00 Ry     beta= 0.30
     Davidson diagonalization with overlap
     ethr =  5.92E-05,  avg # of iterations =  8.1

     total cpu time spent up to now is       71.3 secs

     total energy              =    -361.18710182 Ry
     estimated scf accuracy    <       0.12128117 Ry

     iteration #  9     ecut=    50.00 Ry     beta= 0.30
     Davidson diagonalization with overlap
     ethr =  5.92E-05,  avg # of iterations =  7.8

     total cpu time spent up to now is       84.0 secs

     total energy              =    -361.23135674 Ry
     estimated scf accuracy    <       0.01478871 Ry

     iteration # 10     ecut=    50.00 Ry     beta= 0.30
     Davidson diagonalization with overlap
     ethr =  4.11E-05,  avg # of iterations =  1.3

     total cpu time spent up to now is       88.4 secs

     total energy              =    -361.22220287 Ry
     estimated scf accuracy    <       0.01944491 Ry

     iteration # 11     ecut=    50.00 Ry     beta= 0.30
     Davidson diagonalization with overlap
     ethr =  4.11E-05,  avg # of iterations =  2.0

     total cpu time spent up to now is       93.7 secs

     total energy              =    -361.22297349 Ry
     estimated scf accuracy    <       0.00376164 Ry

     iteration # 12     ecut=    50.00 Ry     beta= 0.30
     Davidson diagonalization with overlap
     ethr =  1.04E-05,  avg # of iterations =  5.3

     total cpu time spent up to now is      102.4 secs

     total energy              =    -361.22543713 Ry
     estimated scf accuracy    <       0.00028858 Ry

     iteration # 13     ecut=    50.00 Ry     beta= 0.30
     Davidson diagonalization with overlap
     ethr =  8.02E-07,  avg # of iterations =  5.0

     total cpu time spent up to now is      110.0 secs

     total energy              =    -361.22565343 Ry
     estimated scf accuracy    <       0.00063157 Ry

     iteration # 14     ecut=    50.00 Ry     beta= 0.30
     Davidson diagonalization with overlap
     ethr =  8.02E-07,  avg # of iterations =  2.1

     total cpu time spent up to now is      115.1 secs

     total energy              =    -361.22683206 Ry
     estimated scf accuracy    <       0.00093710 Ry

     iteration # 15     ecut=    50.00 Ry     beta= 0.30
     Davidson diagonalization with overlap
     ethr =  8.02E-07,  avg # of iterations =  8.3

     total cpu time spent up to now is      129.4 secs

     total energy              =    -361.22916667 Ry
     estimated scf accuracy    <       0.00833805 Ry

     iteration # 16     ecut=    50.00 Ry     beta= 0.30
     Davidson diagonalization with overlap
     ethr =  8.02E-07,  avg # of iterations =  6.1

     total cpu time spent up to now is      139.0 secs

     total energy              =    -361.22887828 Ry
     estimated scf accuracy    <       0.01464301 Ry

     iteration # 17     ecut=    50.00 Ry     beta= 0.30
     Davidson diagonalization with overlap
     ethr =  8.02E-07,  avg # of iterations =  1.0

     total cpu time spent up to now is      143.4 secs

     total energy              =    -361.22919489 Ry
     estimated scf accuracy    <       0.01377298 Ry

     iteration # 18     ecut=    50.00 Ry     beta= 0.30
     Davidson diagonalization with overlap
     ethr =  8.02E-07,  avg # of iterations =  1.1

     total cpu time spent up to now is      147.8 secs

     total energy              =    -361.22758724 Ry
     estimated scf accuracy    <       0.01434870 Ry

     iteration # 19     ecut=    50.00 Ry     beta= 0.30
     Davidson diagonalization with overlap
     ethr =  8.02E-07,  avg # of iterations =  4.4

     total cpu time spent up to now is      155.2 secs

     total energy              =    -361.22450520 Ry
     estimated scf accuracy    <       0.00936687 Ry

     iteration # 20     ecut=    50.00 Ry     beta= 0.30
     Davidson diagonalization with overlap
     ethr =  8.02E-07,  avg # of iterations =  8.8

     total cpu time spent up to now is      170.0 secs

     total energy              =    -361.22530712 Ry
     estimated scf accuracy    <       0.00061733 Ry

     iteration # 21     ecut=    50.00 Ry     beta= 0.30
     Davidson diagonalization with overlap
     ethr =  8.02E-07,  avg # of iterations =  3.0

     total cpu time spent up to now is      175.6 secs

     total energy              =    -361.22527252 Ry
     estimated scf accuracy    <       0.00018471 Ry

     iteration # 22     ecut=    50.00 Ry     beta= 0.30
     Davidson diagonalization with overlap
     ethr =  5.13E-07,  avg # of iterations =  5.5

     total cpu time spent up to now is      184.6 secs

     total energy              =    -361.22538524 Ry
     estimated scf accuracy    <       0.00003479 Ry

     iteration # 23     ecut=    50.00 Ry     beta= 0.30
     Davidson diagonalization with overlap
     ethr =  9.66E-08,  avg # of iterations =  3.5

     total cpu time spent up to now is      190.3 secs

     total energy              =    -361.22537768 Ry
     estimated scf accuracy    <       0.00004108 Ry

     iteration # 24     ecut=    50.00 Ry     beta= 0.30
     Davidson diagonalization with overlap
     ethr =  9.66E-08,  avg # of iterations =  2.0

     total cpu time spent up to now is      195.2 secs

     total energy              =    -361.22537589 Ry
     estimated scf accuracy    <       0.00001865 Ry

     iteration # 25     ecut=    50.00 Ry     beta= 0.30
     Davidson diagonalization with overlap
     ethr =  5.18E-08,  avg # of iterations =  2.2

     total cpu time spent up to now is      200.6 secs

     total energy              =    -361.22537548 Ry
     estimated scf accuracy    <       0.00000718 Ry

     iteration # 26     ecut=    50.00 Ry     beta= 0.30
     Davidson diagonalization with overlap
     ethr =  1.99E-08,  avg # of iterations =  5.0

     total cpu time spent up to now is      208.9 secs

     total energy              =    -361.22537884 Ry
     estimated scf accuracy    <       0.00000054 Ry

     iteration # 27     ecut=    50.00 Ry     beta= 0.30
     Davidson diagonalization with overlap
     ethr =  1.50E-09,  avg # of iterations =  5.0

     total cpu time spent up to now is      216.9 secs

     total energy              =    -361.22537916 Ry
     estimated scf accuracy    <       0.00000124 Ry

     iteration # 28     ecut=    50.00 Ry     beta= 0.30
     Davidson diagonalization with overlap
     ethr =  1.50E-09,  avg # of iterations =  1.0

     total cpu time spent up to now is      221.3 secs

     total energy              =    -361.22537852 Ry
     estimated scf accuracy    <       0.00000131 Ry

     iteration # 29     ecut=    50.00 Ry     beta= 0.30
     Davidson diagonalization with overlap
     ethr =  1.50E-09,  avg # of iterations =  4.8

     total cpu time spent up to now is      229.5 secs

     total energy              =    -361.22537887 Ry
     estimated scf accuracy    <       0.00000007 Ry

     iteration # 30     ecut=    50.00 Ry     beta= 0.30
     Davidson diagonalization with overlap
     ethr =  1.86E-10,  avg # of iterations =  7.1

     total cpu time spent up to now is      241.2 secs

     total energy              =    -361.22537892 Ry
     estimated scf accuracy    <       0.00000060 Ry

     iteration # 31     ecut=    50.00 Ry     beta= 0.30
     Davidson diagonalization with overlap
     ethr =  1.86E-10,  avg # of iterations =  1.0

     total cpu time spent up to now is      245.6 secs

     total energy              =    -361.22537877 Ry
     estimated scf accuracy    <       0.00000053 Ry

     iteration # 32     ecut=    50.00 Ry     beta= 0.30
     Davidson diagonalization with overlap
     ethr =  1.86E-10,  avg # of iterations =  5.2

     total cpu time spent up to now is      254.6 secs

     total energy              =    -361.22537880 Ry
     estimated scf accuracy    <       0.00000010 Ry

     iteration # 33     ecut=    50.00 Ry     beta= 0.30
     Davidson diagonalization with overlap
     ethr =  1.86E-10,  avg # of iterations =  1.5

     total cpu time spent up to now is      259.3 secs

     total energy              =    -361.22537879 Ry
     estimated scf accuracy    <       0.00000006 Ry

     iteration # 34     ecut=    50.00 Ry     beta= 0.30
     Davidson diagonalization with overlap
     ethr =  1.67E-10,  avg # of iterations =  1.4

     total cpu time spent up to now is      263.9 secs

     total energy              =    -361.22537879 Ry
     estimated scf accuracy    <       0.00000004 Ry

     iteration # 35     ecut=    50.00 Ry     beta= 0.30
     Davidson diagonalization with overlap
     ethr =  1.05E-10,  avg # of iterations =  2.4

     total cpu time spent up to now is      269.2 secs

     total energy              =    -361.22537879 Ry
     estimated scf accuracy    <       0.00000003 Ry

     iteration # 36     ecut=    50.00 Ry     beta= 0.30
     Davidson diagonalization with overlap
     ethr =  9.24E-11,  avg # of iterations =  4.0

     total cpu time spent up to now is      275.4 secs

     total energy              =    -361.22537879 Ry
     estimated scf accuracy    <       0.00000001 Ry

     iteration # 37     ecut=    50.00 Ry     beta= 0.30
     Davidson diagonalization with overlap
     ethr =  3.74E-11,  avg # of iterations =  6.0

     total cpu time spent up to now is      284.8 secs

     total energy              =    -361.22537879 Ry
     estimated scf accuracy    <       0.00000001 Ry

     iteration # 38     ecut=    50.00 Ry     beta= 0.30
     Davidson diagonalization with overlap
     ethr =  3.12E-11,  avg # of iterations =  3.9

     total cpu time spent up to now is      290.7 secs

     End of self-consistent calculation

     Number of k-points >= 100: set verbosity='high' to print the bands.

     highest occupied level (ev):     8.4598

!    total energy              =    -361.22537879 Ry
     estimated scf accuracy    <          2.8E-10 Ry

     The total energy is the sum of the following terms:
     one-electron contribution =    -161.16430016 Ry
     hartree contribution      =     122.36383707 Ry
     xc contribution           =    -109.93965005 Ry
     ewald contribution        =    -212.48526566 Ry

     convergence has been achieved in  38 iterations

     Forces acting on atoms (cartesian axes, Ry/au):

     atom    1 type  1   force =    -0.34001398   -0.06549708   -0.83872591
     atom    2 type  1   force =    -0.05566369   -0.08424186   -0.09692405
     atom    3 type  2   force =     0.33349029    0.19904404    0.72445942
     atom    4 type  2   force =     0.06218738   -0.04930510    0.21119054
     The non-local contrib.  to forces
     atom    1 type  1   force =    -0.61381687   -0.00548353   -0.45755046
     atom    2 type  1   force =    -0.15001398   -0.16836054   -0.76311391
     atom    3 type  2   force =    -0.29594684   -0.21344090   -0.38670211
     atom    4 type  2   force =    -0.34592124    0.13880867   -0.19271519
     The ionic contribution  to forces
     atom    1 type  1   force =    -6.11533187    1.52034174  -14.60256119
     atom    2 type  1   force =    -1.28208347   -3.23910737    3.67449241
     atom    3 type  2   force =     4.62183072    3.85352076    8.18278121
     atom    4 type  2   force =     2.77558461   -2.13475514    2.74528757
     The local contribution  to forces
     atom    1 type  1   force =     6.31474933   -1.58045511   14.11749891
     atom    2 type  1   force =     1.36527430    3.30225385   -3.05431654
     atom    3 type  2   force =    -3.99337383   -3.44176624   -7.07155771
     atom    4 type  2   force =    -2.37014757    1.94736251   -2.34188004
     The core correction contribution to forces
     atom    1 type  1   force =     0.07436690    0.00009081    0.10385404
     atom    2 type  1   force =     0.01116356    0.02097937    0.04600647
     atom    3 type  2   force =     0.00098584    0.00072583   -0.00006599
     atom    4 type  2   force =     0.00266912   -0.00072172    0.00050774
     The Hubbard contrib.    to forces
     atom    1 type  1   force =     0.00000000    0.00000000    0.00000000
     atom    2 type  1   force =     0.00000000    0.00000000    0.00000000
     atom    3 type  2   force =     0.00000000    0.00000000    0.00000000
     atom    4 type  2   force =     0.00000000    0.00000000    0.00000000
     The SCF correction term to forces
     atom    1 type  1   force =     0.00001997    0.00000814    0.00003877
     atom    2 type  1   force =    -0.00000266   -0.00000803    0.00001350
     atom    3 type  2   force =    -0.00000415    0.00000373    0.00001002
     atom    4 type  2   force =     0.00000389   -0.00000028   -0.00000355

     Total force =     1.252807     Total SCF correction =     0.000049

     Writing all to output data dir ./ZnO_ANN.save/

     init_run     :      3.28s CPU      3.37s WALL (       1 calls)
     electrons    :    282.22s CPU    286.92s WALL (       1 calls)
     forces       :      0.95s CPU      0.96s WALL (       1 calls)

     Called by init_run:
     wfcinit      :      2.48s CPU      2.54s WALL (       1 calls)
     potinit      :      0.21s CPU      0.22s WALL (       1 calls)
     hinit0       :      0.51s CPU      0.52s WALL (       1 calls)

     Called by electrons:
     c_bands      :    252.87s CPU    256.93s WALL (      38 calls)
     sum_band     :     26.70s CPU     27.27s WALL (      38 calls)
     v_of_rho     :      0.55s CPU      0.58s WALL (      39 calls)
     newd         :      2.01s CPU      2.04s WALL (      39 calls)
     mix_rho      :      0.10s CPU      0.11s WALL (      38 calls)

     Called by c_bands:
     init_us_2    :      1.57s CPU      1.59s WALL (    8736 calls)
     init_us_2:cp :      1.54s CPU      1.57s WALL (    8736 calls)
     cegterg      :    247.12s CPU    251.09s WALL (    4256 calls)

     Called by *egterg:
     cdiaghg      :     21.45s CPU     21.56s WALL (   21120 calls)
     h_psi        :    148.28s CPU    151.19s WALL (   21232 calls)
     s_psi        :     13.02s CPU     13.14s WALL (   21232 calls)
     g_psi        :      0.47s CPU      0.47s WALL (   16864 calls)

     Called by h_psi:
     h_psi:calbec :     19.22s CPU     19.78s WALL (   21232 calls)
     vloc_psi     :    115.49s CPU    117.73s WALL (   21232 calls)
     add_vuspsi   :     13.22s CPU     13.34s WALL (   21232 calls)

     General routines
     calbec       :     25.39s CPU     26.12s WALL (   25936 calls)
     fft          :      0.84s CPU      0.88s WALL (     516 calls)
     ffts         :      0.09s CPU      0.09s WALL (      77 calls)
     fftw         :    121.71s CPU    124.11s WALL (  593152 calls)
     interpolate  :      0.10s CPU      0.10s WALL (      39 calls)

     Parallel routines

     PWSCF        :   4m47.17s CPU   4m52.10s WALL


   This run was terminated on:  14:23:56  23Jun2025            

=------------------------------------------------------------------------------=
   JOB DONE.
=------------------------------------------------------------------------------=
Note: The following floating-point exceptions are signalling: IEEE_INVALID_FLAG
