
     Program PWSCF v.7.2 starts on 23Jun2025 at 11:52: 5 

     This program is part of the open-source Quantum ESPRESSO suite
     for quantum simulation of materials; please cite
         "P. Giannozzi et al., J. Phys.:Condens. Matter 21 395502 (2009);
         "P. Giannozzi et al., J. Phys.:Condens. Matter 29 465901 (2017);
         "P. Giannozzi et al., J. Chem. Phys. 152 154105 (2020);
          URL http://www.quantum-espresso.org", 
     in publications or presentations arising from this work. More details at
     http://www.quantum-espresso.org/quote

     Parallel version (MPI), running on     8 processors

     MPI processes distributed on     1 nodes
     91481 MiB available memory on the printing compute node when the environment starts

     Reading input from /home/jvc/QEspresso7.2/ZnO_DataBase/scfs_rnd025.in/scf-5.56-1.55-3.in

     Current dimensions of program PWSCF are:
     Max number of different atomic species (ntypx) = 10
     Max number of k-points (npk) =  40000
     Max angular momentum in pseudopotentials (lmaxx) =  4
     file Zn.upf: wavefunction(s)  3D renormalized

     R & G space division:  proc/nbgrp/npool/nimage =       8
     Subspace diagonalization in iterative solution of the eigenvalue problem:
     a serial algorithm will be used


     Parallelization info
     --------------------
     sticks:   dense  smooth     PW     G-vecs:    dense   smooth      PW
     Min         105      53     15                 3897     1383     237
     Max         106      55     16                 3906     1384     244
     Sum         847     433    127                31237    11067    1911

     Using Slab Decomposition



     bravais-lattice index     =            4
     lattice parameter (alat)  =       5.5609  a.u.
     unit-cell volume          =     230.8056 (a.u.)^3
     number of atoms/cell      =            4
     number of atomic types    =            2
     number of electrons       =        36.00
     number of Kohn-Sham states=           18
     kinetic-energy cutoff     =      50.0000  Ry
     charge density cutoff     =     400.0000  Ry
     scf convergence threshold =      1.0E-08
     mixing beta               =       0.3000
     number of iterations used =            8  plain     mixing
     Exchange-correlation= PBE
                           (   1   4   3   4   0   0   0)

     celldm(1)=   5.560939  celldm(2)=   0.000000  celldm(3)=   1.549784
     celldm(4)=   0.000000  celldm(5)=   0.000000  celldm(6)=   0.000000

     crystal axes: (cart. coord. in units of alat)
               a(1) = (   1.000000   0.000000   0.000000 )  
               a(2) = (  -0.500000   0.866025   0.000000 )  
               a(3) = (   0.000000   0.000000   1.549784 )  

     reciprocal axes: (cart. coord. in units 2 pi/alat)
               b(1) = (  1.000000  0.577350 -0.000000 )  
               b(2) = (  0.000000  1.154701  0.000000 )  
               b(3) = (  0.000000 -0.000000  0.645251 )  


     PseudoPot. # 1 for Zn read from file:
     ./pseudos/Zn.upf
     MD5 check sum: 7f56cabf9682ed8c977c2f7d0c5985c5
     Pseudo is Ultrasoft + core correction, Zval = 12.0
     Generated using &quot;atomic&quot; code by A. Dal Corso  v.6.2.2
     Using radial grid of 1201 points,  6 beta functions with: 
                l(1) =   0
                l(2) =   0
                l(3) =   1
                l(4) =   1
                l(5) =   2
                l(6) =   2
     Q(r) pseudized with 0 coefficients 


     PseudoPot. # 2 for O  read from file:
     ./pseudos/O.upf
     MD5 check sum: 91400c9766925bcf19f520983a725ff0
     Pseudo is Ultrasoft + core correction, Zval =  6.0
     Generated using &quot;atomic&quot; code by A. Dal Corso  v.6.3MaX
     Using radial grid of 1095 points,  4 beta functions with: 
                l(1) =   0
                l(2) =   0
                l(3) =   1
                l(4) =   1
     Q(r) pseudized with 0 coefficients 


     atomic species   valence    mass     pseudopotential
        Zn            12.00    63.38000     Zn( 1.00)
        O              6.00    15.99900     O ( 1.00)

     No symmetry found



   Cartesian axes

     site n.     atom                  positions (alat units)
         1           Zn  tau(   1) = (   0.4186946   0.3916672   0.6891354  )
         2           Zn  tau(   2) = (   0.1027941   0.4804763   0.3561063  )
         3           O   tau(   3) = (   0.4104272   0.1977942   1.2942964  )
         4           O   tau(   4) = (   0.0565758   0.4814306   0.4180495  )

     number of k points=   112

     Number of k-points >= 100: set verbosity='high' to print them.

     Dense  grid:    31237 G-vectors     FFT dimensions: (  36,  36,  60)

     Smooth grid:    11067 G-vectors     FFT dimensions: (  25,  25,  40)

     Estimated max dynamical RAM per process >      22.48 MB

     Estimated total dynamical RAM >     179.87 MB

     Check: negative core charge=   -0.000002

     Initial potential from superposition of free atoms

     starting charge      35.9925, renormalised to      36.0000
     Starting wfcs are   26 randomized atomic wfcs

     total cpu time spent up to now is        3.0 secs

     Self-consistent Calculation

     iteration #  1     ecut=    50.00 Ry     beta= 0.30
     Davidson diagonalization with overlap
     ethr =  1.00E-02,  avg # of iterations =  4.0

     total cpu time spent up to now is        8.7 secs

     total energy              =    -178.56224296 Ry
     estimated scf accuracy    <      11.29393635 Ry

     iteration #  2     ecut=    50.00 Ry     beta= 0.30
     Davidson diagonalization with overlap
     ethr =  1.00E-02,  avg # of iterations =  3.1

     total cpu time spent up to now is       13.9 secs

     total energy              =    -179.32592565 Ry
     estimated scf accuracy    <       1.26133653 Ry

     iteration #  3     ecut=    50.00 Ry     beta= 0.30
     Davidson diagonalization with overlap
     ethr =  3.50E-03,  avg # of iterations =  3.6

     total cpu time spent up to now is       18.9 secs

     total energy              =    -179.47189679 Ry
     estimated scf accuracy    <       0.36536209 Ry

     iteration #  4     ecut=    50.00 Ry     beta= 0.30
     Davidson diagonalization with overlap
     ethr =  1.01E-03,  avg # of iterations =  2.4

     total cpu time spent up to now is       22.9 secs

     total energy              =    -179.46187181 Ry
     estimated scf accuracy    <       0.08792333 Ry

     iteration #  5     ecut=    50.00 Ry     beta= 0.30
     Davidson diagonalization with overlap
     ethr =  2.44E-04,  avg # of iterations =  5.7

     total cpu time spent up to now is       29.0 secs

     total energy              =    -179.46681381 Ry
     estimated scf accuracy    <       0.10163249 Ry

     iteration #  6     ecut=    50.00 Ry     beta= 0.30
     Davidson diagonalization with overlap
     ethr =  2.44E-04,  avg # of iterations =  6.3

     total cpu time spent up to now is       34.3 secs

     total energy              =    -179.49141654 Ry
     estimated scf accuracy    <       0.02440778 Ry

     iteration #  7     ecut=    50.00 Ry     beta= 0.30
     Davidson diagonalization with overlap
     ethr =  6.78E-05,  avg # of iterations =  1.8

     total cpu time spent up to now is       37.8 secs

     total energy              =    -179.48122499 Ry
     estimated scf accuracy    <       0.01578381 Ry

     iteration #  8     ecut=    50.00 Ry     beta= 0.30
     Davidson diagonalization with overlap
     ethr =  4.38E-05,  avg # of iterations =  8.0

     total cpu time spent up to now is       44.2 secs

     total energy              =    -179.49330583 Ry
     estimated scf accuracy    <       0.04562281 Ry

     iteration #  9     ecut=    50.00 Ry     beta= 0.30
     Davidson diagonalization with overlap
     ethr =  4.38E-05,  avg # of iterations =  1.7

     total cpu time spent up to now is       47.6 secs

     total energy              =    -179.48255344 Ry
     estimated scf accuracy    <       0.03040931 Ry

     iteration # 10     ecut=    50.00 Ry     beta= 0.30
     Davidson diagonalization with overlap
     ethr =  4.38E-05,  avg # of iterations =  6.3

     total cpu time spent up to now is       53.0 secs

     total energy              =    -179.49422785 Ry
     estimated scf accuracy    <       0.00379838 Ry

     iteration # 11     ecut=    50.00 Ry     beta= 0.30
     Davidson diagonalization with overlap
     ethr =  1.06E-05,  avg # of iterations =  6.5

     total cpu time spent up to now is       58.4 secs

     total energy              =    -179.49343607 Ry
     estimated scf accuracy    <       0.02568262 Ry

     iteration # 12     ecut=    50.00 Ry     beta= 0.30
     Davidson diagonalization with overlap
     ethr =  1.06E-05,  avg # of iterations =  1.1

     total cpu time spent up to now is       61.6 secs

     total energy              =    -179.48971877 Ry
     estimated scf accuracy    <       0.02111212 Ry

     iteration # 13     ecut=    50.00 Ry     beta= 0.30
     Davidson diagonalization with overlap
     ethr =  1.06E-05,  avg # of iterations =  6.1

     total cpu time spent up to now is       66.2 secs

     total energy              =    -179.49094321 Ry
     estimated scf accuracy    <       0.00236919 Ry

     iteration # 14     ecut=    50.00 Ry     beta= 0.30
     Davidson diagonalization with overlap
     ethr =  6.58E-06,  avg # of iterations =  3.1

     total cpu time spent up to now is       69.7 secs

     total energy              =    -179.49091211 Ry
     estimated scf accuracy    <       0.00081194 Ry

     iteration # 15     ecut=    50.00 Ry     beta= 0.30
     Davidson diagonalization with overlap
     ethr =  2.26E-06,  avg # of iterations =  6.7

     total cpu time spent up to now is       74.6 secs

     total energy              =    -179.49128841 Ry
     estimated scf accuracy    <       0.00013273 Ry

     iteration # 16     ecut=    50.00 Ry     beta= 0.30
     Davidson diagonalization with overlap
     ethr =  3.69E-07,  avg # of iterations =  3.3

     total cpu time spent up to now is       78.1 secs

     total energy              =    -179.49124555 Ry
     estimated scf accuracy    <       0.00016539 Ry

     iteration # 17     ecut=    50.00 Ry     beta= 0.30
     Davidson diagonalization with overlap
     ethr =  3.69E-07,  avg # of iterations =  5.0

     total cpu time spent up to now is       82.1 secs

     total energy              =    -179.49125136 Ry
     estimated scf accuracy    <       0.00001640 Ry

     iteration # 18     ecut=    50.00 Ry     beta= 0.30
     Davidson diagonalization with overlap
     ethr =  4.55E-08,  avg # of iterations = 11.0

     total cpu time spent up to now is       89.9 secs

     total energy              =    -179.49120943 Ry
     estimated scf accuracy    <       0.00034842 Ry

     iteration # 19     ecut=    50.00 Ry     beta= 0.30
     Davidson diagonalization with overlap
     ethr =  4.55E-08,  avg # of iterations = 10.0

     total cpu time spent up to now is       97.1 secs

     total energy              =    -179.49126956 Ry
     estimated scf accuracy    <       0.00000167 Ry

     iteration # 20     ecut=    50.00 Ry     beta= 0.30
     Davidson diagonalization with overlap
     ethr =  4.64E-09,  avg # of iterations =  5.8

     total cpu time spent up to now is      102.2 secs

     total energy              =    -179.49126625 Ry
     estimated scf accuracy    <       0.00000605 Ry

     iteration # 21     ecut=    50.00 Ry     beta= 0.30
     Davidson diagonalization with overlap
     ethr =  4.64E-09,  avg # of iterations =  9.5

     total cpu time spent up to now is      109.1 secs

     total energy              =    -179.49126855 Ry
     estimated scf accuracy    <       0.00000995 Ry

     iteration # 22     ecut=    50.00 Ry     beta= 0.30
     Davidson diagonalization with overlap
     ethr =  4.64E-09,  avg # of iterations =  6.3

     total cpu time spent up to now is      114.0 secs

     total energy              =    -179.49126897 Ry
     estimated scf accuracy    <       0.00000123 Ry

     iteration # 23     ecut=    50.00 Ry     beta= 0.30
     Davidson diagonalization with overlap
     ethr =  3.43E-09,  avg # of iterations =  1.3

     total cpu time spent up to now is      117.1 secs

     total energy              =    -179.49126858 Ry
     estimated scf accuracy    <       0.00000077 Ry

     iteration # 24     ecut=    50.00 Ry     beta= 0.30
     Davidson diagonalization with overlap
     ethr =  2.14E-09,  avg # of iterations =  6.2

     total cpu time spent up to now is      122.3 secs

     total energy              =    -179.49126879 Ry
     estimated scf accuracy    <       0.00000107 Ry

     iteration # 25     ecut=    50.00 Ry     beta= 0.30
     Davidson diagonalization with overlap
     ethr =  2.14E-09,  avg # of iterations =  6.1

     total cpu time spent up to now is      126.8 secs

     End of self-consistent calculation

     Number of k-points >= 100: set verbosity='high' to print the bands.

     highest occupied level (ev):    15.5868

!    total energy              =    -179.49126898 Ry
     estimated scf accuracy    <          5.4E-09 Ry

     The total energy is the sum of the following terms:
     one-electron contribution =    -326.94946017 Ry
     hartree contribution      =     195.79912377 Ry
     xc contribution           =    -119.04224156 Ry
     ewald contribution        =      70.70130898 Ry

     convergence has been achieved in  25 iterations

     Forces acting on atoms (cartesian axes, Ry/au):

     atom    1 type  1   force =     3.32042394   -0.91423900    3.48272261
     atom    2 type  1   force =   424.41702084   -8.26003275 -573.59653016
     atom    3 type  2   force =     0.02859463   -0.00904007   -0.15350958
     atom    4 type  2   force =  -427.76603941    9.18331182  570.26731712
     The non-local contrib.  to forces
     atom    1 type  1   force =    -1.41268564    0.67050871   -2.40590533
     atom    2 type  1   force =   -25.92320855    0.28984464   37.53364906
     atom    3 type  2   force =     0.07689952    0.24565860   -0.92152605
     atom    4 type  2   force =     0.99695209   -0.01025977   -1.25873622
     The ionic contribution  to forces
     atom    1 type  1   force =    25.65710018   -5.97527463   43.98435999
     atom    2 type  1   force =   447.77406691   -4.18795299 -654.81719437
     atom    3 type  2   force =     0.83465975   -2.15533345    0.16386726
     atom    4 type  2   force =  -474.26582684   12.31856107  610.66896712
     The local contribution  to forces
     atom    1 type  1   force =   -20.74138571    4.35724190  -37.94761444
     atom    2 type  1   force =     3.51009730   -4.35467031   42.16182004
     atom    3 type  2   force =    -0.88171243    1.90246520    0.59452694
     atom    4 type  2   force =    45.16514557   -3.11780804  -38.69603760
     The core correction contribution to forces
     atom    1 type  1   force =    -0.18258565    0.03328912   -0.14811965
     atom    2 type  1   force =    -0.94393918   -0.00725611    1.52527726
     atom    3 type  2   force =    -0.00122377   -0.00183249    0.00946423
     atom    4 type  2   force =     0.33770756   -0.00718697   -0.44687003
     The Hubbard contrib.    to forces
     atom    1 type  1   force =     0.00000000    0.00000000    0.00000000
     atom    2 type  1   force =     0.00000000    0.00000000    0.00000000
     atom    3 type  2   force =     0.00000000    0.00000000    0.00000000
     atom    4 type  2   force =     0.00000000    0.00000000    0.00000000
     The SCF correction term to forces
     atom    1 type  1   force =     0.00000023   -0.00001075   -0.00005848
     atom    2 type  1   force =     0.00002383   -0.00000463   -0.00014268
     atom    3 type  2   force =    -0.00000897   -0.00000457    0.00009751
     atom    4 type  2   force =     0.00000170   -0.00000110   -0.00006669

     Total force =  1008.715996     Total SCF correction =     0.000196

     Writing all to output data dir ./ZnO_ANN.save/

     init_run     :      2.44s CPU      2.52s WALL (       1 calls)
     electrons    :    120.89s CPU    123.79s WALL (       1 calls)
     forces       :      0.76s CPU      0.77s WALL (       1 calls)

     Called by init_run:
     wfcinit      :      1.71s CPU      1.76s WALL (       1 calls)
     potinit      :      0.18s CPU      0.18s WALL (       1 calls)
     hinit0       :      0.50s CPU      0.51s WALL (       1 calls)

     Called by electrons:
     c_bands      :    108.16s CPU    110.63s WALL (      25 calls)
     sum_band     :     11.42s CPU     11.81s WALL (      25 calls)
     v_of_rho     :      0.28s CPU      0.31s WALL (      26 calls)
     newd         :      0.99s CPU      1.01s WALL (      26 calls)
     mix_rho      :      0.05s CPU      0.05s WALL (      25 calls)

     Called by c_bands:
     init_us_2    :      0.87s CPU      0.88s WALL (    5824 calls)
     init_us_2:cp :      0.85s CPU      0.87s WALL (    5824 calls)
     cegterg      :    105.31s CPU    107.73s WALL (    2800 calls)

     Called by *egterg:
     cdiaghg      :     18.05s CPU     18.23s WALL (   17476 calls)
     h_psi        :     54.61s CPU     56.36s WALL (   17588 calls)
     s_psi        :      7.03s CPU      7.12s WALL (   17588 calls)
     g_psi        :      0.21s CPU      0.22s WALL (   14676 calls)

     Called by h_psi:
     h_psi:calbec :      8.53s CPU      8.91s WALL (   17588 calls)
     vloc_psi     :     38.94s CPU     40.21s WALL (   17588 calls)
     add_vuspsi   :      6.91s CPU      7.00s WALL (   17588 calls)

     General routines
     calbec       :     11.66s CPU     12.19s WALL (   20836 calls)
     fft          :      0.50s CPU      0.53s WALL (     347 calls)
     ffts         :      0.08s CPU      0.09s WALL (      51 calls)
     fftw         :     39.84s CPU     41.14s WALL (  353158 calls)
     interpolate  :      0.09s CPU      0.10s WALL (      26 calls)

     Parallel routines

     PWSCF        :   2m 4.79s CPU   2m 7.93s WALL


   This run was terminated on:  11:54:13  23Jun2025            

=------------------------------------------------------------------------------=
   JOB DONE.
=------------------------------------------------------------------------------=
Note: The following floating-point exceptions are signalling: IEEE_INVALID_FLAG
