
     Program PWSCF v.7.2 starts on 23Jun2025 at 12:42:53 

     This program is part of the open-source Quantum ESPRESSO suite
     for quantum simulation of materials; please cite
         "P. Giannozzi et al., J. Phys.:Condens. Matter 21 395502 (2009);
         "P. Giannozzi et al., J. Phys.:Condens. Matter 29 465901 (2017);
         "P. Giannozzi et al., J. Chem. Phys. 152 154105 (2020);
          URL http://www.quantum-espresso.org", 
     in publications or presentations arising from this work. More details at
     http://www.quantum-espresso.org/quote

     Parallel version (MPI), running on     8 processors

     MPI processes distributed on     1 nodes
     91244 MiB available memory on the printing compute node when the environment starts

     Reading input from /home/jvc/QEspresso7.2/ZnO_DataBase/scfs_rnd025.in/scf-5.81-1.55-5.in

     Current dimensions of program PWSCF are:
     Max number of different atomic species (ntypx) = 10
     Max number of k-points (npk) =  40000
     Max angular momentum in pseudopotentials (lmaxx) =  4
     file Zn.upf: wavefunction(s)  3D renormalized

     R & G space division:  proc/nbgrp/npool/nimage =       8
     Subspace diagonalization in iterative solution of the eigenvalue problem:
     a serial algorithm will be used


     Parallelization info
     --------------------
     sticks:   dense  smooth     PW     G-vecs:    dense   smooth      PW
     Min         116      57     18                 4446     1554     273
     Max         118      58     19                 4448     1556     275
     Sum         931     463    151                35571    12443    2189

     Using Slab Decomposition



     bravais-lattice index     =            4
     lattice parameter (alat)  =       5.8081  a.u.
     unit-cell volume          =     262.9676 (a.u.)^3
     number of atoms/cell      =            4
     number of atomic types    =            2
     number of electrons       =        36.00
     number of Kohn-Sham states=           18
     kinetic-energy cutoff     =      50.0000  Ry
     charge density cutoff     =     400.0000  Ry
     scf convergence threshold =      1.0E-08
     mixing beta               =       0.3000
     number of iterations used =            8  plain     mixing
     Exchange-correlation= PBE
                           (   1   4   3   4   0   0   0)

     celldm(1)=   5.808092  celldm(2)=   0.000000  celldm(3)=   1.549784
     celldm(4)=   0.000000  celldm(5)=   0.000000  celldm(6)=   0.000000

     crystal axes: (cart. coord. in units of alat)
               a(1) = (   1.000000   0.000000   0.000000 )  
               a(2) = (  -0.500000   0.866025   0.000000 )  
               a(3) = (   0.000000   0.000000   1.549784 )  

     reciprocal axes: (cart. coord. in units 2 pi/alat)
               b(1) = (  1.000000  0.577350 -0.000000 )  
               b(2) = (  0.000000  1.154701  0.000000 )  
               b(3) = (  0.000000 -0.000000  0.645251 )  


     PseudoPot. # 1 for Zn read from file:
     ./pseudos/Zn.upf
     MD5 check sum: 7f56cabf9682ed8c977c2f7d0c5985c5
     Pseudo is Ultrasoft + core correction, Zval = 12.0
     Generated using &quot;atomic&quot; code by A. Dal Corso  v.6.2.2
     Using radial grid of 1201 points,  6 beta functions with: 
                l(1) =   0
                l(2) =   0
                l(3) =   1
                l(4) =   1
                l(5) =   2
                l(6) =   2
     Q(r) pseudized with 0 coefficients 


     PseudoPot. # 2 for O  read from file:
     ./pseudos/O.upf
     MD5 check sum: 91400c9766925bcf19f520983a725ff0
     Pseudo is Ultrasoft + core correction, Zval =  6.0
     Generated using &quot;atomic&quot; code by A. Dal Corso  v.6.3MaX
     Using radial grid of 1095 points,  4 beta functions with: 
                l(1) =   0
                l(2) =   0
                l(3) =   1
                l(4) =   1
     Q(r) pseudized with 0 coefficients 


     atomic species   valence    mass     pseudopotential
        Zn            12.00    63.38000     Zn( 1.00)
        O              6.00    15.99900     O ( 1.00)

     No symmetry found



   Cartesian axes

     site n.     atom                  positions (alat units)
         1           Zn  tau(   1) = (   0.5476877   0.4378871   1.0986991  )
         2           Zn  tau(   2) = (  -0.1613869   0.4511403   0.1142474  )
         3           O   tau(   3) = (   0.2168025   0.4171773   1.3232098  )
         4           O   tau(   4) = (   0.1917696   0.6018482   0.7034189  )

     number of k points=   112

     Number of k-points >= 100: set verbosity='high' to print them.

     Dense  grid:    35571 G-vectors     FFT dimensions: (  40,  40,  60)

     Smooth grid:    12443 G-vectors     FFT dimensions: (  27,  27,  45)

     Estimated max dynamical RAM per process >      25.23 MB

     Estimated total dynamical RAM >     201.80 MB

     Check: negative core charge=   -0.000002

     Initial potential from superposition of free atoms

     starting charge      35.9925, renormalised to      36.0000
     Starting wfcs are   26 randomized atomic wfcs

     total cpu time spent up to now is        3.7 secs

     Self-consistent Calculation

     iteration #  1     ecut=    50.00 Ry     beta= 0.30
     Davidson diagonalization with overlap
     ethr =  1.00E-02,  avg # of iterations =  2.7

     total cpu time spent up to now is        8.7 secs

     total energy              =    -359.96181426 Ry
     estimated scf accuracy    <       1.26488869 Ry

     iteration #  2     ecut=    50.00 Ry     beta= 0.30
     Davidson diagonalization with overlap
     ethr =  3.51E-03,  avg # of iterations =  2.1

     total cpu time spent up to now is       14.0 secs

     total energy              =    -359.99907548 Ry
     estimated scf accuracy    <       0.25537057 Ry

     iteration #  3     ecut=    50.00 Ry     beta= 0.30
     Davidson diagonalization with overlap
     ethr =  7.09E-04,  avg # of iterations =  8.0

     total cpu time spent up to now is       24.4 secs

     total energy              =    -360.17071370 Ry
     estimated scf accuracy    <       0.41572741 Ry

     iteration #  4     ecut=    50.00 Ry     beta= 0.30
     Davidson diagonalization with overlap
     ethr =  7.09E-04,  avg # of iterations =  3.2

     total cpu time spent up to now is       30.0 secs

     total energy              =    -360.13859639 Ry
     estimated scf accuracy    <       0.08659768 Ry

     iteration #  5     ecut=    50.00 Ry     beta= 0.30
     Davidson diagonalization with overlap
     c_bands:  1 eigenvalues not converged
     ethr =  2.41E-04,  avg # of iterations =  9.5

     total cpu time spent up to now is       44.5 secs

     total energy              =    -360.04142272 Ry
     estimated scf accuracy    <       0.67508194 Ry

     iteration #  6     ecut=    50.00 Ry     beta= 0.30
     Davidson diagonalization with overlap
     ethr =  2.41E-04,  avg # of iterations =  8.1

     total cpu time spent up to now is       56.0 secs

     total energy              =    -360.22882001 Ry
     estimated scf accuracy    <       0.06146477 Ry

     iteration #  7     ecut=    50.00 Ry     beta= 0.30
     Davidson diagonalization with overlap
     ethr =  1.71E-04,  avg # of iterations =  1.7

     total cpu time spent up to now is       60.5 secs

     total energy              =    -360.22097837 Ry
     estimated scf accuracy    <       0.02725370 Ry

     iteration #  8     ecut=    50.00 Ry     beta= 0.30
     Davidson diagonalization with overlap
     ethr =  7.57E-05,  avg # of iterations =  4.4

     total cpu time spent up to now is       67.1 secs

     total energy              =    -360.22970941 Ry
     estimated scf accuracy    <       0.00027310 Ry

     iteration #  9     ecut=    50.00 Ry     beta= 0.30
     Davidson diagonalization with overlap
     ethr =  7.59E-07,  avg # of iterations =  9.5

     total cpu time spent up to now is       78.8 secs

     total energy              =    -360.23042511 Ry
     estimated scf accuracy    <       0.00043509 Ry

     iteration # 10     ecut=    50.00 Ry     beta= 0.30
     Davidson diagonalization with overlap
     ethr =  7.59E-07,  avg # of iterations =  1.7

     total cpu time spent up to now is       83.3 secs

     total energy              =    -360.23030957 Ry
     estimated scf accuracy    <       0.00023803 Ry

     iteration # 11     ecut=    50.00 Ry     beta= 0.30
     Davidson diagonalization with overlap
     ethr =  6.61E-07,  avg # of iterations =  5.3

     total cpu time spent up to now is       91.4 secs

     total energy              =    -360.23040943 Ry
     estimated scf accuracy    <       0.00012680 Ry

     iteration # 12     ecut=    50.00 Ry     beta= 0.30
     Davidson diagonalization with overlap
     ethr =  3.52E-07,  avg # of iterations =  3.8

     total cpu time spent up to now is       97.4 secs

     total energy              =    -360.23039680 Ry
     estimated scf accuracy    <       0.00007407 Ry

     iteration # 13     ecut=    50.00 Ry     beta= 0.30
     Davidson diagonalization with overlap
     ethr =  2.06E-07,  avg # of iterations =  5.7

     total cpu time spent up to now is      104.2 secs

     total energy              =    -360.23041559 Ry
     estimated scf accuracy    <       0.00001861 Ry

     iteration # 14     ecut=    50.00 Ry     beta= 0.30
     Davidson diagonalization with overlap
     ethr =  5.17E-08,  avg # of iterations =  6.8

     total cpu time spent up to now is      113.4 secs

     total energy              =    -360.23043740 Ry
     estimated scf accuracy    <       0.00005430 Ry

     iteration # 15     ecut=    50.00 Ry     beta= 0.30
     Davidson diagonalization with overlap
     ethr =  5.17E-08,  avg # of iterations =  1.4

     total cpu time spent up to now is      117.7 secs

     total energy              =    -360.23042748 Ry
     estimated scf accuracy    <       0.00006723 Ry

     iteration # 16     ecut=    50.00 Ry     beta= 0.30
     Davidson diagonalization with overlap
     ethr =  5.17E-08,  avg # of iterations =  1.2

     total cpu time spent up to now is      121.8 secs

     total energy              =    -360.23041646 Ry
     estimated scf accuracy    <       0.00004954 Ry

     iteration # 17     ecut=    50.00 Ry     beta= 0.30
     Davidson diagonalization with overlap
     ethr =  5.17E-08,  avg # of iterations =  2.6

     total cpu time spent up to now is      126.8 secs

     total energy              =    -360.23040581 Ry
     estimated scf accuracy    <       0.00002069 Ry

     iteration # 18     ecut=    50.00 Ry     beta= 0.30
     Davidson diagonalization with overlap
     ethr =  5.17E-08,  avg # of iterations =  6.5

     total cpu time spent up to now is      135.7 secs

     total energy              =    -360.23041696 Ry
     estimated scf accuracy    <       0.00001525 Ry

     iteration # 19     ecut=    50.00 Ry     beta= 0.30
     Davidson diagonalization with overlap
     ethr =  4.24E-08,  avg # of iterations =  1.5

     total cpu time spent up to now is      140.0 secs

     total energy              =    -360.23041490 Ry
     estimated scf accuracy    <       0.00000592 Ry

     iteration # 20     ecut=    50.00 Ry     beta= 0.30
     Davidson diagonalization with overlap
     ethr =  1.65E-08,  avg # of iterations =  4.7

     total cpu time spent up to now is      147.1 secs

     total energy              =    -360.23041767 Ry
     estimated scf accuracy    <       0.00000077 Ry

     iteration # 21     ecut=    50.00 Ry     beta= 0.30
     Davidson diagonalization with overlap
     ethr =  2.13E-09,  avg # of iterations =  3.3

     total cpu time spent up to now is      152.2 secs

     total energy              =    -360.23041753 Ry
     estimated scf accuracy    <       0.00000043 Ry

     iteration # 22     ecut=    50.00 Ry     beta= 0.30
     Davidson diagonalization with overlap
     ethr =  1.20E-09,  avg # of iterations =  5.7

     total cpu time spent up to now is      160.0 secs

     total energy              =    -360.23041768 Ry
     estimated scf accuracy    <       0.00000013 Ry

     iteration # 23     ecut=    50.00 Ry     beta= 0.30
     Davidson diagonalization with overlap
     ethr =  3.67E-10,  avg # of iterations =  4.5

     total cpu time spent up to now is      166.8 secs

     total energy              =    -360.23041772 Ry
     estimated scf accuracy    <       0.00000002 Ry

     iteration # 24     ecut=    50.00 Ry     beta= 0.30
     Davidson diagonalization with overlap
     ethr =  4.28E-11,  avg # of iterations =  7.5

     total cpu time spent up to now is      175.2 secs

     total energy              =    -360.23041772 Ry
     estimated scf accuracy    <       0.00000002 Ry

     iteration # 25     ecut=    50.00 Ry     beta= 0.30
     Davidson diagonalization with overlap
     ethr =  4.28E-11,  avg # of iterations =  5.3

     total cpu time spent up to now is      181.4 secs

     End of self-consistent calculation

     Number of k-points >= 100: set verbosity='high' to print the bands.

     highest occupied level (ev):    11.9176

!    total energy              =    -360.23041772 Ry
     estimated scf accuracy    <          2.0E-09 Ry

     The total energy is the sum of the following terms:
     one-electron contribution =    -162.75421182 Ry
     hartree contribution      =     124.91511578 Ry
     xc contribution           =    -110.35306824 Ry
     ewald contribution        =    -212.03825345 Ry

     convergence has been achieved in  25 iterations

     Forces acting on atoms (cartesian axes, Ry/au):

     atom    1 type  1   force =     1.99160336    0.06805475   -1.54823334
     atom    2 type  1   force =    -0.15544895    0.03454416    0.61282481
     atom    3 type  2   force =    -1.67859550   -0.22900789    1.26454026
     atom    4 type  2   force =    -0.15755891    0.12640898   -0.32913173
     The non-local contrib.  to forces
     atom    1 type  1   force =     1.08846419   -0.04251981    0.20113160
     atom    2 type  1   force =    -0.82058738    0.02759735    0.09414538
     atom    3 type  2   force =     0.32570149   -0.06422689    0.46744755
     atom    4 type  2   force =     0.07528189    0.01108871   -0.24528206
     The ionic contribution  to forces
     atom    1 type  1   force =    14.49504742   -0.88211103  -22.35578814
     atom    2 type  1   force =    -2.72309594    0.28612448   24.90286762
     atom    3 type  2   force =    -9.31886631   -2.23001932    6.95104177
     atom    4 type  2   force =    -2.45308517    2.82600588   -9.49812125
     The local contribution  to forces
     atom    1 type  1   force =   -13.37401878    0.99202163   20.48812211
     atom    2 type  1   force =     3.32500199   -0.27469376  -24.31489883
     atom    3 type  2   force =     7.31159348    2.06376902   -6.14555977
     atom    4 type  2   force =     2.21972607   -2.70950590    9.40927063
     The core correction contribution to forces
     atom    1 type  1   force =    -0.21784316    0.00067134    0.11815683
     atom    2 type  1   force =     0.06321514   -0.00448149   -0.06917128
     atom    3 type  2   force =     0.00297855    0.00147153   -0.00842322
     atom    4 type  2   force =     0.00051003   -0.00117385    0.00496034
     The Hubbard contrib.    to forces
     atom    1 type  1   force =     0.00000000    0.00000000    0.00000000
     atom    2 type  1   force =     0.00000000    0.00000000    0.00000000
     atom    3 type  2   force =     0.00000000    0.00000000    0.00000000
     atom    4 type  2   force =     0.00000000    0.00000000    0.00000000
     The SCF correction term to forces
     atom    1 type  1   force =    -0.00005282   -0.00000780    0.00014087
     atom    2 type  1   force =     0.00001074   -0.00000284   -0.00012145
     atom    3 type  2   force =    -0.00000922   -0.00000265    0.00003054
     atom    4 type  2   force =     0.00000177   -0.00000627    0.00003724

     Total force =     3.374518     Total SCF correction =     0.000200

     Writing all to output data dir ./ZnO_ANN.save/

     init_run     :      3.13s CPU      3.21s WALL (       1 calls)
     electrons    :    174.42s CPU    177.73s WALL (       1 calls)
     forces       :      0.86s CPU      0.87s WALL (       1 calls)

     Called by init_run:
     wfcinit      :      2.35s CPU      2.39s WALL (       1 calls)
     potinit      :      0.19s CPU      0.19s WALL (       1 calls)
     hinit0       :      0.53s CPU      0.54s WALL (       1 calls)

     Called by electrons:
     c_bands      :    156.38s CPU    159.26s WALL (      25 calls)
     sum_band     :     16.51s CPU     16.89s WALL (      25 calls)
     v_of_rho     :      0.35s CPU      0.38s WALL (      26 calls)
     newd         :      1.14s CPU      1.16s WALL (      26 calls)
     mix_rho      :      0.06s CPU      0.06s WALL (      25 calls)

     Called by c_bands:
     init_us_2    :      0.99s CPU      1.01s WALL (    5824 calls)
     init_us_2:cp :      0.98s CPU      1.00s WALL (    5824 calls)
     cegterg      :    153.07s CPU    155.88s WALL (    2800 calls)

     Called by *egterg:
     cdiaghg      :     16.67s CPU     16.79s WALL (   15879 calls)
     h_psi        :     93.47s CPU     95.60s WALL (   15991 calls)
     s_psi        :      8.44s CPU      8.52s WALL (   15991 calls)
     g_psi        :      0.28s CPU      0.28s WALL (   13079 calls)

     Called by h_psi:
     h_psi:calbec :     10.99s CPU     11.39s WALL (   15991 calls)
     vloc_psi     :     73.77s CPU     75.40s WALL (   15991 calls)
     add_vuspsi   :      8.46s CPU      8.56s WALL (   15991 calls)

     General routines
     calbec       :     14.64s CPU     15.16s WALL (   19239 calls)
     fft          :      0.62s CPU      0.65s WALL (     347 calls)
     ffts         :      0.08s CPU      0.08s WALL (      51 calls)
     fftw         :     77.19s CPU     78.91s WALL (  388150 calls)
     interpolate  :      0.09s CPU      0.09s WALL (      26 calls)

     Parallel routines

     PWSCF        :   2m59.14s CPU   3m 2.67s WALL


   This run was terminated on:  12:45:56  23Jun2025            

=------------------------------------------------------------------------------=
   JOB DONE.
=------------------------------------------------------------------------------=
Note: The following floating-point exceptions are signalling: IEEE_INVALID_FLAG
