
     Program PWSCF v.7.2 starts on 23Jun2025 at 11:50:58 

     This program is part of the open-source Quantum ESPRESSO suite
     for quantum simulation of materials; please cite
         "P. Giannozzi et al., J. Phys.:Condens. Matter 21 395502 (2009);
         "P. Giannozzi et al., J. Phys.:Condens. Matter 29 465901 (2017);
         "P. Giannozzi et al., J. Chem. Phys. 152 154105 (2020);
          URL http://www.quantum-espresso.org", 
     in publications or presentations arising from this work. More details at
     http://www.quantum-espresso.org/quote

     Parallel version (MPI), running on     8 processors

     MPI processes distributed on     1 nodes
     91488 MiB available memory on the printing compute node when the environment starts

     Reading input from /home/jvc/QEspresso7.2/ZnO_DataBase/scfs_rnd025.in/scf-5.56-1.52-3.in

     Current dimensions of program PWSCF are:
     Max number of different atomic species (ntypx) = 10
     Max number of k-points (npk) =  40000
     Max angular momentum in pseudopotentials (lmaxx) =  4
     file Zn.upf: wavefunction(s)  3D renormalized

     R & G space division:  proc/nbgrp/npool/nimage =       8
     Subspace diagonalization in iterative solution of the eigenvalue problem:
     a serial algorithm will be used


     Parallelization info
     --------------------
     sticks:   dense  smooth     PW     G-vecs:    dense   smooth      PW
     Min         105      53     15                 3819     1353     231
     Max         106      55     16                 3826     1356     240
     Sum         847     433    127                30599    10837    1875

     Using Slab Decomposition



     bravais-lattice index     =            4
     lattice parameter (alat)  =       5.5609  a.u.
     unit-cell volume          =     225.9971 (a.u.)^3
     number of atoms/cell      =            4
     number of atomic types    =            2
     number of electrons       =        36.00
     number of Kohn-Sham states=           18
     kinetic-energy cutoff     =      50.0000  Ry
     charge density cutoff     =     400.0000  Ry
     scf convergence threshold =      1.0E-08
     mixing beta               =       0.3000
     number of iterations used =            8  plain     mixing
     Exchange-correlation= PBE
                           (   1   4   3   4   0   0   0)

     celldm(1)=   5.560939  celldm(2)=   0.000000  celldm(3)=   1.517497
     celldm(4)=   0.000000  celldm(5)=   0.000000  celldm(6)=   0.000000

     crystal axes: (cart. coord. in units of alat)
               a(1) = (   1.000000   0.000000   0.000000 )  
               a(2) = (  -0.500000   0.866025   0.000000 )  
               a(3) = (   0.000000   0.000000   1.517497 )  

     reciprocal axes: (cart. coord. in units 2 pi/alat)
               b(1) = (  1.000000  0.577350 -0.000000 )  
               b(2) = (  0.000000  1.154701  0.000000 )  
               b(3) = (  0.000000 -0.000000  0.658980 )  


     PseudoPot. # 1 for Zn read from file:
     ./pseudos/Zn.upf
     MD5 check sum: 7f56cabf9682ed8c977c2f7d0c5985c5
     Pseudo is Ultrasoft + core correction, Zval = 12.0
     Generated using &quot;atomic&quot; code by A. Dal Corso  v.6.2.2
     Using radial grid of 1201 points,  6 beta functions with: 
                l(1) =   0
                l(2) =   0
                l(3) =   1
                l(4) =   1
                l(5) =   2
                l(6) =   2
     Q(r) pseudized with 0 coefficients 


     PseudoPot. # 2 for O  read from file:
     ./pseudos/O.upf
     MD5 check sum: 91400c9766925bcf19f520983a725ff0
     Pseudo is Ultrasoft + core correction, Zval =  6.0
     Generated using &quot;atomic&quot; code by A. Dal Corso  v.6.3MaX
     Using radial grid of 1095 points,  4 beta functions with: 
                l(1) =   0
                l(2) =   0
                l(3) =   1
                l(4) =   1
     Q(r) pseudized with 0 coefficients 


     atomic species   valence    mass     pseudopotential
        Zn            12.00    63.38000     Zn( 1.00)
        O              6.00    15.99900     O ( 1.00)

     No symmetry found



   Cartesian axes

     site n.     atom                  positions (alat units)
         1           Zn  tau(   1) = (   0.3494324   0.4680719   0.9194748  )
         2           Zn  tau(   2) = (   0.2230643   0.5816443  -0.3440364  )
         3           O   tau(   3) = (   0.1447690   0.4981724   1.2012059  )
         4           O   tau(   4) = (  -0.0461863   0.5669059   0.3836466  )

     number of k points=   112

     Number of k-points >= 100: set verbosity='high' to print them.

     Dense  grid:    30599 G-vectors     FFT dimensions: (  36,  36,  54)

     Smooth grid:    10837 G-vectors     FFT dimensions: (  25,  25,  40)

     Estimated max dynamical RAM per process >      21.98 MB

     Estimated total dynamical RAM >     175.81 MB

     Check: negative core charge=   -0.000002

     Initial potential from superposition of free atoms

     starting charge      35.9925, renormalised to      36.0000
     Starting wfcs are   26 randomized atomic wfcs

     total cpu time spent up to now is        2.9 secs

     Self-consistent Calculation

     iteration #  1     ecut=    50.00 Ry     beta= 0.30
     Davidson diagonalization with overlap
     ethr =  1.00E-02,  avg # of iterations =  6.6

     total cpu time spent up to now is       10.8 secs

     total energy              =    -266.50164826 Ry
     estimated scf accuracy    <       6.42017951 Ry

     iteration #  2     ecut=    50.00 Ry     beta= 0.30
     Davidson diagonalization with overlap
     ethr =  1.00E-02,  avg # of iterations =  2.1

     total cpu time spent up to now is       14.9 secs

     total energy              =    -266.10908338 Ry
     estimated scf accuracy    <       1.44033005 Ry

     iteration #  3     ecut=    50.00 Ry     beta= 0.30
     Davidson diagonalization with overlap
     ethr =  4.00E-03,  avg # of iterations =  7.3

     total cpu time spent up to now is       21.2 secs

     total energy              =    -266.70550848 Ry
     estimated scf accuracy    <       1.36120791 Ry

     iteration #  4     ecut=    50.00 Ry     beta= 0.30
     Davidson diagonalization with overlap
     ethr =  3.78E-03,  avg # of iterations =  1.0

     total cpu time spent up to now is       24.0 secs

     total energy              =    -265.90322148 Ry
     estimated scf accuracy    <       1.04869199 Ry

     iteration #  5     ecut=    50.00 Ry     beta= 0.30
     Davidson diagonalization with overlap
     ethr =  2.91E-03,  avg # of iterations =  6.2

     total cpu time spent up to now is       29.6 secs

     total energy              =    -266.76984708 Ry
     estimated scf accuracy    <       2.83645767 Ry

     iteration #  6     ecut=    50.00 Ry     beta= 0.30
     Davidson diagonalization with overlap
     ethr =  2.91E-03,  avg # of iterations =  2.0

     total cpu time spent up to now is       32.8 secs

     total energy              =    -266.04021788 Ry
     estimated scf accuracy    <       1.62474079 Ry

     iteration #  7     ecut=    50.00 Ry     beta= 0.30
     Davidson diagonalization with overlap
     ethr =  2.91E-03,  avg # of iterations =  6.3

     total cpu time spent up to now is       37.7 secs

     total energy              =    -266.54465792 Ry
     estimated scf accuracy    <       0.30858885 Ry

     iteration #  8     ecut=    50.00 Ry     beta= 0.30
     Davidson diagonalization with overlap
     ethr =  8.57E-04,  avg # of iterations =  1.6

     total cpu time spent up to now is       40.6 secs

     total energy              =    -266.41285424 Ry
     estimated scf accuracy    <       0.17939167 Ry

     iteration #  9     ecut=    50.00 Ry     beta= 0.30
     Davidson diagonalization with overlap
     ethr =  4.98E-04,  avg # of iterations =  8.0

     total cpu time spent up to now is       46.7 secs

     total energy              =    -266.73173096 Ry
     estimated scf accuracy    <       0.86821543 Ry

     iteration # 10     ecut=    50.00 Ry     beta= 0.30
     Davidson diagonalization with overlap
     ethr =  4.98E-04,  avg # of iterations =  1.0

     total cpu time spent up to now is       49.5 secs

     total energy              =    -266.55878582 Ry
     estimated scf accuracy    <       0.77282684 Ry

     iteration # 11     ecut=    50.00 Ry     beta= 0.30
     Davidson diagonalization with overlap
     ethr =  4.98E-04,  avg # of iterations =  4.9

     total cpu time spent up to now is       53.5 secs

     total energy              =    -266.58343272 Ry
     estimated scf accuracy    <       0.24960175 Ry

     iteration # 12     ecut=    50.00 Ry     beta= 0.30
     Davidson diagonalization with overlap
     ethr =  4.98E-04,  avg # of iterations =  1.4

     total cpu time spent up to now is       56.5 secs

     total energy              =    -266.52511642 Ry
     estimated scf accuracy    <       0.21345489 Ry

     iteration # 13     ecut=    50.00 Ry     beta= 0.30
     Davidson diagonalization with overlap
     ethr =  4.98E-04,  avg # of iterations =  4.8

     total cpu time spent up to now is       60.4 secs

     total energy              =    -266.54907589 Ry
     estimated scf accuracy    <       0.01524467 Ry

     iteration # 14     ecut=    50.00 Ry     beta= 0.30
     Davidson diagonalization with overlap
     ethr =  4.23E-05,  avg # of iterations =  6.7

     total cpu time spent up to now is       65.5 secs

     total energy              =    -266.56356075 Ry
     estimated scf accuracy    <       0.00808505 Ry

     iteration # 15     ecut=    50.00 Ry     beta= 0.30
     Davidson diagonalization with overlap
     ethr =  2.25E-05,  avg # of iterations =  2.0

     total cpu time spent up to now is       68.8 secs

     total energy              =    -266.56418067 Ry
     estimated scf accuracy    <       0.01462294 Ry

     iteration # 16     ecut=    50.00 Ry     beta= 0.30
     Davidson diagonalization with overlap
     ethr =  2.25E-05,  avg # of iterations =  1.3

     total cpu time spent up to now is       71.9 secs

     total energy              =    -266.56134611 Ry
     estimated scf accuracy    <       0.01615643 Ry

     iteration # 17     ecut=    50.00 Ry     beta= 0.30
     Davidson diagonalization with overlap
     ethr =  2.25E-05,  avg # of iterations =  1.0

     total cpu time spent up to now is       74.9 secs

     total energy              =    -266.55702610 Ry
     estimated scf accuracy    <       0.01122206 Ry

     iteration # 18     ecut=    50.00 Ry     beta= 0.30
     Davidson diagonalization with overlap
     ethr =  2.25E-05,  avg # of iterations =  6.3

     total cpu time spent up to now is       80.0 secs

     total energy              =    -266.56020841 Ry
     estimated scf accuracy    <       0.00119770 Ry

     iteration # 19     ecut=    50.00 Ry     beta= 0.30
     Davidson diagonalization with overlap
     ethr =  3.33E-06,  avg # of iterations =  1.7

     total cpu time spent up to now is       83.2 secs

     total energy              =    -266.55918276 Ry
     estimated scf accuracy    <       0.00131356 Ry

     iteration # 20     ecut=    50.00 Ry     beta= 0.30
     Davidson diagonalization with overlap
     ethr =  3.33E-06,  avg # of iterations =  9.5

     total cpu time spent up to now is       89.8 secs

     total energy              =    -266.56068388 Ry
     estimated scf accuracy    <       0.00790686 Ry

     iteration # 21     ecut=    50.00 Ry     beta= 0.30
     Davidson diagonalization with overlap
     ethr =  3.33E-06,  avg # of iterations =  1.1

     total cpu time spent up to now is       92.9 secs

     total energy              =    -266.55933626 Ry
     estimated scf accuracy    <       0.00638202 Ry

     iteration # 22     ecut=    50.00 Ry     beta= 0.30
     Davidson diagonalization with overlap
     ethr =  3.33E-06,  avg # of iterations =  6.4

     total cpu time spent up to now is       98.1 secs

     total energy              =    -266.55988431 Ry
     estimated scf accuracy    <       0.00033898 Ry

     iteration # 23     ecut=    50.00 Ry     beta= 0.30
     Davidson diagonalization with overlap
     ethr =  9.42E-07,  avg # of iterations =  4.7

     total cpu time spent up to now is      102.3 secs

     total energy              =    -266.55993556 Ry
     estimated scf accuracy    <       0.00001892 Ry

     iteration # 24     ecut=    50.00 Ry     beta= 0.30
     Davidson diagonalization with overlap
     ethr =  5.25E-08,  avg # of iterations =  7.7

     total cpu time spent up to now is      107.9 secs

     total energy              =    -266.55996862 Ry
     estimated scf accuracy    <       0.00001997 Ry

     iteration # 25     ecut=    50.00 Ry     beta= 0.30
     Davidson diagonalization with overlap
     ethr =  5.25E-08,  avg # of iterations =  1.1

     total cpu time spent up to now is      110.9 secs

     total energy              =    -266.55996275 Ry
     estimated scf accuracy    <       0.00002026 Ry

     iteration # 26     ecut=    50.00 Ry     beta= 0.30
     Davidson diagonalization with overlap
     ethr =  5.25E-08,  avg # of iterations =  2.0

     total cpu time spent up to now is      114.3 secs

     total energy              =    -266.55996248 Ry
     estimated scf accuracy    <       0.00000705 Ry

     iteration # 27     ecut=    50.00 Ry     beta= 0.30
     Davidson diagonalization with overlap
     ethr =  1.96E-08,  avg # of iterations =  6.7

     total cpu time spent up to now is      119.2 secs

     total energy              =    -266.55996442 Ry
     estimated scf accuracy    <       0.00000004 Ry

     iteration # 28     ecut=    50.00 Ry     beta= 0.30
     Davidson diagonalization with overlap
     ethr =  1.24E-10,  avg # of iterations =  7.3

     total cpu time spent up to now is      125.0 secs

     total energy              =    -266.55996449 Ry
     estimated scf accuracy    <       0.00000016 Ry

     iteration # 29     ecut=    50.00 Ry     beta= 0.30
     Davidson diagonalization with overlap
     ethr =  1.24E-10,  avg # of iterations =  1.1

     total cpu time spent up to now is      128.0 secs

     total energy              =    -266.55996443 Ry
     estimated scf accuracy    <       0.00000014 Ry

     iteration # 30     ecut=    50.00 Ry     beta= 0.30
     Davidson diagonalization with overlap
     ethr =  1.24E-10,  avg # of iterations =  7.4

     total cpu time spent up to now is      133.9 secs

     total energy              =    -266.55996448 Ry
     estimated scf accuracy    <       0.00000003 Ry

     iteration # 31     ecut=    50.00 Ry     beta= 0.30
     Davidson diagonalization with overlap
     ethr =  9.17E-11,  avg # of iterations =  1.2

     total cpu time spent up to now is      137.1 secs

     total energy              =    -266.55996447 Ry
     estimated scf accuracy    <       0.00000004 Ry

     iteration # 32     ecut=    50.00 Ry     beta= 0.30
     Davidson diagonalization with overlap
     ethr =  9.17E-11,  avg # of iterations =  5.2

     total cpu time spent up to now is      141.5 secs

     End of self-consistent calculation

     Number of k-points >= 100: set verbosity='high' to print the bands.

     highest occupied level (ev):    17.3287

!    total energy              =    -266.55996447 Ry
     estimated scf accuracy    <          1.6E-09 Ry

     The total energy is the sum of the following terms:
     one-electron contribution =    -383.92862460 Ry
     hartree contribution      =     223.53280741 Ry
     xc contribution           =    -120.14250137 Ry
     ewald contribution        =      13.97835408 Ry

     convergence has been achieved in  32 iterations

     Forces acting on atoms (cartesian axes, Ry/au):

     atom    1 type  1   force =    15.41311408  -10.55538933  -28.45926689
     atom    2 type  1   force =   163.31506755  195.79408818  -39.54346023
     atom    3 type  2   force =  -178.66816348 -185.27518927   67.87256218
     atom    4 type  2   force =    -0.06001814    0.03649043    0.13016495
     The non-local contrib.  to forces
     atom    1 type  1   force =    -4.13264320    2.52786300    7.48461302
     atom    2 type  1   force =   -24.59978969  -31.10379514    4.19963053
     atom    3 type  2   force =     2.10090467    0.94046123   -1.98060267
     atom    4 type  2   force =     0.11169933    0.05466061    0.67702803
     The ionic contribution  to forces
     atom    1 type  1   force =    55.09992415  -35.25631404 -109.16792795
     atom    2 type  1   force =   186.45491085  268.02989808    4.95624545
     atom    3 type  2   force =  -238.76388811 -233.37041489  110.17282407
     atom    4 type  2   force =    -2.79094689    0.59683085   -5.96114157
     The local contribution  to forces
     atom    1 type  1   force =   -34.82261742   21.64541713   71.85021547
     atom    2 type  1   force =     2.38693968  -39.03070269  -48.09022625
     atom    3 type  2   force =    57.62906017   46.76304056  -40.19298238
     atom    4 type  2   force =     2.61927572   -0.61424364    5.42032388
     The core correction contribution to forces
     atom    1 type  1   force =    -0.73158369    0.52762315    1.37377786
     atom    2 type  1   force =    -0.92702258   -2.10131990   -0.60898450
     atom    3 type  2   force =     0.36573503    0.39170505   -0.12661214
     atom    4 type  2   force =    -0.00005443   -0.00078148   -0.00611997
     The Hubbard contrib.    to forces
     atom    1 type  1   force =     0.00000000    0.00000000    0.00000000
     atom    2 type  1   force =     0.00000000    0.00000000    0.00000000
     atom    3 type  2   force =     0.00000000    0.00000000    0.00000000
     atom    4 type  2   force =     0.00000000    0.00000000    0.00000000
     The SCF correction term to forces
     atom    1 type  1   force =     0.00001878   -0.00000216    0.00003295
     atom    2 type  1   force =     0.00001383   -0.00001575   -0.00014722
     atom    3 type  2   force =     0.00000930   -0.00000480   -0.00008646
     atom    4 type  2   force =    -0.00000732    0.00000051    0.00005282

     Total force =   372.270932     Total SCF correction =     0.000184

     Writing all to output data dir ./ZnO_ANN.save/

     init_run     :      2.38s CPU      2.46s WALL (       1 calls)
     electrons    :    134.92s CPU    138.55s WALL (       1 calls)
     forces       :      0.73s CPU      0.76s WALL (       1 calls)

     Called by init_run:
     wfcinit      :      1.68s CPU      1.74s WALL (       1 calls)
     potinit      :      0.20s CPU      0.20s WALL (       1 calls)
     hinit0       :      0.44s CPU      0.46s WALL (       1 calls)

     Called by electrons:
     c_bands      :    119.34s CPU    122.43s WALL (      32 calls)
     sum_band     :     13.94s CPU     14.43s WALL (      32 calls)
     v_of_rho     :      0.31s CPU      0.34s WALL (      33 calls)
     newd         :      1.28s CPU      1.30s WALL (      33 calls)
     mix_rho      :      0.06s CPU      0.07s WALL (      32 calls)

     Called by c_bands:
     init_us_2    :      1.12s CPU      1.13s WALL (    7392 calls)
     init_us_2:cp :      1.09s CPU      1.11s WALL (    7392 calls)
     cegterg      :    115.72s CPU    118.73s WALL (    3584 calls)

     Called by *egterg:
     cdiaghg      :     19.64s CPU     19.88s WALL (   18581 calls)
     h_psi        :     61.53s CPU     63.76s WALL (   18693 calls)
     s_psi        :      8.33s CPU      8.45s WALL (   18693 calls)
     g_psi        :      0.23s CPU      0.23s WALL (   14997 calls)

     Called by h_psi:
     h_psi:calbec :      9.48s CPU      9.97s WALL (   18693 calls)
     vloc_psi     :     43.43s CPU     45.05s WALL (   18693 calls)
     add_vuspsi   :      8.35s CPU      8.46s WALL (   18693 calls)

     General routines
     calbec       :     13.22s CPU     13.88s WALL (   22725 calls)
     fft          :      0.46s CPU      0.51s WALL (     438 calls)
     ffts         :      0.09s CPU      0.09s WALL (      65 calls)
     fftw         :     44.66s CPU     46.32s WALL (  417280 calls)
     interpolate  :      0.10s CPU      0.10s WALL (      33 calls)

     Parallel routines

     PWSCF        :   2m18.72s CPU   2m22.61s WALL


   This run was terminated on:  11:53:20  23Jun2025            

=------------------------------------------------------------------------------=
   JOB DONE.
=------------------------------------------------------------------------------=
Note: The following floating-point exceptions are signalling: IEEE_INVALID_FLAG
