
     Program PWSCF v.7.2 starts on 23Jun2025 at 18:26:24 

     This program is part of the open-source Quantum ESPRESSO suite
     for quantum simulation of materials; please cite
         "P. Giannozzi et al., J. Phys.:Condens. Matter 21 395502 (2009);
         "P. Giannozzi et al., J. Phys.:Condens. Matter 29 465901 (2017);
         "P. Giannozzi et al., J. Chem. Phys. 152 154105 (2020);
          URL http://www.quantum-espresso.org", 
     in publications or presentations arising from this work. More details at
     http://www.quantum-espresso.org/quote

     Parallel version (MPI), running on     8 processors

     MPI processes distributed on     1 nodes
     90730 MiB available memory on the printing compute node when the environment starts

     Reading input from /home/jvc/QEspresso7.2/ZnO_DataBase/scfs_rnd025.in/scf-6.80-1.55-3.in

     Current dimensions of program PWSCF are:
     Max number of different atomic species (ntypx) = 10
     Max number of k-points (npk) =  40000
     Max angular momentum in pseudopotentials (lmaxx) =  4
     file Zn.upf: wavefunction(s)  3D renormalized

     R & G space division:  proc/nbgrp/npool/nimage =       8
     Subspace diagonalization in iterative solution of the eigenvalue problem:
     a serial algorithm will be used


     Parallelization info
     --------------------
     sticks:   dense  smooth     PW     G-vecs:    dense   smooth      PW
     Min         159      80     24                 7121     2515     418
     Max         163      82     26                 7122     2518     421
     Sum        1285     649    199                56971    20135    3357

     Using Slab Decomposition



     bravais-lattice index     =            4
     lattice parameter (alat)  =       6.7967  a.u.
     unit-cell volume          =     421.4022 (a.u.)^3
     number of atoms/cell      =            4
     number of atomic types    =            2
     number of electrons       =        36.00
     number of Kohn-Sham states=           18
     kinetic-energy cutoff     =      50.0000  Ry
     charge density cutoff     =     400.0000  Ry
     scf convergence threshold =      1.0E-08
     mixing beta               =       0.3000
     number of iterations used =            8  plain     mixing
     Exchange-correlation= PBE
                           (   1   4   3   4   0   0   0)

     celldm(1)=   6.796704  celldm(2)=   0.000000  celldm(3)=   1.549784
     celldm(4)=   0.000000  celldm(5)=   0.000000  celldm(6)=   0.000000

     crystal axes: (cart. coord. in units of alat)
               a(1) = (   1.000000   0.000000   0.000000 )  
               a(2) = (  -0.500000   0.866025   0.000000 )  
               a(3) = (   0.000000   0.000000   1.549784 )  

     reciprocal axes: (cart. coord. in units 2 pi/alat)
               b(1) = (  1.000000  0.577350 -0.000000 )  
               b(2) = (  0.000000  1.154701  0.000000 )  
               b(3) = (  0.000000 -0.000000  0.645251 )  


     PseudoPot. # 1 for Zn read from file:
     ./pseudos/Zn.upf
     MD5 check sum: 7f56cabf9682ed8c977c2f7d0c5985c5
     Pseudo is Ultrasoft + core correction, Zval = 12.0
     Generated using &quot;atomic&quot; code by A. Dal Corso  v.6.2.2
     Using radial grid of 1201 points,  6 beta functions with: 
                l(1) =   0
                l(2) =   0
                l(3) =   1
                l(4) =   1
                l(5) =   2
                l(6) =   2
     Q(r) pseudized with 0 coefficients 


     PseudoPot. # 2 for O  read from file:
     ./pseudos/O.upf
     MD5 check sum: 91400c9766925bcf19f520983a725ff0
     Pseudo is Ultrasoft + core correction, Zval =  6.0
     Generated using &quot;atomic&quot; code by A. Dal Corso  v.6.3MaX
     Using radial grid of 1095 points,  4 beta functions with: 
                l(1) =   0
                l(2) =   0
                l(3) =   1
                l(4) =   1
     Q(r) pseudized with 0 coefficients 


     atomic species   valence    mass     pseudopotential
        Zn            12.00    63.38000     Zn( 1.00)
        O              6.00    15.99900     O ( 1.00)

     No symmetry found



   Cartesian axes

     site n.     atom                  positions (alat units)
         1           Zn  tau(   1) = (   0.4907596   0.1897241   0.8568961  )
         2           Zn  tau(   2) = (  -0.0034567   0.7545643   0.1207350  )
         3           O   tau(   3) = (   0.4010503   0.3091635   1.0723885  )
         4           O   tau(   4) = (   0.0441874   0.5843844   0.3338889  )

     number of k points=   112

     Number of k-points >= 100: set verbosity='high' to print them.

     Dense  grid:    56971 G-vectors     FFT dimensions: (  45,  45,  72)

     Smooth grid:    20135 G-vectors     FFT dimensions: (  32,  32,  48)

     Estimated max dynamical RAM per process >      38.31 MB

     Estimated total dynamical RAM >     306.46 MB

     Check: negative core charge=   -0.000002

     Initial potential from superposition of free atoms

     starting charge      35.9925, renormalised to      36.0000
     Starting wfcs are   26 randomized atomic wfcs

     total cpu time spent up to now is        4.4 secs

     Self-consistent Calculation

     iteration #  1     ecut=    50.00 Ry     beta= 0.30
     Davidson diagonalization with overlap
     ethr =  1.00E-02,  avg # of iterations =  3.1

     total cpu time spent up to now is       12.3 secs

     total energy              =    -354.77072044 Ry
     estimated scf accuracy    <       1.52646582 Ry

     iteration #  2     ecut=    50.00 Ry     beta= 0.30
     Davidson diagonalization with overlap
     ethr =  4.24E-03,  avg # of iterations =  2.0

     total cpu time spent up to now is       18.6 secs

     total energy              =    -354.77044144 Ry
     estimated scf accuracy    <       0.31973574 Ry

     iteration #  3     ecut=    50.00 Ry     beta= 0.30
     Davidson diagonalization with overlap
     ethr =  8.88E-04,  avg # of iterations =  6.3

     total cpu time spent up to now is       30.5 secs

     total energy              =    -355.02357534 Ry
     estimated scf accuracy    <       0.43156723 Ry

     iteration #  4     ecut=    50.00 Ry     beta= 0.30
     Davidson diagonalization with overlap
     ethr =  8.88E-04,  avg # of iterations =  1.1

     total cpu time spent up to now is       35.6 secs

     total energy              =    -354.85872048 Ry
     estimated scf accuracy    <       0.20911067 Ry

     iteration #  5     ecut=    50.00 Ry     beta= 0.30
     Davidson diagonalization with overlap
     ethr =  5.81E-04,  avg # of iterations =  7.8

     total cpu time spent up to now is       50.3 secs

     total energy              =    -355.08319055 Ry
     estimated scf accuracy    <       1.15533456 Ry

     iteration #  6     ecut=    50.00 Ry     beta= 0.30
     Davidson diagonalization with overlap
     ethr =  5.81E-04,  avg # of iterations =  2.1

     total cpu time spent up to now is       56.3 secs

     total energy              =    -354.85325312 Ry
     estimated scf accuracy    <       0.64631638 Ry

     iteration #  7     ecut=    50.00 Ry     beta= 0.30
     Davidson diagonalization with overlap
     ethr =  5.81E-04,  avg # of iterations =  5.6

     total cpu time spent up to now is       66.8 secs

     total energy              =    -355.02204349 Ry
     estimated scf accuracy    <       0.00299142 Ry

     iteration #  8     ecut=    50.00 Ry     beta= 0.30
     Davidson diagonalization with overlap
     ethr =  8.31E-06,  avg # of iterations =  8.6

     total cpu time spent up to now is       83.2 secs

     total energy              =    -355.03170098 Ry
     estimated scf accuracy    <       0.05287689 Ry

     iteration #  9     ecut=    50.00 Ry     beta= 0.30
     Davidson diagonalization with overlap
     ethr =  8.31E-06,  avg # of iterations =  1.9

     total cpu time spent up to now is       88.7 secs

     total energy              =    -355.01308376 Ry
     estimated scf accuracy    <       0.04240309 Ry

     iteration # 10     ecut=    50.00 Ry     beta= 0.30
     Davidson diagonalization with overlap
     ethr =  8.31E-06,  avg # of iterations =  8.8

     total cpu time spent up to now is      104.5 secs

     total energy              =    -355.02331789 Ry
     estimated scf accuracy    <       0.00156771 Ry

     iteration # 11     ecut=    50.00 Ry     beta= 0.30
     Davidson diagonalization with overlap
     ethr =  4.35E-06,  avg # of iterations =  2.0

     total cpu time spent up to now is      110.3 secs

     total energy              =    -355.02310358 Ry
     estimated scf accuracy    <       0.00048585 Ry

     iteration # 12     ecut=    50.00 Ry     beta= 0.30
     Davidson diagonalization with overlap
     ethr =  1.35E-06,  avg # of iterations =  9.6

     total cpu time spent up to now is      126.6 secs

     total energy              =    -355.02360288 Ry
     estimated scf accuracy    <       0.00921582 Ry

     iteration # 13     ecut=    50.00 Ry     beta= 0.30
     Davidson diagonalization with overlap
     ethr =  1.35E-06,  avg # of iterations =  6.1

     total cpu time spent up to now is      137.2 secs

     total energy              =    -355.02281970 Ry
     estimated scf accuracy    <       0.00262569 Ry

     iteration # 14     ecut=    50.00 Ry     beta= 0.30
     Davidson diagonalization with overlap
     ethr =  1.35E-06,  avg # of iterations =  7.3

     total cpu time spent up to now is      149.5 secs

     total energy              =    -355.02361395 Ry
     estimated scf accuracy    <       0.00013775 Ry

     iteration # 15     ecut=    50.00 Ry     beta= 0.30
     Davidson diagonalization with overlap
     ethr =  3.83E-07,  avg # of iterations =  5.9

     total cpu time spent up to now is      157.9 secs

     total energy              =    -355.02362026 Ry
     estimated scf accuracy    <       0.00071199 Ry

     iteration # 16     ecut=    50.00 Ry     beta= 0.30
     Davidson diagonalization with overlap
     ethr =  3.83E-07,  avg # of iterations =  1.0

     total cpu time spent up to now is      162.9 secs

     total energy              =    -355.02336974 Ry
     estimated scf accuracy    <       0.00062418 Ry

     iteration # 17     ecut=    50.00 Ry     beta= 0.30
     Davidson diagonalization with overlap
     ethr =  3.83E-07,  avg # of iterations =  6.5

     total cpu time spent up to now is      173.9 secs

     total energy              =    -355.02350434 Ry
     estimated scf accuracy    <       0.00000644 Ry

     iteration # 18     ecut=    50.00 Ry     beta= 0.30
     Davidson diagonalization with overlap
     ethr =  1.79E-08,  avg # of iterations =  5.1

     total cpu time spent up to now is      181.7 secs

     total energy              =    -355.02350559 Ry
     estimated scf accuracy    <       0.00000373 Ry

     iteration # 19     ecut=    50.00 Ry     beta= 0.30
     Davidson diagonalization with overlap
     ethr =  1.04E-08,  avg # of iterations =  2.1

     total cpu time spent up to now is      187.4 secs

     total energy              =    -355.02350501 Ry
     estimated scf accuracy    <       0.00000156 Ry

     iteration # 20     ecut=    50.00 Ry     beta= 0.30
     Davidson diagonalization with overlap
     ethr =  4.33E-09,  avg # of iterations =  7.2

     total cpu time spent up to now is      198.0 secs

     total energy              =    -355.02350638 Ry
     estimated scf accuracy    <       0.00000222 Ry

     iteration # 21     ecut=    50.00 Ry     beta= 0.30
     Davidson diagonalization with overlap
     ethr =  4.33E-09,  avg # of iterations =  1.1

     total cpu time spent up to now is      203.0 secs

     total energy              =    -355.02350552 Ry
     estimated scf accuracy    <       0.00000222 Ry

     iteration # 22     ecut=    50.00 Ry     beta= 0.30
     Davidson diagonalization with overlap
     ethr =  4.33E-09,  avg # of iterations =  5.7

     total cpu time spent up to now is      210.3 secs

     total energy              =    -355.02350584 Ry
     estimated scf accuracy    <       0.00000009 Ry

     iteration # 23     ecut=    50.00 Ry     beta= 0.30
     Davidson diagonalization with overlap
     ethr =  2.46E-10,  avg # of iterations =  8.1

     total cpu time spent up to now is      223.5 secs

     total energy              =    -355.02350598 Ry
     estimated scf accuracy    <       0.00000020 Ry

     iteration # 24     ecut=    50.00 Ry     beta= 0.30
     Davidson diagonalization with overlap
     ethr =  2.46E-10,  avg # of iterations =  1.4

     total cpu time spent up to now is      228.8 secs

     total energy              =    -355.02350593 Ry
     estimated scf accuracy    <       0.00000015 Ry

     iteration # 25     ecut=    50.00 Ry     beta= 0.30
     Davidson diagonalization with overlap
     ethr =  2.46E-10,  avg # of iterations =  6.0

     total cpu time spent up to now is      236.7 secs

     End of self-consistent calculation

     Number of k-points >= 100: set verbosity='high' to print the bands.

     highest occupied level (ev):     4.5930

!    total energy              =    -355.02350596 Ry
     estimated scf accuracy    <          4.0E-09 Ry

     The total energy is the sum of the following terms:
     one-electron contribution =    -261.99967552 Ry
     hartree contribution      =     163.59176547 Ry
     xc contribution           =    -111.05487967 Ry
     ewald contribution        =    -145.56071624 Ry

     convergence has been achieved in  25 iterations

     Forces acting on atoms (cartesian axes, Ry/au):

     atom    1 type  1   force =     3.52880779   -4.72659571   -8.50352641
     atom    2 type  1   force =    -1.34436703    4.81209307   -6.05080008
     atom    3 type  2   force =    -3.52760392    4.71008742    8.53146237
     atom    4 type  2   force =     1.34316316   -4.79558479    6.02286412
     The non-local contrib.  to forces
     atom    1 type  1   force =    -0.56504834    0.74709513    1.42845904
     atom    2 type  1   force =     0.15746343   -0.48454137    0.73346372
     atom    3 type  2   force =     0.49379518   -0.71115063   -0.81640139
     atom    4 type  2   force =    -0.22749851    0.91620614   -0.88740246
     The ionic contribution  to forces
     atom    1 type  1   force =    14.17824237  -17.06209317  -29.73796903
     atom    2 type  1   force =    -6.19885638   20.66888341  -30.04664289
     atom    3 type  2   force =   -14.05831034   19.30441420   34.09880731
     atom    4 type  2   force =     6.07892434  -22.91120444   25.68580461
     The local contribution  to forces
     atom    1 type  1   force =    -9.89369100   11.34113874   19.35804289
     atom    2 type  1   force =     4.61649721  -15.08629509   22.90449999
     atom    3 type  2   force =    10.03108191  -13.87595311  -24.73399810
     atom    4 type  2   force =    -4.50591699   17.19186480  -18.76403814
     The core correction contribution to forces
     atom    1 type  1   force =    -0.19072471    0.24733001    0.44785252
     atom    2 type  1   force =     0.08059421   -0.28617528    0.35820225
     atom    3 type  2   force =     0.00582984   -0.00719997   -0.01706826
     atom    4 type  2   force =    -0.00234003    0.00754711   -0.01149377
     The Hubbard contrib.    to forces
     atom    1 type  1   force =     0.00000000    0.00000000    0.00000000
     atom    2 type  1   force =     0.00000000    0.00000000    0.00000000
     atom    3 type  2   force =     0.00000000    0.00000000    0.00000000
     atom    4 type  2   force =     0.00000000    0.00000000    0.00000000
     The SCF correction term to forces
     atom    1 type  1   force =     0.00003200   -0.00005270    0.00003099
     atom    2 type  1   force =    -0.00006296    0.00023510   -0.00038033
     atom    3 type  2   force =     0.00000202   -0.00000936    0.00006562
     atom    4 type  2   force =    -0.00000312    0.00001530   -0.00006331

     Total force =    18.362197     Total SCF correction =     0.000466

     Writing all to output data dir ./ZnO_ANN.save/

     init_run     :      3.79s CPU      3.91s WALL (       1 calls)
     electrons    :    228.33s CPU    232.31s WALL (       1 calls)
     forces       :      1.29s CPU      1.30s WALL (       1 calls)

     Called by init_run:
     wfcinit      :      2.80s CPU      2.88s WALL (       1 calls)
     potinit      :      0.33s CPU      0.34s WALL (       1 calls)
     hinit0       :      0.56s CPU      0.57s WALL (       1 calls)

     Called by electrons:
     c_bands      :    206.51s CPU    209.98s WALL (      25 calls)
     sum_band     :     19.40s CPU     19.84s WALL (      25 calls)
     v_of_rho     :      0.50s CPU      0.55s WALL (      26 calls)
     newd         :      1.87s CPU      1.90s WALL (      26 calls)
     mix_rho      :      0.09s CPU      0.09s WALL (      25 calls)

     Called by c_bands:
     init_us_2    :      1.63s CPU      1.66s WALL (    5824 calls)
     init_us_2:cp :      1.61s CPU      1.64s WALL (    5824 calls)
     cegterg      :    201.22s CPU    204.61s WALL (    2800 calls)

     Called by *egterg:
     cdiaghg      :     17.85s CPU     17.97s WALL (   16484 calls)
     h_psi        :    110.72s CPU    113.21s WALL (   16596 calls)
     s_psi        :     15.14s CPU     15.25s WALL (   16596 calls)
     g_psi        :      0.48s CPU      0.49s WALL (   13684 calls)

     Called by h_psi:
     h_psi:calbec :     18.06s CPU     18.59s WALL (   16596 calls)
     vloc_psi     :     77.01s CPU     78.86s WALL (   16596 calls)
     add_vuspsi   :     15.29s CPU     15.39s WALL (   16596 calls)

     General routines
     calbec       :     23.65s CPU     24.31s WALL (   19844 calls)
     fft          :      0.71s CPU      0.77s WALL (     347 calls)
     ffts         :      0.16s CPU      0.16s WALL (      51 calls)
     fftw         :     75.27s CPU     77.09s WALL (  416578 calls)
     interpolate  :      0.18s CPU      0.18s WALL (      26 calls)

     Parallel routines

     PWSCF        :   3m54.17s CPU   3m58.60s WALL


   This run was terminated on:  18:30:23  23Jun2025            

=------------------------------------------------------------------------------=
   JOB DONE.
=------------------------------------------------------------------------------=
Note: The following floating-point exceptions are signalling: IEEE_INVALID_FLAG
