
     Program PWSCF v.7.2 starts on 23Jun2025 at 13: 4: 5 

     This program is part of the open-source Quantum ESPRESSO suite
     for quantum simulation of materials; please cite
         "P. Giannozzi et al., J. Phys.:Condens. Matter 21 395502 (2009);
         "P. Giannozzi et al., J. Phys.:Condens. Matter 29 465901 (2017);
         "P. Giannozzi et al., J. Chem. Phys. 152 154105 (2020);
          URL http://www.quantum-espresso.org", 
     in publications or presentations arising from this work. More details at
     http://www.quantum-espresso.org/quote

     Parallel version (MPI), running on     8 processors

     MPI processes distributed on     1 nodes
     91167 MiB available memory on the printing compute node when the environment starts

     Reading input from /home/jvc/QEspresso7.2/ZnO_DataBase/scfs_rnd025.in/scf-5.81-1.78-5.in

     Current dimensions of program PWSCF are:
     Max number of different atomic species (ntypx) = 10
     Max number of k-points (npk) =  40000
     Max angular momentum in pseudopotentials (lmaxx) =  4
     file Zn.upf: wavefunction(s)  3D renormalized

     R & G space division:  proc/nbgrp/npool/nimage =       8
     Subspace diagonalization in iterative solution of the eigenvalue problem:
     a serial algorithm will be used


     Parallelization info
     --------------------
     sticks:   dense  smooth     PW     G-vecs:    dense   smooth      PW
     Min         116      57     18                 5081     1797     304
     Max         118      58     20                 5084     1800     307
     Sum         931     463    151                40667    14393    2443

     Using Slab Decomposition



     bravais-lattice index     =            4
     lattice parameter (alat)  =       5.8081  a.u.
     unit-cell volume          =     301.3171 (a.u.)^3
     number of atoms/cell      =            4
     number of atomic types    =            2
     number of electrons       =        36.00
     number of Kohn-Sham states=           18
     kinetic-energy cutoff     =      50.0000  Ry
     charge density cutoff     =     400.0000  Ry
     scf convergence threshold =      1.0E-08
     mixing beta               =       0.3000
     number of iterations used =            8  plain     mixing
     Exchange-correlation= PBE
                           (   1   4   3   4   0   0   0)

     celldm(1)=   5.808092  celldm(2)=   0.000000  celldm(3)=   1.775794
     celldm(4)=   0.000000  celldm(5)=   0.000000  celldm(6)=   0.000000

     crystal axes: (cart. coord. in units of alat)
               a(1) = (   1.000000   0.000000   0.000000 )  
               a(2) = (  -0.500000   0.866025   0.000000 )  
               a(3) = (   0.000000   0.000000   1.775794 )  

     reciprocal axes: (cart. coord. in units 2 pi/alat)
               b(1) = (  1.000000  0.577350 -0.000000 )  
               b(2) = (  0.000000  1.154701  0.000000 )  
               b(3) = (  0.000000 -0.000000  0.563128 )  


     PseudoPot. # 1 for Zn read from file:
     ./pseudos/Zn.upf
     MD5 check sum: 7f56cabf9682ed8c977c2f7d0c5985c5
     Pseudo is Ultrasoft + core correction, Zval = 12.0
     Generated using &quot;atomic&quot; code by A. Dal Corso  v.6.2.2
     Using radial grid of 1201 points,  6 beta functions with: 
                l(1) =   0
                l(2) =   0
                l(3) =   1
                l(4) =   1
                l(5) =   2
                l(6) =   2
     Q(r) pseudized with 0 coefficients 


     PseudoPot. # 2 for O  read from file:
     ./pseudos/O.upf
     MD5 check sum: 91400c9766925bcf19f520983a725ff0
     Pseudo is Ultrasoft + core correction, Zval =  6.0
     Generated using &quot;atomic&quot; code by A. Dal Corso  v.6.3MaX
     Using radial grid of 1095 points,  4 beta functions with: 
                l(1) =   0
                l(2) =   0
                l(3) =   1
                l(4) =   1
     Q(r) pseudized with 0 coefficients 


     atomic species   valence    mass     pseudopotential
        Zn            12.00    63.38000     Zn( 1.00)
        O              6.00    15.99900     O ( 1.00)

     No symmetry found



   Cartesian axes

     site n.     atom                  positions (alat units)
         1           Zn  tau(   1) = (   0.6552833   0.3073462   0.6033473  )
         2           Zn  tau(   2) = (  -0.2059324   0.6589848  -0.0029119  )
         3           O   tau(   3) = (   0.4666229   0.2950585   1.7771907  )
         4           O   tau(   4) = (   0.0058531   0.4877553   0.9612519  )

     number of k points=   112

     Number of k-points >= 100: set verbosity='high' to print them.

     Dense  grid:    40667 G-vectors     FFT dimensions: (  40,  40,  72)

     Smooth grid:    14393 G-vectors     FFT dimensions: (  27,  27,  48)

     Estimated max dynamical RAM per process >      28.35 MB

     Estimated total dynamical RAM >     226.82 MB

     Check: negative core charge=   -0.000002

     Initial potential from superposition of free atoms

     starting charge      35.9925, renormalised to      36.0000
     Starting wfcs are   26 randomized atomic wfcs

     total cpu time spent up to now is        3.9 secs

     Self-consistent Calculation

     iteration #  1     ecut=    50.00 Ry     beta= 0.30
     Davidson diagonalization with overlap
     ethr =  1.00E-02,  avg # of iterations =  2.0

     total cpu time spent up to now is        9.1 secs

     total energy              =    -360.94260741 Ry
     estimated scf accuracy    <       0.97080693 Ry

     iteration #  2     ecut=    50.00 Ry     beta= 0.30
     Davidson diagonalization with overlap
     ethr =  2.70E-03,  avg # of iterations =  3.5

     total cpu time spent up to now is       15.3 secs

     total energy              =    -361.10550009 Ry
     estimated scf accuracy    <       0.10864967 Ry

     iteration #  3     ecut=    50.00 Ry     beta= 0.30
     Davidson diagonalization with overlap
     ethr =  3.02E-04,  avg # of iterations =  6.6

     total cpu time spent up to now is       25.7 secs

     total energy              =    -361.16748495 Ry
     estimated scf accuracy    <       0.08503584 Ry

     iteration #  4     ecut=    50.00 Ry     beta= 0.30
     Davidson diagonalization with overlap
     ethr =  2.36E-04,  avg # of iterations =  3.5

     total cpu time spent up to now is       31.4 secs

     total energy              =    -361.17423381 Ry
     estimated scf accuracy    <       0.01067701 Ry

     iteration #  5     ecut=    50.00 Ry     beta= 0.30
     Davidson diagonalization with overlap
     c_bands:  1 eigenvalues not converged
     ethr =  2.97E-05,  avg # of iterations =  9.4

     total cpu time spent up to now is       46.7 secs

     total energy              =    -361.18084500 Ry
     estimated scf accuracy    <       0.11762212 Ry

     iteration #  6     ecut=    50.00 Ry     beta= 0.30
     Davidson diagonalization with overlap
     ethr =  2.97E-05,  avg # of iterations =  6.0

     total cpu time spent up to now is       56.0 secs

     total energy              =    -361.17901738 Ry
     estimated scf accuracy    <       0.02137230 Ry

     iteration #  7     ecut=    50.00 Ry     beta= 0.30
     Davidson diagonalization with overlap
     ethr =  2.97E-05,  avg # of iterations =  5.7

     total cpu time spent up to now is       64.3 secs

     total energy              =    -361.18493717 Ry
     estimated scf accuracy    <       0.00152577 Ry

     iteration #  8     ecut=    50.00 Ry     beta= 0.30
     Davidson diagonalization with overlap
     ethr =  4.24E-06,  avg # of iterations =  5.5

     total cpu time spent up to now is       71.8 secs

     total energy              =    -361.18535821 Ry
     estimated scf accuracy    <       0.00070722 Ry

     iteration #  9     ecut=    50.00 Ry     beta= 0.30
     Davidson diagonalization with overlap
     ethr =  1.96E-06,  avg # of iterations =  5.3

     total cpu time spent up to now is       79.0 secs

     total energy              =    -361.18556647 Ry
     estimated scf accuracy    <       0.00008536 Ry

     iteration # 10     ecut=    50.00 Ry     beta= 0.30
     Davidson diagonalization with overlap
     ethr =  2.37E-07,  avg # of iterations =  4.2

     total cpu time spent up to now is       85.1 secs

     total energy              =    -361.18555328 Ry
     estimated scf accuracy    <       0.00005271 Ry

     iteration # 11     ecut=    50.00 Ry     beta= 0.30
     Davidson diagonalization with overlap
     ethr =  1.46E-07,  avg # of iterations =  6.1

     total cpu time spent up to now is       93.2 secs

     total energy              =    -361.18557786 Ry
     estimated scf accuracy    <       0.00004105 Ry

     iteration # 12     ecut=    50.00 Ry     beta= 0.30
     Davidson diagonalization with overlap
     ethr =  1.14E-07,  avg # of iterations =  1.8

     total cpu time spent up to now is       98.0 secs

     total energy              =    -361.18556961 Ry
     estimated scf accuracy    <       0.00001837 Ry

     iteration # 13     ecut=    50.00 Ry     beta= 0.30
     Davidson diagonalization with overlap
     ethr =  5.10E-08,  avg # of iterations =  7.0

     total cpu time spent up to now is      105.8 secs

     total energy              =    -361.18557802 Ry
     estimated scf accuracy    <       0.00002285 Ry

     iteration # 14     ecut=    50.00 Ry     beta= 0.30
     Davidson diagonalization with overlap
     ethr =  5.10E-08,  avg # of iterations =  2.3

     total cpu time spent up to now is      110.9 secs

     total energy              =    -361.18557796 Ry
     estimated scf accuracy    <       0.00000848 Ry

     iteration # 15     ecut=    50.00 Ry     beta= 0.30
     Davidson diagonalization with overlap
     ethr =  2.36E-08,  avg # of iterations =  6.5

     total cpu time spent up to now is      117.5 secs

     total energy              =    -361.18558059 Ry
     estimated scf accuracy    <       0.00000009 Ry

     iteration # 16     ecut=    50.00 Ry     beta= 0.30
     Davidson diagonalization with overlap
     c_bands:  1 eigenvalues not converged
     ethr =  2.56E-10,  avg # of iterations =  9.4

     total cpu time spent up to now is      128.6 secs

     total energy              =    -361.18558084 Ry
     estimated scf accuracy    <       0.00000062 Ry

     iteration # 17     ecut=    50.00 Ry     beta= 0.30
     Davidson diagonalization with overlap
     ethr =  2.56E-10,  avg # of iterations =  2.3

     total cpu time spent up to now is      133.7 secs

     total energy              =    -361.18558063 Ry
     estimated scf accuracy    <       0.00000069 Ry

     iteration # 18     ecut=    50.00 Ry     beta= 0.30
     Davidson diagonalization with overlap
     ethr =  2.56E-10,  avg # of iterations =  7.9

     total cpu time spent up to now is      143.3 secs

     total energy              =    -361.18558067 Ry
     estimated scf accuracy    <       0.00000009 Ry

     iteration # 19     ecut=    50.00 Ry     beta= 0.30
     Davidson diagonalization with overlap
     ethr =  2.42E-10,  avg # of iterations =  4.6

     total cpu time spent up to now is      150.4 secs

     total energy              =    -361.18558069 Ry
     estimated scf accuracy    <       0.00000003 Ry

     iteration # 20     ecut=    50.00 Ry     beta= 0.30
     Davidson diagonalization with overlap
     ethr =  6.98E-11,  avg # of iterations =  4.8

     total cpu time spent up to now is      156.7 secs

     End of self-consistent calculation

     Number of k-points >= 100: set verbosity='high' to print the bands.

     highest occupied level (ev):     9.1363

!    total energy              =    -361.18558069 Ry
     estimated scf accuracy    <          5.2E-09 Ry

     The total energy is the sum of the following terms:
     one-electron contribution =    -174.63724490 Ry
     hartree contribution      =     128.35765520 Ry
     xc contribution           =    -109.80238340 Ry
     ewald contribution        =    -205.10360758 Ry

     convergence has been achieved in  20 iterations

     Forces acting on atoms (cartesian axes, Ry/au):

     atom    1 type  1   force =    -0.17620160   -0.11635400    0.07961461
     atom    2 type  1   force =     0.28947653    0.22469943   -0.16477196
     atom    3 type  2   force =    -0.28109597   -0.19855664    0.00388629
     atom    4 type  2   force =     0.16782104    0.09021121    0.08127106
     The non-local contrib.  to forces
     atom    1 type  1   force =    -0.52554762   -0.30915494   -0.93266517
     atom    2 type  1   force =     0.30809085    0.03635191    0.18647575
     atom    3 type  2   force =     0.46960754   -0.16828514    0.74702750
     atom    4 type  2   force =    -0.46364571   -0.18768367   -1.01632877
     The ionic contribution  to forces
     atom    1 type  1   force =    -3.42335368   -3.90106447   14.95994577
     atom    2 type  1   force =     3.93636322    2.92343450  -16.48104820
     atom    3 type  2   force =    -4.96172191   -1.04845836   -9.82021912
     atom    4 type  2   force =     4.44871237    2.02608833   11.34132155
     The local contribution  to forces
     atom    1 type  1   force =     3.73121914    4.06347070  -13.97725450
     atom    2 type  1   force =    -3.90268061   -2.71781625   16.11847479
     atom    3 type  2   force =     4.21369918    1.01577966    9.08347039
     atom    4 type  2   force =    -3.82029982   -1.74925737  -10.25208310
     The core correction contribution to forces
     atom    1 type  1   force =     0.04149481    0.03040027    0.02960354
     atom    2 type  1   force =    -0.05225885   -0.01726581    0.01143554
     atom    3 type  2   force =    -0.00268154    0.00240690   -0.00634260
     atom    4 type  2   force =     0.00304529    0.00106179    0.00828343
     The Hubbard contrib.    to forces
     atom    1 type  1   force =     0.00000000    0.00000000    0.00000000
     atom    2 type  1   force =     0.00000000    0.00000000    0.00000000
     atom    3 type  2   force =     0.00000000    0.00000000    0.00000000
     atom    4 type  2   force =     0.00000000    0.00000000    0.00000000
     The SCF correction term to forces
     atom    1 type  1   force =    -0.00001766   -0.00000660   -0.00002390
     atom    2 type  1   force =    -0.00004148   -0.00000597   -0.00011869
     atom    3 type  2   force =    -0.00000263   -0.00000074   -0.00005875
     atom    4 type  2   force =     0.00000550    0.00000109    0.00006909

     Total force =     0.611328     Total SCF correction =     0.000158

     Writing all to output data dir ./ZnO_ANN.save/

     init_run     :      3.33s CPU      3.43s WALL (       1 calls)
     electrons    :    150.26s CPU    152.82s WALL (       1 calls)
     forces       :      0.97s CPU      0.99s WALL (       1 calls)

     Called by init_run:
     wfcinit      :      2.49s CPU      2.55s WALL (       1 calls)
     potinit      :      0.24s CPU      0.24s WALL (       1 calls)
     hinit0       :      0.53s CPU      0.54s WALL (       1 calls)

     Called by electrons:
     c_bands      :    134.59s CPU    136.81s WALL (      20 calls)
     sum_band     :     14.21s CPU     14.52s WALL (      20 calls)
     v_of_rho     :      0.32s CPU      0.34s WALL (      21 calls)
     newd         :      1.12s CPU      1.14s WALL (      21 calls)
     mix_rho      :      0.05s CPU      0.05s WALL (      20 calls)

     Called by c_bands:
     init_us_2    :      0.87s CPU      0.88s WALL (    4704 calls)
     init_us_2:cp :      0.86s CPU      0.87s WALL (    4704 calls)
     cegterg      :    131.57s CPU    133.74s WALL (    2240 calls)

     Called by *egterg:
     cdiaghg      :     14.14s CPU     14.24s WALL (   13898 calls)
     h_psi        :     77.81s CPU     79.47s WALL (   14010 calls)
     s_psi        :      7.05s CPU      7.12s WALL (   14010 calls)
     g_psi        :      0.25s CPU      0.25s WALL (   11658 calls)

     Called by h_psi:
     h_psi:calbec :     10.06s CPU     10.37s WALL (   14010 calls)
     vloc_psi     :     60.46s CPU     61.73s WALL (   14010 calls)
     add_vuspsi   :      7.07s CPU      7.15s WALL (   14010 calls)

     General routines
     calbec       :     13.52s CPU     13.93s WALL (   16698 calls)
     fft          :      0.64s CPU      0.67s WALL (     282 calls)
     ffts         :      0.12s CPU      0.12s WALL (      41 calls)
     fftw         :     63.39s CPU     64.72s WALL (  311998 calls)
     interpolate  :      0.13s CPU      0.13s WALL (      21 calls)

     Parallel routines

     PWSCF        :   2m35.28s CPU   2m38.13s WALL


   This run was terminated on:  13: 6:43  23Jun2025            

=------------------------------------------------------------------------------=
   JOB DONE.
=------------------------------------------------------------------------------=
Note: The following floating-point exceptions are signalling: IEEE_INVALID_FLAG
