
     Program PWSCF v.7.2 starts on 23Jun2025 at 15:30:13 

     This program is part of the open-source Quantum ESPRESSO suite
     for quantum simulation of materials; please cite
         "P. Giannozzi et al., J. Phys.:Condens. Matter 21 395502 (2009);
         "P. Giannozzi et al., J. Phys.:Condens. Matter 29 465901 (2017);
         "P. Giannozzi et al., J. Chem. Phys. 152 154105 (2020);
          URL http://www.quantum-espresso.org", 
     in publications or presentations arising from this work. More details at
     http://www.quantum-espresso.org/quote

     Parallel version (MPI), running on     8 processors

     MPI processes distributed on     1 nodes
     90913 MiB available memory on the printing compute node when the environment starts

     Reading input from /home/jvc/QEspresso7.2/ZnO_DataBase/scfs_rnd025.in/scf-6.30-1.74-1.in

     Current dimensions of program PWSCF are:
     Max number of different atomic species (ntypx) = 10
     Max number of k-points (npk) =  40000
     Max angular momentum in pseudopotentials (lmaxx) =  4
     file Zn.upf: wavefunction(s)  3D renormalized

     R & G space division:  proc/nbgrp/npool/nimage =       8
     Subspace diagonalization in iterative solution of the eigenvalue problem:
     a serial algorithm will be used


     Parallelization info
     --------------------
     sticks:   dense  smooth     PW     G-vecs:    dense   smooth      PW
     Min         137      68     20                 6382     2252     376
     Max         138      69     21                 6385     2257     383
     Sum        1099     547    163                51075    18031    3033

     Using Slab Decomposition



     bravais-lattice index     =            4
     lattice parameter (alat)  =       6.3024  a.u.
     unit-cell volume          =     377.9826 (a.u.)^3
     number of atoms/cell      =            4
     number of atomic types    =            2
     number of electrons       =        36.00
     number of Kohn-Sham states=           18
     kinetic-energy cutoff     =      50.0000  Ry
     charge density cutoff     =     400.0000  Ry
     scf convergence threshold =      1.0E-08
     mixing beta               =       0.3000
     number of iterations used =            8  plain     mixing
     Exchange-correlation= PBE
                           (   1   4   3   4   0   0   0)

     celldm(1)=   6.302398  celldm(2)=   0.000000  celldm(3)=   1.743507
     celldm(4)=   0.000000  celldm(5)=   0.000000  celldm(6)=   0.000000

     crystal axes: (cart. coord. in units of alat)
               a(1) = (   1.000000   0.000000   0.000000 )  
               a(2) = (  -0.500000   0.866025   0.000000 )  
               a(3) = (   0.000000   0.000000   1.743507 )  

     reciprocal axes: (cart. coord. in units 2 pi/alat)
               b(1) = (  1.000000  0.577350 -0.000000 )  
               b(2) = (  0.000000  1.154701  0.000000 )  
               b(3) = (  0.000000 -0.000000  0.573557 )  


     PseudoPot. # 1 for Zn read from file:
     ./pseudos/Zn.upf
     MD5 check sum: 7f56cabf9682ed8c977c2f7d0c5985c5
     Pseudo is Ultrasoft + core correction, Zval = 12.0
     Generated using &quot;atomic&quot; code by A. Dal Corso  v.6.2.2
     Using radial grid of 1201 points,  6 beta functions with: 
                l(1) =   0
                l(2) =   0
                l(3) =   1
                l(4) =   1
                l(5) =   2
                l(6) =   2
     Q(r) pseudized with 0 coefficients 


     PseudoPot. # 2 for O  read from file:
     ./pseudos/O.upf
     MD5 check sum: 91400c9766925bcf19f520983a725ff0
     Pseudo is Ultrasoft + core correction, Zval =  6.0
     Generated using &quot;atomic&quot; code by A. Dal Corso  v.6.3MaX
     Using radial grid of 1095 points,  4 beta functions with: 
                l(1) =   0
                l(2) =   0
                l(3) =   1
                l(4) =   1
     Q(r) pseudized with 0 coefficients 


     atomic species   valence    mass     pseudopotential
        Zn            12.00    63.38000     Zn( 1.00)
        O              6.00    15.99900     O ( 1.00)

     No symmetry found



   Cartesian axes

     site n.     atom                  positions (alat units)
         1           Zn  tau(   1) = (   0.3254670   0.3594255   0.8189481  )
         2           Zn  tau(   2) = (   0.2497595   0.3744791  -0.0982533  )
         3           O   tau(   3) = (   0.8125793   0.0960428   1.4564144  )
         4           O   tau(   4) = (  -0.0534411   0.4767799   0.4655915  )

     number of k points=   112

     Number of k-points >= 100: set verbosity='high' to print them.

     Dense  grid:    51075 G-vectors     FFT dimensions: (  45,  45,  72)

     Smooth grid:    18031 G-vectors     FFT dimensions: (  30,  30,  50)

     Estimated max dynamical RAM per process >      34.82 MB

     Estimated total dynamical RAM >     278.57 MB

     Check: negative core charge=   -0.000002

     Initial potential from superposition of free atoms

     starting charge      35.9925, renormalised to      36.0000
     Starting wfcs are   26 randomized atomic wfcs

     total cpu time spent up to now is        4.4 secs

     Self-consistent Calculation

     iteration #  1     ecut=    50.00 Ry     beta= 0.30
     Davidson diagonalization with overlap
     ethr =  1.00E-02,  avg # of iterations =  1.8

     total cpu time spent up to now is       10.0 secs

     total energy              =    -361.20736253 Ry
     estimated scf accuracy    <       0.96118388 Ry

     iteration #  2     ecut=    50.00 Ry     beta= 0.30
     Davidson diagonalization with overlap
     ethr =  2.67E-03,  avg # of iterations =  2.2

     total cpu time spent up to now is       16.8 secs

     total energy              =    -361.36456038 Ry
     estimated scf accuracy    <       0.09335934 Ry

     iteration #  3     ecut=    50.00 Ry     beta= 0.30
     Davidson diagonalization with overlap
     c_bands:  2 eigenvalues not converged
     ethr =  2.59E-04,  avg # of iterations =  7.6

     total cpu time spent up to now is       29.6 secs

     total energy              =    -361.41062730 Ry
     estimated scf accuracy    <       0.17094310 Ry

     iteration #  4     ecut=    50.00 Ry     beta= 0.30
     Davidson diagonalization with overlap
     ethr =  2.59E-04,  avg # of iterations =  5.0

     total cpu time spent up to now is       38.4 secs

     total energy              =    -361.45194537 Ry
     estimated scf accuracy    <       0.00835864 Ry

     iteration #  5     ecut=    50.00 Ry     beta= 0.30
     Davidson diagonalization with overlap
     ethr =  2.32E-05,  avg # of iterations =  8.4

     total cpu time spent up to now is       53.5 secs

     total energy              =    -361.45260701 Ry
     estimated scf accuracy    <       0.08640593 Ry

     iteration #  6     ecut=    50.00 Ry     beta= 0.30
     Davidson diagonalization with overlap
     ethr =  2.32E-05,  avg # of iterations =  4.2

     total cpu time spent up to now is       60.8 secs

     total energy              =    -361.43038127 Ry
     estimated scf accuracy    <       0.04359549 Ry

     iteration #  7     ecut=    50.00 Ry     beta= 0.30
     Davidson diagonalization with overlap
     ethr =  2.32E-05,  avg # of iterations =  9.8

     total cpu time spent up to now is       77.6 secs

     total energy              =    -361.44663287 Ry
     estimated scf accuracy    <       0.02473248 Ry

     iteration #  8     ecut=    50.00 Ry     beta= 0.30
     Davidson diagonalization with overlap
     ethr =  2.32E-05,  avg # of iterations =  5.1

     total cpu time spent up to now is       85.7 secs

     total energy              =    -361.44784968 Ry
     estimated scf accuracy    <       0.00287095 Ry

     iteration #  9     ecut=    50.00 Ry     beta= 0.30
     Davidson diagonalization with overlap
     ethr =  7.97E-06,  avg # of iterations =  5.7

     total cpu time spent up to now is       94.3 secs

     total energy              =    -361.44938533 Ry
     estimated scf accuracy    <       0.00010595 Ry

     iteration # 10     ecut=    50.00 Ry     beta= 0.30
     Davidson diagonalization with overlap
     ethr =  2.94E-07,  avg # of iterations =  8.6

     total cpu time spent up to now is      107.3 secs

     total energy              =    -361.44931621 Ry
     estimated scf accuracy    <       0.00074287 Ry

     iteration # 11     ecut=    50.00 Ry     beta= 0.30
     Davidson diagonalization with overlap
     ethr =  2.94E-07,  avg # of iterations =  5.4

     total cpu time spent up to now is      117.6 secs

     total energy              =    -361.44940322 Ry
     estimated scf accuracy    <       0.00002651 Ry

     iteration # 12     ecut=    50.00 Ry     beta= 0.30
     Davidson diagonalization with overlap
     ethr =  7.36E-08,  avg # of iterations =  4.7

     total cpu time spent up to now is      124.6 secs

     total energy              =    -361.44940819 Ry
     estimated scf accuracy    <       0.00000465 Ry

     iteration # 13     ecut=    50.00 Ry     beta= 0.30
     Davidson diagonalization with overlap
     c_bands:  3 eigenvalues not converged
     ethr =  1.29E-08,  avg # of iterations =  5.0

     total cpu time spent up to now is      132.8 secs

     total energy              =    -361.44940969 Ry
     estimated scf accuracy    <       0.00000074 Ry

     iteration # 14     ecut=    50.00 Ry     beta= 0.30
     Davidson diagonalization with overlap
     c_bands:  1 eigenvalues not converged
     ethr =  2.06E-09,  avg # of iterations =  6.8

     total cpu time spent up to now is      142.9 secs

     total energy              =    -361.44941071 Ry
     estimated scf accuracy    <       0.00000068 Ry

     iteration # 15     ecut=    50.00 Ry     beta= 0.30
     Davidson diagonalization with overlap
     ethr =  1.89E-09,  avg # of iterations =  4.8

     total cpu time spent up to now is      150.3 secs

     total energy              =    -361.44941023 Ry
     estimated scf accuracy    <       0.00000217 Ry

     iteration # 16     ecut=    50.00 Ry     beta= 0.30
     Davidson diagonalization with overlap
     ethr =  1.89E-09,  avg # of iterations =  2.9

     total cpu time spent up to now is      156.6 secs

     total energy              =    -361.44940973 Ry
     estimated scf accuracy    <       0.00000098 Ry

     iteration # 17     ecut=    50.00 Ry     beta= 0.30
     Davidson diagonalization with overlap
     ethr =  1.89E-09,  avg # of iterations =  6.4

     total cpu time spent up to now is      167.8 secs

     total energy              =    -361.44941034 Ry
     estimated scf accuracy    <       0.00000081 Ry

     iteration # 18     ecut=    50.00 Ry     beta= 0.30
     Davidson diagonalization with overlap
     ethr =  1.89E-09,  avg # of iterations =  1.0

     total cpu time spent up to now is      173.1 secs

     total energy              =    -361.44941022 Ry
     estimated scf accuracy    <       0.00000062 Ry

     iteration # 19     ecut=    50.00 Ry     beta= 0.30
     Davidson diagonalization with overlap
     ethr =  1.73E-09,  avg # of iterations =  1.9

     total cpu time spent up to now is      178.8 secs

     total energy              =    -361.44941022 Ry
     estimated scf accuracy    <       0.00000027 Ry

     iteration # 20     ecut=    50.00 Ry     beta= 0.30
     Davidson diagonalization with overlap
     ethr =  7.61E-10,  avg # of iterations =  2.0

     total cpu time spent up to now is      184.7 secs

     total energy              =    -361.44941019 Ry
     estimated scf accuracy    <       0.00000018 Ry

     iteration # 21     ecut=    50.00 Ry     beta= 0.30
     Davidson diagonalization with overlap
     ethr =  4.97E-10,  avg # of iterations =  5.2

     total cpu time spent up to now is      192.2 secs

     total energy              =    -361.44941023 Ry
     estimated scf accuracy    <       0.00000002 Ry

     iteration # 22     ecut=    50.00 Ry     beta= 0.30
     Davidson diagonalization with overlap
     c_bands:  1 eigenvalues not converged
     ethr =  4.48E-11,  avg # of iterations =  6.3

     total cpu time spent up to now is      202.2 secs

     End of self-consistent calculation

     Number of k-points >= 100: set verbosity='high' to print the bands.

     highest occupied level (ev):     5.2401

!    total energy              =    -361.44941024 Ry
     estimated scf accuracy    <          7.5E-09 Ry

     The total energy is the sum of the following terms:
     one-electron contribution =    -169.07987437 Ry
     hartree contribution      =     123.02025514 Ry
     xc contribution           =    -109.19689671 Ry
     ewald contribution        =    -206.19289430 Ry

     convergence has been achieved in  22 iterations

     Forces acting on atoms (cartesian axes, Ry/au):

     atom    1 type  1   force =     0.08056039   -0.02220380    0.00898193
     atom    2 type  1   force =     0.04211162    0.03715426    0.03716118
     atom    3 type  2   force =    -0.06872133   -0.03670516   -0.04797129
     atom    4 type  2   force =    -0.05395068    0.02175469    0.00182817
     The non-local contrib.  to forces
     atom    1 type  1   force =     0.59437961   -0.21187865    0.77592942
     atom    2 type  1   force =     0.40869170    0.04704602    0.18570267
     atom    3 type  2   force =     0.17140707    0.04466539    0.24189214
     atom    4 type  2   force =     0.62666850   -0.22050911    0.58097459
     The ionic contribution  to forces
     atom    1 type  1   force =     3.92532795   -1.38356639    3.33965396
     atom    2 type  1   force =     3.07146933    0.36177884    2.53824368
     atom    3 type  2   force =    -2.05101057   -0.97100546   -4.13819727
     atom    4 type  2   force =    -4.94578671    1.99279301   -1.73970037
     The local contribution  to forces
     atom    1 type  1   force =    -4.40283229    1.56007968   -4.06193705
     atom    2 type  1   force =    -3.40910403   -0.36680981   -2.66947271
     atom    3 type  2   force =     1.81194647    0.88978201    3.84999511
     atom    4 type  2   force =     4.27026194   -1.75231328    1.16574364
     The core correction contribution to forces
     atom    1 type  1   force =    -0.03628123    0.01314752   -0.04445780
     atom    2 type  1   force =    -0.02893446   -0.00486345   -0.01750480
     atom    3 type  2   force =    -0.00106572   -0.00014843   -0.00172568
     atom    4 type  2   force =    -0.00509818    0.00178424   -0.00515341
     The Hubbard contrib.    to forces
     atom    1 type  1   force =     0.00000000    0.00000000    0.00000000
     atom    2 type  1   force =     0.00000000    0.00000000    0.00000000
     atom    3 type  2   force =     0.00000000    0.00000000    0.00000000
     atom    4 type  2   force =     0.00000000    0.00000000    0.00000000
     The SCF correction term to forces
     atom    1 type  1   force =    -0.00003755    0.00001518   -0.00020452
     atom    2 type  1   force =    -0.00001483    0.00000380    0.00019441
     atom    3 type  2   force =    -0.00000250    0.00000247    0.00006649
     atom    4 type  2   force =    -0.00000013    0.00000096   -0.00003421

     Total force =     0.152830     Total SCF correction =     0.000295

     Writing all to output data dir ./ZnO_ANN.save/

     init_run     :      3.82s CPU      3.92s WALL (       1 calls)
     electrons    :    194.41s CPU    197.83s WALL (       1 calls)
     forces       :      1.19s CPU      1.20s WALL (       1 calls)

     Called by init_run:
     wfcinit      :      2.93s CPU      2.99s WALL (       1 calls)
     potinit      :      0.28s CPU      0.28s WALL (       1 calls)
     hinit0       :      0.52s CPU      0.53s WALL (       1 calls)

     Called by electrons:
     c_bands      :    174.19s CPU    177.18s WALL (      22 calls)
     sum_band     :     18.23s CPU     18.61s WALL (      22 calls)
     v_of_rho     :      0.44s CPU      0.47s WALL (      23 calls)
     newd         :      1.52s CPU      1.54s WALL (      23 calls)
     mix_rho      :      0.07s CPU      0.07s WALL (      22 calls)

     Called by c_bands:
     init_us_2    :      1.40s CPU      1.42s WALL (    5152 calls)
     init_us_2:cp :      1.38s CPU      1.40s WALL (    5152 calls)
     cegterg      :    169.97s CPU    172.89s WALL (    2464 calls)

     Called by *egterg:
     cdiaghg      :     17.06s CPU     17.16s WALL (   14891 calls)
     h_psi        :    102.09s CPU    104.36s WALL (   15003 calls)
     s_psi        :     13.16s CPU     13.24s WALL (   15003 calls)
     g_psi        :      0.35s CPU      0.36s WALL (   12427 calls)

     Called by h_psi:
     h_psi:calbec :     13.48s CPU     13.93s WALL (   15003 calls)
     vloc_psi     :     75.08s CPU     76.79s WALL (   15003 calls)
     add_vuspsi   :     13.17s CPU     13.30s WALL (   15003 calls)

     General routines
     calbec       :     18.04s CPU     18.60s WALL (   17915 calls)
     fft          :      0.55s CPU      0.59s WALL (     308 calls)
     ffts         :      0.12s CPU      0.12s WALL (      45 calls)
     fftw         :     74.93s CPU     76.64s WALL (  343644 calls)
     interpolate  :      0.14s CPU      0.14s WALL (      23 calls)

     Parallel routines

     PWSCF        :   3m20.16s CPU   3m23.99s WALL


   This run was terminated on:  15:33:37  23Jun2025            

=------------------------------------------------------------------------------=
   JOB DONE.
=------------------------------------------------------------------------------=
Note: The following floating-point exceptions are signalling: IEEE_INVALID_FLAG
