
     Program PWSCF v.7.2 starts on 23Jun2025 at 15: 4:56 

     This program is part of the open-source Quantum ESPRESSO suite
     for quantum simulation of materials; please cite
         "P. Giannozzi et al., J. Phys.:Condens. Matter 21 395502 (2009);
         "P. Giannozzi et al., J. Phys.:Condens. Matter 29 465901 (2017);
         "P. Giannozzi et al., J. Chem. Phys. 152 154105 (2020);
          URL http://www.quantum-espresso.org", 
     in publications or presentations arising from this work. More details at
     http://www.quantum-espresso.org/quote

     Parallel version (MPI), running on     8 processors

     MPI processes distributed on     1 nodes
     91052 MiB available memory on the printing compute node when the environment starts

     Reading input from /home/jvc/QEspresso7.2/ZnO_DataBase/scfs_rnd025.in/scf-6.30-1.49-5.in

     Current dimensions of program PWSCF are:
     Max number of different atomic species (ntypx) = 10
     Max number of k-points (npk) =  40000
     Max angular momentum in pseudopotentials (lmaxx) =  4
     file Zn.upf: wavefunction(s)  3D renormalized

     R & G space division:  proc/nbgrp/npool/nimage =       8
     Subspace diagonalization in iterative solution of the eigenvalue problem:
     a serial algorithm will be used


     Parallelization info
     --------------------
     sticks:   dense  smooth     PW     G-vecs:    dense   smooth      PW
     Min         137      68     20                 5424     1924     322
     Max         138      69     21                 5425     1929     329
     Sum        1099     547    163                43397    15409    2597

     Using Slab Decomposition



     bravais-lattice index     =            4
     lattice parameter (alat)  =       6.3024  a.u.
     unit-cell volume          =     321.9852 (a.u.)^3
     number of atoms/cell      =            4
     number of atomic types    =            2
     number of electrons       =        36.00
     number of Kohn-Sham states=           18
     kinetic-energy cutoff     =      50.0000  Ry
     charge density cutoff     =     400.0000  Ry
     scf convergence threshold =      1.0E-08
     mixing beta               =       0.3000
     number of iterations used =            8  plain     mixing
     Exchange-correlation= PBE
                           (   1   4   3   4   0   0   0)

     celldm(1)=   6.302398  celldm(2)=   0.000000  celldm(3)=   1.485210
     celldm(4)=   0.000000  celldm(5)=   0.000000  celldm(6)=   0.000000

     crystal axes: (cart. coord. in units of alat)
               a(1) = (   1.000000   0.000000   0.000000 )  
               a(2) = (  -0.500000   0.866025   0.000000 )  
               a(3) = (   0.000000   0.000000   1.485210 )  

     reciprocal axes: (cart. coord. in units 2 pi/alat)
               b(1) = (  1.000000  0.577350 -0.000000 )  
               b(2) = (  0.000000  1.154701  0.000000 )  
               b(3) = (  0.000000 -0.000000  0.673306 )  


     PseudoPot. # 1 for Zn read from file:
     ./pseudos/Zn.upf
     MD5 check sum: 7f56cabf9682ed8c977c2f7d0c5985c5
     Pseudo is Ultrasoft + core correction, Zval = 12.0
     Generated using &quot;atomic&quot; code by A. Dal Corso  v.6.2.2
     Using radial grid of 1201 points,  6 beta functions with: 
                l(1) =   0
                l(2) =   0
                l(3) =   1
                l(4) =   1
                l(5) =   2
                l(6) =   2
     Q(r) pseudized with 0 coefficients 


     PseudoPot. # 2 for O  read from file:
     ./pseudos/O.upf
     MD5 check sum: 91400c9766925bcf19f520983a725ff0
     Pseudo is Ultrasoft + core correction, Zval =  6.0
     Generated using &quot;atomic&quot; code by A. Dal Corso  v.6.3MaX
     Using radial grid of 1095 points,  4 beta functions with: 
                l(1) =   0
                l(2) =   0
                l(3) =   1
                l(4) =   1
     Q(r) pseudized with 0 coefficients 


     atomic species   valence    mass     pseudopotential
        Zn            12.00    63.38000     Zn( 1.00)
        O              6.00    15.99900     O ( 1.00)

     No symmetry found



   Cartesian axes

     site n.     atom                  positions (alat units)
         1           Zn  tau(   1) = (   0.4832902   0.4458642   0.5562679  )
         2           Zn  tau(   2) = (  -0.0529157   0.7628563   0.2013403  )
         3           O   tau(   3) = (   0.3881987   0.4147034   1.0046475  )
         4           O   tau(   4) = (  -0.1940383   0.7632260   0.9063645  )

     number of k points=   112

     Number of k-points >= 100: set verbosity='high' to print them.

     Dense  grid:    43397 G-vectors     FFT dimensions: (  45,  45,  60)

     Smooth grid:    15409 G-vectors     FFT dimensions: (  30,  30,  45)

     Estimated max dynamical RAM per process >      30.13 MB

     Estimated total dynamical RAM >     241.07 MB

     Check: negative core charge=   -0.000002

     Initial potential from superposition of free atoms

     starting charge      35.9925, renormalised to      36.0000
     Starting wfcs are   26 randomized atomic wfcs

     total cpu time spent up to now is        3.9 secs

     Self-consistent Calculation

     iteration #  1     ecut=    50.00 Ry     beta= 0.30
     Davidson diagonalization with overlap
     ethr =  1.00E-02,  avg # of iterations =  2.0

     total cpu time spent up to now is        9.1 secs

     total energy              =    -360.67158302 Ry
     estimated scf accuracy    <       0.54015282 Ry

     iteration #  2     ecut=    50.00 Ry     beta= 0.30
     Davidson diagonalization with overlap
     ethr =  1.50E-03,  avg # of iterations =  5.6

     total cpu time spent up to now is       16.3 secs

     total energy              =    -360.87125496 Ry
     estimated scf accuracy    <       0.05239765 Ry

     iteration #  3     ecut=    50.00 Ry     beta= 0.30
     Davidson diagonalization with overlap
     c_bands:  1 eigenvalues not converged
     ethr =  1.46E-04,  avg # of iterations =  6.5

     total cpu time spent up to now is       24.7 secs

     total energy              =    -360.87593192 Ry
     estimated scf accuracy    <       0.04010731 Ry

     iteration #  4     ecut=    50.00 Ry     beta= 0.30
     Davidson diagonalization with overlap
     ethr =  1.11E-04,  avg # of iterations =  5.4

     total cpu time spent up to now is       31.6 secs

     total energy              =    -360.88763247 Ry
     estimated scf accuracy    <       0.01528380 Ry

     iteration #  5     ecut=    50.00 Ry     beta= 0.30
     Davidson diagonalization with overlap
     ethr =  4.25E-05,  avg # of iterations =  2.3

     total cpu time spent up to now is       37.1 secs

     total energy              =    -360.88449889 Ry
     estimated scf accuracy    <       0.00964055 Ry

     iteration #  6     ecut=    50.00 Ry     beta= 0.30
     Davidson diagonalization with overlap
     ethr =  2.68E-05,  avg # of iterations =  6.1

     total cpu time spent up to now is       44.2 secs

     total energy              =    -360.88802337 Ry
     estimated scf accuracy    <       0.00105499 Ry

     iteration #  7     ecut=    50.00 Ry     beta= 0.30
     Davidson diagonalization with overlap
     c_bands:  1 eigenvalues not converged
     ethr =  2.93E-06,  avg # of iterations =  7.6

     total cpu time spent up to now is       52.7 secs

     total energy              =    -360.88763065 Ry
     estimated scf accuracy    <       0.00143453 Ry

     iteration #  8     ecut=    50.00 Ry     beta= 0.30
     Davidson diagonalization with overlap
     c_bands:  1 eigenvalues not converged
     c_bands:  1 eigenvalues not converged
     c_bands:  1 eigenvalues not converged
     c_bands:  1 eigenvalues not converged
     c_bands:  1 eigenvalues not converged
     ethr =  2.93E-06,  avg # of iterations = 10.0

     total cpu time spent up to now is       63.3 secs

     total energy              =    -360.88827839 Ry
     estimated scf accuracy    <       0.00300840 Ry

     iteration #  9     ecut=    50.00 Ry     beta= 0.30
     Davidson diagonalization with overlap
     ethr =  2.93E-06,  avg # of iterations =  3.2

     total cpu time spent up to now is       68.7 secs

     total energy              =    -360.88769379 Ry
     estimated scf accuracy    <       0.00112354 Ry

     iteration # 10     ecut=    50.00 Ry     beta= 0.30
     Davidson diagonalization with overlap
     c_bands:  1 eigenvalues not converged
     c_bands:  1 eigenvalues not converged
     c_bands:  1 eigenvalues not converged
     c_bands:  2 eigenvalues not converged
     ethr =  2.93E-06,  avg # of iterations = 10.2

     total cpu time spent up to now is       79.1 secs

     total energy              =    -360.88859796 Ry
     estimated scf accuracy    <       0.00263053 Ry

     iteration # 11     ecut=    50.00 Ry     beta= 0.30
     Davidson diagonalization with overlap
     ethr =  2.93E-06,  avg # of iterations =  1.1

     total cpu time spent up to now is       83.8 secs

     total energy              =    -360.88845147 Ry
     estimated scf accuracy    <       0.00205938 Ry

     iteration # 12     ecut=    50.00 Ry     beta= 0.30
     Davidson diagonalization with overlap
     ethr =  2.93E-06,  avg # of iterations =  1.7

     total cpu time spent up to now is       88.9 secs

     total energy              =    -360.88845720 Ry
     estimated scf accuracy    <       0.00143509 Ry

     iteration # 13     ecut=    50.00 Ry     beta= 0.30
     Davidson diagonalization with overlap
     ethr =  2.93E-06,  avg # of iterations =  1.4

     total cpu time spent up to now is       93.8 secs

     total energy              =    -360.88806611 Ry
     estimated scf accuracy    <       0.00123447 Ry

     iteration # 14     ecut=    50.00 Ry     beta= 0.30
     Davidson diagonalization with overlap
     ethr =  2.93E-06,  avg # of iterations =  4.3

     total cpu time spent up to now is       99.9 secs

     total energy              =    -360.88831032 Ry
     estimated scf accuracy    <       0.00002724 Ry

     iteration # 15     ecut=    50.00 Ry     beta= 0.30
     Davidson diagonalization with overlap
     c_bands:  1 eigenvalues not converged
     c_bands:  1 eigenvalues not converged
     c_bands:  1 eigenvalues not converged
     c_bands:  1 eigenvalues not converged
     c_bands:  1 eigenvalues not converged
     c_bands:  1 eigenvalues not converged
     c_bands:  3 eigenvalues not converged
     c_bands:  2 eigenvalues not converged
     c_bands:  1 eigenvalues not converged
     c_bands:  1 eigenvalues not converged
     c_bands:  2 eigenvalues not converged
     c_bands:  1 eigenvalues not converged
     c_bands:  1 eigenvalues not converged
     c_bands:  1 eigenvalues not converged
     c_bands:  1 eigenvalues not converged
     c_bands:  1 eigenvalues not converged
     c_bands:  2 eigenvalues not converged
     c_bands:  1 eigenvalues not converged
     c_bands:  1 eigenvalues not converged
     c_bands:  1 eigenvalues not converged
     c_bands:  1 eigenvalues not converged
     c_bands:  1 eigenvalues not converged
     c_bands:  1 eigenvalues not converged
     ethr =  7.57E-08,  avg # of iterations = 16.6

     total cpu time spent up to now is      119.8 secs

     total energy              =    -360.88867613 Ry
     estimated scf accuracy    <       0.00091690 Ry

     iteration # 16     ecut=    50.00 Ry     beta= 0.30
     Davidson diagonalization with overlap
     c_bands:  1 eigenvalues not converged
     c_bands:  1 eigenvalues not converged
     c_bands:  1 eigenvalues not converged
     c_bands:  1 eigenvalues not converged
     c_bands:  1 eigenvalues not converged
     c_bands:  1 eigenvalues not converged
     c_bands:  1 eigenvalues not converged
     c_bands:  1 eigenvalues not converged
     c_bands:  1 eigenvalues not converged
     c_bands:  1 eigenvalues not converged
     c_bands:  1 eigenvalues not converged
     c_bands:  1 eigenvalues not converged
     ethr =  7.57E-08,  avg # of iterations =  9.6

     total cpu time spent up to now is      128.9 secs

     total energy              =    -360.88850322 Ry
     estimated scf accuracy    <       0.00168793 Ry

     iteration # 17     ecut=    50.00 Ry     beta= 0.30
     Davidson diagonalization with overlap
     c_bands:  1 eigenvalues not converged
     ethr =  7.57E-08,  avg # of iterations =  8.5

     total cpu time spent up to now is      138.2 secs

     total energy              =    -360.88834371 Ry
     estimated scf accuracy    <       0.00086282 Ry

     iteration # 18     ecut=    50.00 Ry     beta= 0.30
     Davidson diagonalization with overlap
     c_bands:  1 eigenvalues not converged
     c_bands:  1 eigenvalues not converged
     c_bands:  1 eigenvalues not converged
     c_bands:  1 eigenvalues not converged
     c_bands:  1 eigenvalues not converged
     c_bands:  1 eigenvalues not converged
     c_bands:  1 eigenvalues not converged
     c_bands:  1 eigenvalues not converged
     c_bands:  1 eigenvalues not converged
     c_bands:  1 eigenvalues not converged
     c_bands:  1 eigenvalues not converged
     c_bands:  1 eigenvalues not converged
     c_bands:  1 eigenvalues not converged
     c_bands:  1 eigenvalues not converged
     c_bands:  1 eigenvalues not converged
     ethr =  7.57E-08,  avg # of iterations = 13.6

     total cpu time spent up to now is      151.9 secs

     total energy              =    -360.88837235 Ry
     estimated scf accuracy    <       0.00008269 Ry

     iteration # 19     ecut=    50.00 Ry     beta= 0.30
     Davidson diagonalization with overlap
     c_bands:  1 eigenvalues not converged
     c_bands:  1 eigenvalues not converged
     c_bands:  1 eigenvalues not converged
     c_bands:  1 eigenvalues not converged
     c_bands:  1 eigenvalues not converged
     ethr =  7.57E-08,  avg # of iterations = 10.2

     total cpu time spent up to now is      162.1 secs

     total energy              =    -360.88840656 Ry
     estimated scf accuracy    <       0.00003430 Ry

     iteration # 20     ecut=    50.00 Ry     beta= 0.30
     Davidson diagonalization with overlap
     ethr =  7.57E-08,  avg # of iterations =  1.3

     total cpu time spent up to now is      166.7 secs

     total energy              =    -360.88840293 Ry
     estimated scf accuracy    <       0.00003219 Ry

     iteration # 21     ecut=    50.00 Ry     beta= 0.30
     Davidson diagonalization with overlap
     ethr =  7.57E-08,  avg # of iterations =  1.1

     total cpu time spent up to now is      171.3 secs

     total energy              =    -360.88839547 Ry
     estimated scf accuracy    <       0.00002380 Ry

     iteration # 22     ecut=    50.00 Ry     beta= 0.30
     Davidson diagonalization with overlap
     ethr =  6.61E-08,  avg # of iterations =  4.1

     total cpu time spent up to now is      177.0 secs

     total energy              =    -360.88840043 Ry
     estimated scf accuracy    <       0.00000157 Ry

     iteration # 23     ecut=    50.00 Ry     beta= 0.30
     Davidson diagonalization with overlap
     ethr =  4.35E-09,  avg # of iterations =  8.2

     total cpu time spent up to now is      185.6 secs

     total energy              =    -360.88840144 Ry
     estimated scf accuracy    <       0.00000259 Ry

     iteration # 24     ecut=    50.00 Ry     beta= 0.30
     Davidson diagonalization with overlap
     ethr =  4.35E-09,  avg # of iterations =  1.1

     total cpu time spent up to now is      190.2 secs

     total energy              =    -360.88840064 Ry
     estimated scf accuracy    <       0.00000249 Ry

     iteration # 25     ecut=    50.00 Ry     beta= 0.30
     Davidson diagonalization with overlap
     ethr =  4.35E-09,  avg # of iterations =  5.9

     total cpu time spent up to now is      197.0 secs

     total energy              =    -360.88840108 Ry
     estimated scf accuracy    <       0.00000016 Ry

     iteration # 26     ecut=    50.00 Ry     beta= 0.30
     Davidson diagonalization with overlap
     ethr =  4.55E-10,  avg # of iterations =  7.4

     total cpu time spent up to now is      205.1 secs

     total energy              =    -360.88840115 Ry
     estimated scf accuracy    <       0.00000008 Ry

     iteration # 27     ecut=    50.00 Ry     beta= 0.30
     Davidson diagonalization with overlap
     ethr =  2.22E-10,  avg # of iterations =  4.4

     total cpu time spent up to now is      211.1 secs

     total energy              =    -360.88840115 Ry
     estimated scf accuracy    <       0.00000003 Ry

     iteration # 28     ecut=    50.00 Ry     beta= 0.30
     Davidson diagonalization with overlap
     c_bands:  1 eigenvalues not converged
     c_bands:  1 eigenvalues not converged
     c_bands:  1 eigenvalues not converged
     c_bands:  1 eigenvalues not converged
     c_bands:  1 eigenvalues not converged
     c_bands:  1 eigenvalues not converged
     c_bands:  1 eigenvalues not converged
     c_bands:  1 eigenvalues not converged
     c_bands:  1 eigenvalues not converged
     c_bands:  1 eigenvalues not converged
     c_bands:  1 eigenvalues not converged
     c_bands:  1 eigenvalues not converged
     ethr =  8.41E-11,  avg # of iterations = 10.3

     total cpu time spent up to now is      221.0 secs

     total energy              =    -360.88840118 Ry
     estimated scf accuracy    <       0.00000006 Ry

     iteration # 29     ecut=    50.00 Ry     beta= 0.30
     Davidson diagonalization with overlap
     ethr =  8.41E-11,  avg # of iterations =  1.4

     total cpu time spent up to now is      225.6 secs

     total energy              =    -360.88840117 Ry
     estimated scf accuracy    <       0.00000005 Ry

     iteration # 30     ecut=    50.00 Ry     beta= 0.30
     Davidson diagonalization with overlap
     ethr =  8.41E-11,  avg # of iterations =  3.4

     total cpu time spent up to now is      231.0 secs

     total energy              =    -360.88840117 Ry
     estimated scf accuracy    <       0.00000002 Ry

     iteration # 31     ecut=    50.00 Ry     beta= 0.30
     Davidson diagonalization with overlap
     c_bands:  1 eigenvalues not converged
     ethr =  4.17E-11,  avg # of iterations =  7.3

     total cpu time spent up to now is      238.7 secs

     End of self-consistent calculation

     Number of k-points >= 100: set verbosity='high' to print the bands.

     highest occupied level (ev):     8.7516

!    total energy              =    -360.88840117 Ry
     estimated scf accuracy    <          4.2E-09 Ry

     The total energy is the sum of the following terms:
     one-electron contribution =    -173.71274377 Ry
     hartree contribution      =     126.87540493 Ry
     xc contribution           =    -109.29994630 Ry
     ewald contribution        =    -204.75111603 Ry

     convergence has been achieved in  31 iterations

     Forces acting on atoms (cartesian axes, Ry/au):

     atom    1 type  1   force =     0.05664679    0.04313261   -0.41265921
     atom    2 type  1   force =     0.02423987   -0.02500906   -0.15016090
     atom    3 type  2   force =    -0.07005796   -0.08878102    0.48426643
     atom    4 type  2   force =    -0.01082870    0.07065747    0.07855368
     The non-local contrib.  to forces
     atom    1 type  1   force =     0.15709577   -0.00104297   -0.60155356
     atom    2 type  1   force =     0.00192572   -0.05179688   -0.25309098
     atom    3 type  2   force =     0.36583409   -0.33043447   -0.93396325
     atom    4 type  2   force =    -0.30682729    0.15832784   -0.34771767
     The ionic contribution  to forces
     atom    1 type  1   force =    -0.30119104    0.36520536   -8.02755480
     atom    2 type  1   force =     1.43141059   -0.92389497  -17.93944637
     atom    3 type  2   force =    -3.16275467    0.26759274   16.70634902
     atom    4 type  2   force =     2.03253512    0.29109687    9.26065215
     The local contribution  to forces
     atom    1 type  1   force =     0.20988841   -0.32068843    8.11944984
     atom    2 type  1   force =    -1.40550144    0.94729478   18.01823097
     atom    3 type  2   force =     2.72937173   -0.02960766  -15.29278944
     atom    4 type  2   force =    -1.73878673   -0.37704551   -8.83663281
     The core correction contribution to forces
     atom    1 type  1   force =    -0.00914075   -0.00034900    0.09677162
     atom    2 type  1   force =    -0.00360067    0.00339062    0.02426522
     atom    3 type  2   force =    -0.00251663    0.00366529    0.00466533
     atom    4 type  2   force =     0.00227184   -0.00172369    0.00219421
     The Hubbard contrib.    to forces
     atom    1 type  1   force =     0.00000000    0.00000000    0.00000000
     atom    2 type  1   force =     0.00000000    0.00000000    0.00000000
     atom    3 type  2   force =     0.00000000    0.00000000    0.00000000
     atom    4 type  2   force =     0.00000000    0.00000000    0.00000000
     The SCF correction term to forces
     atom    1 type  1   force =    -0.00000535    0.00000938    0.00024867
     atom    2 type  1   force =     0.00000591   -0.00000091   -0.00009877
     atom    3 type  2   force =     0.00000777    0.00000480    0.00002574
     atom    4 type  2   force =    -0.00002140    0.00000367    0.00007877

     Total force =     0.676537     Total SCF correction =     0.000281

     Writing all to output data dir ./ZnO_ANN.save/

     init_run     :      3.39s CPU      3.47s WALL (       1 calls)
     electrons    :    231.18s CPU    234.78s WALL (       1 calls)
     forces       :      1.01s CPU      1.02s WALL (       1 calls)

     Called by init_run:
     wfcinit      :      2.60s CPU      2.64s WALL (       1 calls)
     potinit      :      0.24s CPU      0.25s WALL (       1 calls)
     hinit0       :      0.47s CPU      0.48s WALL (       1 calls)

     Called by electrons:
     c_bands      :    205.81s CPU    208.94s WALL (      31 calls)
     sum_band     :     23.01s CPU     23.42s WALL (      31 calls)
     v_of_rho     :      0.53s CPU      0.57s WALL (      32 calls)
     newd         :      1.75s CPU      1.78s WALL (      32 calls)
     mix_rho      :      0.08s CPU      0.09s WALL (      31 calls)

     Called by c_bands:
     init_us_2    :      1.31s CPU      1.33s WALL (    7168 calls)
     init_us_2:cp :      1.29s CPU      1.31s WALL (    7168 calls)
     cegterg      :    200.84s CPU    203.89s WALL (    3472 calls)

     Called by *egterg:
     cdiaghg      :     22.71s CPU     22.92s WALL (   23846 calls)
     h_psi        :    116.13s CPU    118.33s WALL (   23958 calls)
     s_psi        :      9.23s CPU      9.33s WALL (   23958 calls)
     g_psi        :      0.37s CPU      0.38s WALL (   20374 calls)

     Called by h_psi:
     h_psi:calbec :     15.49s CPU     15.92s WALL (   23958 calls)
     vloc_psi     :     91.11s CPU     92.79s WALL (   23958 calls)
     add_vuspsi   :      9.20s CPU      9.30s WALL (   23958 calls)

     General routines
     calbec       :     20.90s CPU     21.45s WALL (   27878 calls)
     fft          :      0.84s CPU      0.89s WALL (     425 calls)
     ffts         :      0.12s CPU      0.12s WALL (      63 calls)
     fftw         :     96.47s CPU     98.25s WALL (  454950 calls)
     interpolate  :      0.13s CPU      0.14s WALL (      32 calls)

     Parallel routines

     PWSCF        :   3m56.28s CPU   4m 0.13s WALL


   This run was terminated on:  15: 8:56  23Jun2025            

=------------------------------------------------------------------------------=
   JOB DONE.
=------------------------------------------------------------------------------=
Note: The following floating-point exceptions are signalling: IEEE_INVALID_FLAG
