
     Program PWSCF v.7.2 starts on 23Jun2025 at 15:25:57 

     This program is part of the open-source Quantum ESPRESSO suite
     for quantum simulation of materials; please cite
         "P. Giannozzi et al., J. Phys.:Condens. Matter 21 395502 (2009);
         "P. Giannozzi et al., J. Phys.:Condens. Matter 29 465901 (2017);
         "P. Giannozzi et al., J. Chem. Phys. 152 154105 (2020);
          URL http://www.quantum-espresso.org", 
     in publications or presentations arising from this work. More details at
     http://www.quantum-espresso.org/quote

     Parallel version (MPI), running on     8 processors

     MPI processes distributed on     1 nodes
     90941 MiB available memory on the printing compute node when the environment starts

     Reading input from /home/jvc/QEspresso7.2/ZnO_DataBase/scfs_rnd025.in/scf-6.30-1.68-5.in

     Current dimensions of program PWSCF are:
     Max number of different atomic species (ntypx) = 10
     Max number of k-points (npk) =  40000
     Max angular momentum in pseudopotentials (lmaxx) =  4
     file Zn.upf: wavefunction(s)  3D renormalized

     R & G space division:  proc/nbgrp/npool/nimage =       8
     Subspace diagonalization in iterative solution of the eigenvalue problem:
     a serial algorithm will be used


     Parallelization info
     --------------------
     sticks:   dense  smooth     PW     G-vecs:    dense   smooth      PW
     Min         137      68     20                 6136     2180     366
     Max         138      69     21                 6139     2185     373
     Sum        1099     547    163                49105    17453    2949

     Using Slab Decomposition



     bravais-lattice index     =            4
     lattice parameter (alat)  =       6.3024  a.u.
     unit-cell volume          =     363.9832 (a.u.)^3
     number of atoms/cell      =            4
     number of atomic types    =            2
     number of electrons       =        36.00
     number of Kohn-Sham states=           18
     kinetic-energy cutoff     =      50.0000  Ry
     charge density cutoff     =     400.0000  Ry
     scf convergence threshold =      1.0E-08
     mixing beta               =       0.3000
     number of iterations used =            8  plain     mixing
     Exchange-correlation= PBE
                           (   1   4   3   4   0   0   0)

     celldm(1)=   6.302398  celldm(2)=   0.000000  celldm(3)=   1.678933
     celldm(4)=   0.000000  celldm(5)=   0.000000  celldm(6)=   0.000000

     crystal axes: (cart. coord. in units of alat)
               a(1) = (   1.000000   0.000000   0.000000 )  
               a(2) = (  -0.500000   0.866025   0.000000 )  
               a(3) = (   0.000000   0.000000   1.678933 )  

     reciprocal axes: (cart. coord. in units 2 pi/alat)
               b(1) = (  1.000000  0.577350 -0.000000 )  
               b(2) = (  0.000000  1.154701  0.000000 )  
               b(3) = (  0.000000 -0.000000  0.595616 )  


     PseudoPot. # 1 for Zn read from file:
     ./pseudos/Zn.upf
     MD5 check sum: 7f56cabf9682ed8c977c2f7d0c5985c5
     Pseudo is Ultrasoft + core correction, Zval = 12.0
     Generated using &quot;atomic&quot; code by A. Dal Corso  v.6.2.2
     Using radial grid of 1201 points,  6 beta functions with: 
                l(1) =   0
                l(2) =   0
                l(3) =   1
                l(4) =   1
                l(5) =   2
                l(6) =   2
     Q(r) pseudized with 0 coefficients 


     PseudoPot. # 2 for O  read from file:
     ./pseudos/O.upf
     MD5 check sum: 91400c9766925bcf19f520983a725ff0
     Pseudo is Ultrasoft + core correction, Zval =  6.0
     Generated using &quot;atomic&quot; code by A. Dal Corso  v.6.3MaX
     Using radial grid of 1095 points,  4 beta functions with: 
                l(1) =   0
                l(2) =   0
                l(3) =   1
                l(4) =   1
     Q(r) pseudized with 0 coefficients 


     atomic species   valence    mass     pseudopotential
        Zn            12.00    63.38000     Zn( 1.00)
        O              6.00    15.99900     O ( 1.00)

     No symmetry found



   Cartesian axes

     site n.     atom                  positions (alat units)
         1           Zn  tau(   1) = (   0.7365482   0.1675719   1.1648894  )
         2           Zn  tau(   2) = (   0.2095515   0.4249246   0.0187889  )
         3           O   tau(   3) = (   0.3548569   0.2126039   1.5673563  )
         4           O   tau(   4) = (  -0.2427757   0.5886521   0.6997308  )

     number of k points=   112

     Number of k-points >= 100: set verbosity='high' to print them.

     Dense  grid:    49105 G-vectors     FFT dimensions: (  45,  45,  72)

     Smooth grid:    17453 G-vectors     FFT dimensions: (  30,  30,  48)

     Estimated max dynamical RAM per process >      33.65 MB

     Estimated total dynamical RAM >     269.18 MB

     Check: negative core charge=   -0.000002

     Initial potential from superposition of free atoms

     starting charge      35.9925, renormalised to      36.0000
     Starting wfcs are   26 randomized atomic wfcs

     total cpu time spent up to now is       11.2 secs

     Self-consistent Calculation

     iteration #  1     ecut=    50.00 Ry     beta= 0.30
     Davidson diagonalization with overlap
     ethr =  1.00E-02,  avg # of iterations =  4.0

     total cpu time spent up to now is       27.9 secs

     total energy              =    -357.57929551 Ry
     estimated scf accuracy    <       1.52673859 Ry

     iteration #  2     ecut=    50.00 Ry     beta= 0.30
     Davidson diagonalization with overlap
     ethr =  4.24E-03,  avg # of iterations =  6.6

     total cpu time spent up to now is       42.9 secs

     total energy              =    -357.83786093 Ry
     estimated scf accuracy    <       0.39142328 Ry

     iteration #  3     ecut=    50.00 Ry     beta= 0.30
     Davidson diagonalization with overlap
     ethr =  1.09E-03,  avg # of iterations =  3.2

     total cpu time spent up to now is       49.5 secs

     total energy              =    -357.84836355 Ry
     estimated scf accuracy    <       0.09577122 Ry

     iteration #  4     ecut=    50.00 Ry     beta= 0.30
     Davidson diagonalization with overlap
     ethr =  2.66E-04,  avg # of iterations =  9.6

     total cpu time spent up to now is       83.1 secs

     total energy              =    -358.03122747 Ry
     estimated scf accuracy    <       0.40952077 Ry

     iteration #  5     ecut=    50.00 Ry     beta= 0.30
     Davidson diagonalization with overlap
     ethr =  2.66E-04,  avg # of iterations =  1.3

     total cpu time spent up to now is       88.2 secs

     total energy              =    -357.96334659 Ry
     estimated scf accuracy    <       0.46316062 Ry

     iteration #  6     ecut=    50.00 Ry     beta= 0.30
     Davidson diagonalization with overlap
     ethr =  2.66E-04,  avg # of iterations =  1.4

     total cpu time spent up to now is      107.3 secs

     total energy              =    -357.72779539 Ry
     estimated scf accuracy    <       0.33996807 Ry

     iteration #  7     ecut=    50.00 Ry     beta= 0.30
     Davidson diagonalization with overlap
     c_bands:  1 eigenvalues not converged
     c_bands:  1 eigenvalues not converged
     c_bands:  1 eigenvalues not converged
     c_bands:  1 eigenvalues not converged
     c_bands:  1 eigenvalues not converged
     c_bands:  2 eigenvalues not converged
     c_bands:  1 eigenvalues not converged
     c_bands:  1 eigenvalues not converged
     c_bands:  1 eigenvalues not converged
     c_bands:  1 eigenvalues not converged
     c_bands:  1 eigenvalues not converged
     c_bands:  1 eigenvalues not converged
     c_bands:  1 eigenvalues not converged
     c_bands:  1 eigenvalues not converged
     c_bands:  1 eigenvalues not converged
     c_bands:  1 eigenvalues not converged
     c_bands:  1 eigenvalues not converged
     c_bands:  1 eigenvalues not converged
     c_bands:  1 eigenvalues not converged
     c_bands:  1 eigenvalues not converged
     c_bands:  1 eigenvalues not converged
     c_bands:  1 eigenvalues not converged
     c_bands:  1 eigenvalues not converged
     c_bands:  1 eigenvalues not converged
     c_bands:  1 eigenvalues not converged
     c_bands:  1 eigenvalues not converged
     c_bands:  1 eigenvalues not converged
     c_bands:  1 eigenvalues not converged
     c_bands:  1 eigenvalues not converged
     c_bands:  1 eigenvalues not converged
     c_bands:  1 eigenvalues not converged
     c_bands:  1 eigenvalues not converged
     c_bands:  1 eigenvalues not converged
     c_bands:  1 eigenvalues not converged
     c_bands:  1 eigenvalues not converged
     c_bands:  1 eigenvalues not converged
     c_bands:  1 eigenvalues not converged
     c_bands:  1 eigenvalues not converged
     c_bands:  1 eigenvalues not converged
     c_bands:  1 eigenvalues not converged
     c_bands:  1 eigenvalues not converged
     c_bands:  1 eigenvalues not converged
     c_bands:  1 eigenvalues not converged
     ethr =  2.66E-04,  avg # of iterations = 18.4

     total cpu time spent up to now is      132.4 secs

     total energy              =    -358.42419501 Ry
     estimated scf accuracy    <       5.88172435 Ry

     iteration #  8     ecut=    50.00 Ry     beta= 0.30
     Davidson diagonalization with overlap
     ethr =  2.66E-04,  avg # of iterations =  1.3

     total cpu time spent up to now is      137.6 secs

     total energy              =    -358.29225025 Ry
     estimated scf accuracy    <       5.83083051 Ry

     iteration #  9     ecut=    50.00 Ry     beta= 0.30
     Davidson diagonalization with overlap
     ethr =  2.66E-04,  avg # of iterations =  2.2

     total cpu time spent up to now is      150.3 secs

     total energy              =    -358.36694140 Ry
     estimated scf accuracy    <       5.36263577 Ry

     iteration # 10     ecut=    50.00 Ry     beta= 0.30
     Davidson diagonalization with overlap
     ethr =  2.66E-04,  avg # of iterations =  1.0

     total cpu time spent up to now is      162.3 secs

     total energy              =    -358.14295008 Ry
     estimated scf accuracy    <       5.46247104 Ry

     iteration # 11     ecut=    50.00 Ry     beta= 0.30
     Davidson diagonalization with overlap
     ethr =  2.66E-04,  avg # of iterations =  7.1

     total cpu time spent up to now is      169.5 secs

     total energy              =    -357.40857947 Ry
     estimated scf accuracy    <       3.79258330 Ry

     iteration # 12     ecut=    50.00 Ry     beta= 0.30
     Davidson diagonalization with overlap
     c_bands:  1 eigenvalues not converged
     c_bands:  1 eigenvalues not converged
     c_bands:  1 eigenvalues not converged
     c_bands:  1 eigenvalues not converged
     c_bands:  1 eigenvalues not converged
     c_bands:  1 eigenvalues not converged
     c_bands:  1 eigenvalues not converged
     c_bands:  1 eigenvalues not converged
     c_bands:  1 eigenvalues not converged
     c_bands:  1 eigenvalues not converged
     ethr =  2.66E-04,  avg # of iterations = 15.0

     total cpu time spent up to now is      189.5 secs

     total energy              =    -357.87727656 Ry
     estimated scf accuracy    <       0.12297210 Ry

     iteration # 13     ecut=    50.00 Ry     beta= 0.30
     Davidson diagonalization with overlap
     c_bands:  2 eigenvalues not converged
     c_bands:  1 eigenvalues not converged
     c_bands:  1 eigenvalues not converged
     c_bands:  1 eigenvalues not converged
     c_bands:  1 eigenvalues not converged
     ethr =  2.66E-04,  avg # of iterations =  9.9

     total cpu time spent up to now is      220.2 secs

     total energy              =    -357.87366549 Ry
     estimated scf accuracy    <       0.67901210 Ry

     iteration # 14     ecut=    50.00 Ry     beta= 0.30
     Davidson diagonalization with overlap
     ethr =  2.66E-04,  avg # of iterations =  7.9

     total cpu time spent up to now is      235.7 secs

     total energy              =    -357.93428072 Ry
     estimated scf accuracy    <       0.00578093 Ry

     iteration # 15     ecut=    50.00 Ry     beta= 0.30
     Davidson diagonalization with overlap
     ethr =  1.61E-05,  avg # of iterations =  6.0

     total cpu time spent up to now is      243.1 secs

     total energy              =    -357.93573949 Ry
     estimated scf accuracy    <       0.01396156 Ry

     iteration # 16     ecut=    50.00 Ry     beta= 0.30
     Davidson diagonalization with overlap
     ethr =  1.61E-05,  avg # of iterations =  1.5

     total cpu time spent up to now is      248.4 secs

     total energy              =    -357.93147604 Ry
     estimated scf accuracy    <       0.01480656 Ry

     iteration # 17     ecut=    50.00 Ry     beta= 0.30
     Davidson diagonalization with overlap
     c_bands:  1 eigenvalues not converged
     ethr =  1.61E-05,  avg # of iterations =  7.6

     total cpu time spent up to now is      270.3 secs

     total energy              =    -357.93369495 Ry
     estimated scf accuracy    <       0.00020994 Ry

     iteration # 18     ecut=    50.00 Ry     beta= 0.30
     Davidson diagonalization with overlap
     c_bands:  1 eigenvalues not converged
     ethr =  5.83E-07,  avg # of iterations =  8.7

     total cpu time spent up to now is      294.7 secs

     total energy              =    -357.93407703 Ry
     estimated scf accuracy    <       0.00116290 Ry

     iteration # 19     ecut=    50.00 Ry     beta= 0.30
     Davidson diagonalization with overlap
     ethr =  5.83E-07,  avg # of iterations =  2.9

     total cpu time spent up to now is      300.4 secs

     total energy              =    -357.93394904 Ry
     estimated scf accuracy    <       0.00162510 Ry

     iteration # 20     ecut=    50.00 Ry     beta= 0.30
     Davidson diagonalization with overlap
     ethr =  5.83E-07,  avg # of iterations =  1.2

     total cpu time spent up to now is      312.4 secs

     total energy              =    -357.93371654 Ry
     estimated scf accuracy    <       0.00136556 Ry

     iteration # 21     ecut=    50.00 Ry     beta= 0.30
     Davidson diagonalization with overlap
     c_bands:  2 eigenvalues not converged
     ethr =  5.83E-07,  avg # of iterations =  7.5

     total cpu time spent up to now is      320.4 secs

     total energy              =    -357.93384960 Ry
     estimated scf accuracy    <       0.00015450 Ry

     iteration # 22     ecut=    50.00 Ry     beta= 0.30
     Davidson diagonalization with overlap
     ethr =  4.29E-07,  avg # of iterations =  2.0

     total cpu time spent up to now is      325.8 secs

     total energy              =    -357.93381098 Ry
     estimated scf accuracy    <       0.00023977 Ry

     iteration # 23     ecut=    50.00 Ry     beta= 0.30
     Davidson diagonalization with overlap
     ethr =  4.29E-07,  avg # of iterations =  1.1

     total cpu time spent up to now is      330.7 secs

     total energy              =    -357.93377344 Ry
     estimated scf accuracy    <       0.00016698 Ry

     iteration # 24     ecut=    50.00 Ry     beta= 0.30
     Davidson diagonalization with overlap
     ethr =  4.29E-07,  avg # of iterations =  2.9

     total cpu time spent up to now is      336.5 secs

     total energy              =    -357.93378774 Ry
     estimated scf accuracy    <       0.00003430 Ry

     iteration # 25     ecut=    50.00 Ry     beta= 0.30
     Davidson diagonalization with overlap
     ethr =  9.53E-08,  avg # of iterations =  6.2

     total cpu time spent up to now is      344.0 secs

     total energy              =    -357.93379752 Ry
     estimated scf accuracy    <       0.00000508 Ry

     iteration # 26     ecut=    50.00 Ry     beta= 0.30
     Davidson diagonalization with overlap
     ethr =  1.41E-08,  avg # of iterations =  4.9

     total cpu time spent up to now is      351.1 secs

     total energy              =    -357.93379912 Ry
     estimated scf accuracy    <       0.00000481 Ry

     iteration # 27     ecut=    50.00 Ry     beta= 0.30
     Davidson diagonalization with overlap
     ethr =  1.34E-08,  avg # of iterations =  5.5

     total cpu time spent up to now is      360.0 secs

     total energy              =    -357.93379763 Ry
     estimated scf accuracy    <       0.00001567 Ry

     iteration # 28     ecut=    50.00 Ry     beta= 0.30
     Davidson diagonalization with overlap
     ethr =  1.34E-08,  avg # of iterations =  2.3

     total cpu time spent up to now is      366.0 secs

     total energy              =    -357.93379700 Ry
     estimated scf accuracy    <       0.00000797 Ry

     iteration # 29     ecut=    50.00 Ry     beta= 0.30
     Davidson diagonalization with overlap
     ethr =  1.34E-08,  avg # of iterations =  4.5

     total cpu time spent up to now is      372.9 secs

     total energy              =    -357.93379714 Ry
     estimated scf accuracy    <       0.00000198 Ry

     iteration # 30     ecut=    50.00 Ry     beta= 0.30
     Davidson diagonalization with overlap
     c_bands:  1 eigenvalues not converged
     ethr =  5.50E-09,  avg # of iterations =  8.5

     total cpu time spent up to now is      382.5 secs

     total energy              =    -357.93379810 Ry
     estimated scf accuracy    <       0.00000259 Ry

     iteration # 31     ecut=    50.00 Ry     beta= 0.30
     Davidson diagonalization with overlap
     ethr =  5.50E-09,  avg # of iterations =  1.5

     total cpu time spent up to now is      387.7 secs

     total energy              =    -357.93379773 Ry
     estimated scf accuracy    <       0.00000148 Ry

     iteration # 32     ecut=    50.00 Ry     beta= 0.30
     Davidson diagonalization with overlap
     ethr =  4.10E-09,  avg # of iterations =  7.5

     total cpu time spent up to now is      395.5 secs

     total energy              =    -357.93379829 Ry
     estimated scf accuracy    <       0.00000108 Ry

     iteration # 33     ecut=    50.00 Ry     beta= 0.30
     Davidson diagonalization with overlap
     ethr =  3.00E-09,  avg # of iterations =  1.4

     total cpu time spent up to now is      400.7 secs

     total energy              =    -357.93379815 Ry
     estimated scf accuracy    <       0.00000089 Ry

     iteration # 34     ecut=    50.00 Ry     beta= 0.30
     Davidson diagonalization with overlap
     ethr =  2.48E-09,  avg # of iterations =  2.7

     total cpu time spent up to now is      406.5 secs

     total energy              =    -357.93379822 Ry
     estimated scf accuracy    <       0.00000017 Ry

     iteration # 35     ecut=    50.00 Ry     beta= 0.30
     Davidson diagonalization with overlap
     ethr =  4.60E-10,  avg # of iterations =  7.5

     total cpu time spent up to now is      414.2 secs

     total energy              =    -357.93379828 Ry
     estimated scf accuracy    <       0.00000004 Ry

     iteration # 36     ecut=    50.00 Ry     beta= 0.30
     Davidson diagonalization with overlap
     ethr =  1.01E-10,  avg # of iterations =  3.9

     total cpu time spent up to now is      420.3 secs

     total energy              =    -357.93379827 Ry
     estimated scf accuracy    <       0.00000006 Ry

     iteration # 37     ecut=    50.00 Ry     beta= 0.30
     Davidson diagonalization with overlap
     ethr =  1.01E-10,  avg # of iterations =  2.1

     total cpu time spent up to now is      425.8 secs

     total energy              =    -357.93379826 Ry
     estimated scf accuracy    <       0.00000003 Ry

     iteration # 38     ecut=    50.00 Ry     beta= 0.30
     Davidson diagonalization with overlap
     c_bands:  2 eigenvalues not converged
     c_bands:  1 eigenvalues not converged
     ethr =  8.66E-11,  avg # of iterations =  8.1

     total cpu time spent up to now is      434.6 secs

     total energy              =    -357.93379828 Ry
     estimated scf accuracy    <       0.00000015 Ry

     iteration # 39     ecut=    50.00 Ry     beta= 0.30
     Davidson diagonalization with overlap
     ethr =  8.66E-11,  avg # of iterations =  2.1

     total cpu time spent up to now is      440.0 secs

     total energy              =    -357.93379826 Ry
     estimated scf accuracy    <       0.00000010 Ry

     iteration # 40     ecut=    50.00 Ry     beta= 0.30
     Davidson diagonalization with overlap
     ethr =  8.66E-11,  avg # of iterations =  7.9

     total cpu time spent up to now is      448.0 secs

     End of self-consistent calculation

     Number of k-points >= 100: set verbosity='high' to print the bands.

     highest occupied level (ev):     7.3541

!    total energy              =    -357.93379827 Ry
     estimated scf accuracy    <          3.8E-09 Ry

     The total energy is the sum of the following terms:
     one-electron contribution =    -224.59706623 Ry
     hartree contribution      =     148.40378735 Ry
     xc contribution           =    -110.18802726 Ry
     ewald contribution        =    -171.55249214 Ry

     convergence has been achieved in  40 iterations

     Forces acting on atoms (cartesian axes, Ry/au):

     atom    1 type  1   force =     0.03630986   -0.00485189   -0.26191534
     atom    2 type  1   force =    -4.82494924    7.01274731    4.44004051
     atom    3 type  2   force =     4.77584330   -6.99419625   -4.25287522
     atom    4 type  2   force =     0.01279607   -0.01369917    0.07475005
     The non-local contrib.  to forces
     atom    1 type  1   force =     0.18126373   -0.27730804    0.60105221
     atom    2 type  1   force =     0.43208097   -0.80206783   -0.70278059
     atom    3 type  2   force =    -0.06460453    0.56090965   -0.07412675
     atom    4 type  2   force =     0.13131943   -0.33683304    0.55148894
     The ionic contribution  to forces
     atom    1 type  1   force =     2.56758388   -2.46058465  -18.17462733
     atom    2 type  1   force =   -18.55638031   27.96139196   32.98967142
     atom    3 type  2   force =    16.10421204  -27.29884046   -9.63575994
     atom    4 type  2   force =    -0.11541561    1.79803316   -5.17928415
     The local contribution  to forces
     atom    1 type  1   force =    -2.69184836    2.71430472   17.31020873
     atom    2 type  1   force =    13.02873226  -19.75184580  -27.60034218
     atom    3 type  2   force =   -11.25140318   19.72893363    5.44537585
     atom    4 type  2   force =    -0.00166151   -1.47806352    4.70788494
     The core correction contribution to forces
     atom    1 type  1   force =    -0.02071624    0.01875074    0.00162833
     atom    2 type  1   force =     0.27066242   -0.39479955   -0.24655828
     atom    3 type  2   force =    -0.01238810    0.01484142    0.01168879
     atom    4 type  2   force =    -0.00145843    0.00319779   -0.00539587
     The Hubbard contrib.    to forces
     atom    1 type  1   force =     0.00000000    0.00000000    0.00000000
     atom    2 type  1   force =     0.00000000    0.00000000    0.00000000
     atom    3 type  2   force =     0.00000000    0.00000000    0.00000000
     atom    4 type  2   force =     0.00000000    0.00000000    0.00000000
     The SCF correction term to forces
     atom    1 type  1   force =     0.00001102    0.00001420   -0.00018144
     atom    2 type  1   force =    -0.00006040    0.00009739    0.00004597
     atom    3 type  2   force =     0.00001123   -0.00001163   -0.00005734
     atom    4 type  2   force =    -0.00000364   -0.00000470    0.00005201

     Total force =    13.493073     Total SCF correction =     0.000234

     Writing all to output data dir ./ZnO_ANN.save/

     init_run     :      3.70s CPU     10.75s WALL (       1 calls)
     electrons    :    288.83s CPU    436.77s WALL (       1 calls)
     forces       :      1.24s CPU      1.24s WALL (       1 calls)

     Called by init_run:
     wfcinit      :      2.75s CPU      2.80s WALL (       1 calls)
     potinit      :      0.31s CPU      7.27s WALL (       1 calls)
     hinit0       :      0.56s CPU      0.57s WALL (       1 calls)

     Called by electrons:
     c_bands      :    253.98s CPU    394.17s WALL (      40 calls)
     sum_band     :     31.29s CPU     38.95s WALL (      40 calls)
     v_of_rho     :      0.78s CPU      0.84s WALL (      41 calls)
     newd         :      2.65s CPU      2.69s WALL (      41 calls)
     mix_rho      :      0.13s CPU      0.14s WALL (      40 calls)

     Called by c_bands:
     init_us_2    :      2.19s CPU      2.22s WALL (    9184 calls)
     init_us_2:cp :      2.16s CPU      2.20s WALL (    9184 calls)
     cegterg      :    246.80s CPU    386.89s WALL (    4480 calls)

     Called by *egterg:
     cdiaghg      :     28.98s CPU     43.25s WALL (   27665 calls)
     h_psi        :    143.61s CPU    181.67s WALL (   27777 calls)
     s_psi        :     16.68s CPU     16.84s WALL (   27777 calls)
     g_psi        :      0.47s CPU      0.48s WALL (   23185 calls)

     Called by h_psi:
     h_psi:calbec :     19.87s CPU     34.50s WALL (   27777 calls)
     vloc_psi     :    106.47s CPU    129.75s WALL (   27777 calls)
     add_vuspsi   :     16.76s CPU     16.92s WALL (   27777 calls)

     General routines
     calbec       :     27.45s CPU     42.26s WALL (   32705 calls)
     fft          :      0.86s CPU      0.93s WALL (     542 calls)
     ffts         :      0.17s CPU      7.13s WALL (      81 calls)
     fftw         :    110.48s CPU    140.87s WALL (  532240 calls)
     interpolate  :      0.19s CPU      7.15s WALL (      41 calls)

     Parallel routines

     PWSCF        :   4m54.47s CPU   7m29.72s WALL


   This run was terminated on:  15:33:26  23Jun2025            

=------------------------------------------------------------------------------=
   JOB DONE.
=------------------------------------------------------------------------------=
Note: The following floating-point exceptions are signalling: IEEE_INVALID_FLAG
