
     Program PWSCF v.7.2 starts on 23Jun2025 at 15:49:34 

     This program is part of the open-source Quantum ESPRESSO suite
     for quantum simulation of materials; please cite
         "P. Giannozzi et al., J. Phys.:Condens. Matter 21 395502 (2009);
         "P. Giannozzi et al., J. Phys.:Condens. Matter 29 465901 (2017);
         "P. Giannozzi et al., J. Chem. Phys. 152 154105 (2020);
          URL http://www.quantum-espresso.org", 
     in publications or presentations arising from this work. More details at
     http://www.quantum-espresso.org/quote

     Parallel version (MPI), running on     8 processors

     MPI processes distributed on     1 nodes
     90967 MiB available memory on the printing compute node when the environment starts

     Reading input from /home/jvc/QEspresso7.2/ZnO_DataBase/scfs_rnd025.in/scf-6.43-1.52-4.in

     Current dimensions of program PWSCF are:
     Max number of different atomic species (ntypx) = 10
     Max number of k-points (npk) =  40000
     Max angular momentum in pseudopotentials (lmaxx) =  4
     file Zn.upf: wavefunction(s)  3D renormalized

     R & G space division:  proc/nbgrp/npool/nimage =       8
     Subspace diagonalization in iterative solution of the eigenvalue problem:
     a serial algorithm will be used


     Parallelization info
     --------------------
     sticks:   dense  smooth     PW     G-vecs:    dense   smooth      PW
     Min         143      71     20                 5899     2087     342
     Max         144      73     21                 5902     2090     349
     Sum        1147     571    163                47205    16705    2755

     Using Slab Decomposition



     bravais-lattice index     =            4
     lattice parameter (alat)  =       6.4260  a.u.
     unit-cell volume          =     348.7188 (a.u.)^3
     number of atoms/cell      =            4
     number of atomic types    =            2
     number of electrons       =        36.00
     number of Kohn-Sham states=           18
     kinetic-energy cutoff     =      50.0000  Ry
     charge density cutoff     =     400.0000  Ry
     scf convergence threshold =      1.0E-08
     mixing beta               =       0.3000
     number of iterations used =            8  plain     mixing
     Exchange-correlation= PBE
                           (   1   4   3   4   0   0   0)

     celldm(1)=   6.425974  celldm(2)=   0.000000  celldm(3)=   1.517497
     celldm(4)=   0.000000  celldm(5)=   0.000000  celldm(6)=   0.000000

     crystal axes: (cart. coord. in units of alat)
               a(1) = (   1.000000   0.000000   0.000000 )  
               a(2) = (  -0.500000   0.866025   0.000000 )  
               a(3) = (   0.000000   0.000000   1.517497 )  

     reciprocal axes: (cart. coord. in units 2 pi/alat)
               b(1) = (  1.000000  0.577350 -0.000000 )  
               b(2) = (  0.000000  1.154701  0.000000 )  
               b(3) = (  0.000000 -0.000000  0.658980 )  


     PseudoPot. # 1 for Zn read from file:
     ./pseudos/Zn.upf
     MD5 check sum: 7f56cabf9682ed8c977c2f7d0c5985c5
     Pseudo is Ultrasoft + core correction, Zval = 12.0
     Generated using &quot;atomic&quot; code by A. Dal Corso  v.6.2.2
     Using radial grid of 1201 points,  6 beta functions with: 
                l(1) =   0
                l(2) =   0
                l(3) =   1
                l(4) =   1
                l(5) =   2
                l(6) =   2
     Q(r) pseudized with 0 coefficients 


     PseudoPot. # 2 for O  read from file:
     ./pseudos/O.upf
     MD5 check sum: 91400c9766925bcf19f520983a725ff0
     Pseudo is Ultrasoft + core correction, Zval =  6.0
     Generated using &quot;atomic&quot; code by A. Dal Corso  v.6.3MaX
     Using radial grid of 1095 points,  4 beta functions with: 
                l(1) =   0
                l(2) =   0
                l(3) =   1
                l(4) =   1
     Q(r) pseudized with 0 coefficients 


     atomic species   valence    mass     pseudopotential
        Zn            12.00    63.38000     Zn( 1.00)
        O              6.00    15.99900     O ( 1.00)

     No symmetry found



   Cartesian axes

     site n.     atom                  positions (alat units)
         1           Zn  tau(   1) = (   0.3787418   0.2027424   1.0810022  )
         2           Zn  tau(   2) = (   0.0120616   0.5128707   0.2829202  )
         3           O   tau(   3) = (   0.5265365   0.1902077   1.3876012  )
         4           O   tau(   4) = (   0.1475976   0.7082243   0.4050374  )

     number of k points=   112

     Number of k-points >= 100: set verbosity='high' to print them.

     Dense  grid:    47205 G-vectors     FFT dimensions: (  45,  45,  64)

     Smooth grid:    16705 G-vectors     FFT dimensions: (  30,  30,  45)

     Estimated max dynamical RAM per process >      32.36 MB

     Estimated total dynamical RAM >     258.92 MB

     Check: negative core charge=   -0.000002

     Initial potential from superposition of free atoms

     starting charge      35.9925, renormalised to      36.0000
     Starting wfcs are   26 randomized atomic wfcs

     total cpu time spent up to now is        4.0 secs

     Self-consistent Calculation

     iteration #  1     ecut=    50.00 Ry     beta= 0.30
     Davidson diagonalization with overlap
     ethr =  1.00E-02,  avg # of iterations =  4.5

     total cpu time spent up to now is       12.0 secs

     total energy              =    -355.52730563 Ry
     estimated scf accuracy    <       1.67611591 Ry

     iteration #  2     ecut=    50.00 Ry     beta= 0.30
     Davidson diagonalization with overlap
     ethr =  4.66E-03,  avg # of iterations =  2.1

     total cpu time spent up to now is       17.9 secs

     total energy              =    -355.42314012 Ry
     estimated scf accuracy    <       0.39857722 Ry

     iteration #  3     ecut=    50.00 Ry     beta= 0.30
     Davidson diagonalization with overlap
     ethr =  1.11E-03,  avg # of iterations =  8.8

     total cpu time spent up to now is       30.4 secs

     total energy              =    -356.03146555 Ry
     estimated scf accuracy    <       1.25604996 Ry

     iteration #  4     ecut=    50.00 Ry     beta= 0.30
     Davidson diagonalization with overlap
     ethr =  1.11E-03,  avg # of iterations =  1.0

     total cpu time spent up to now is       35.2 secs

     total energy              =    -356.32866179 Ry
     estimated scf accuracy    <       1.18002570 Ry

     iteration #  5     ecut=    50.00 Ry     beta= 0.30
     Davidson diagonalization with overlap
     ethr =  1.11E-03,  avg # of iterations =  3.7

     total cpu time spent up to now is       41.3 secs

     total energy              =    -355.14280700 Ry
     estimated scf accuracy    <       2.23222163 Ry

     iteration #  6     ecut=    50.00 Ry     beta= 0.30
     Davidson diagonalization with overlap
     ethr =  1.11E-03,  avg # of iterations =  8.4

     total cpu time spent up to now is       55.5 secs

     total energy              =    -355.78352074 Ry
     estimated scf accuracy    <       0.39946127 Ry

     iteration #  7     ecut=    50.00 Ry     beta= 0.30
     Davidson diagonalization with overlap
     ethr =  1.11E-03,  avg # of iterations =  1.1

     total cpu time spent up to now is       60.4 secs

     total energy              =    -355.70978921 Ry
     estimated scf accuracy    <       0.18001878 Ry

     iteration #  8     ecut=    50.00 Ry     beta= 0.30
     Davidson diagonalization with overlap
     ethr =  5.00E-04,  avg # of iterations =  4.8

     total cpu time spent up to now is       68.9 secs

     total energy              =    -355.80513717 Ry
     estimated scf accuracy    <       0.05793136 Ry

     iteration #  9     ecut=    50.00 Ry     beta= 0.30
     Davidson diagonalization with overlap
     ethr =  1.61E-04,  avg # of iterations =  1.4

     total cpu time spent up to now is       73.9 secs

     total energy              =    -355.78500227 Ry
     estimated scf accuracy    <       0.05038911 Ry

     iteration # 10     ecut=    50.00 Ry     beta= 0.30
     Davidson diagonalization with overlap
     ethr =  1.40E-04,  avg # of iterations =  2.1

     total cpu time spent up to now is       79.6 secs

     total energy              =    -355.78081287 Ry
     estimated scf accuracy    <       0.01095928 Ry

     iteration # 11     ecut=    50.00 Ry     beta= 0.30
     Davidson diagonalization with overlap
     ethr =  3.04E-05,  avg # of iterations =  9.2

     total cpu time spent up to now is       94.8 secs

     total energy              =    -355.78800291 Ry
     estimated scf accuracy    <       0.09975536 Ry

     iteration # 12     ecut=    50.00 Ry     beta= 0.30
     Davidson diagonalization with overlap
     ethr =  3.04E-05,  avg # of iterations =  6.0

     total cpu time spent up to now is      105.3 secs

     total energy              =    -355.79594609 Ry
     estimated scf accuracy    <       0.01137500 Ry

     iteration # 13     ecut=    50.00 Ry     beta= 0.30
     Davidson diagonalization with overlap
     ethr =  3.04E-05,  avg # of iterations =  1.1

     total cpu time spent up to now is      110.2 secs

     total energy              =    -355.79381548 Ry
     estimated scf accuracy    <       0.00968594 Ry

     iteration # 14     ecut=    50.00 Ry     beta= 0.30
     Davidson diagonalization with overlap
     ethr =  2.69E-05,  avg # of iterations =  1.9

     total cpu time spent up to now is      115.6 secs

     total energy              =    -355.79334299 Ry
     estimated scf accuracy    <       0.00386695 Ry

     iteration # 15     ecut=    50.00 Ry     beta= 0.30
     Davidson diagonalization with overlap
     ethr =  1.07E-05,  avg # of iterations =  5.6

     total cpu time spent up to now is      123.9 secs

     total energy              =    -355.79491914 Ry
     estimated scf accuracy    <       0.00020844 Ry

     iteration # 16     ecut=    50.00 Ry     beta= 0.30
     Davidson diagonalization with overlap
     ethr =  5.79E-07,  avg # of iterations =  6.6

     total cpu time spent up to now is      132.2 secs

     total energy              =    -355.79502815 Ry
     estimated scf accuracy    <       0.00053170 Ry

     iteration # 17     ecut=    50.00 Ry     beta= 0.30
     Davidson diagonalization with overlap
     ethr =  5.79E-07,  avg # of iterations =  1.2

     total cpu time spent up to now is      137.1 secs

     total energy              =    -355.79497633 Ry
     estimated scf accuracy    <       0.00057121 Ry

     iteration # 18     ecut=    50.00 Ry     beta= 0.30
     Davidson diagonalization with overlap
     ethr =  5.79E-07,  avg # of iterations =  1.1

     total cpu time spent up to now is      141.9 secs

     total energy              =    -355.79466196 Ry
     estimated scf accuracy    <       0.00045843 Ry

     iteration # 19     ecut=    50.00 Ry     beta= 0.30
     Davidson diagonalization with overlap
     ethr =  5.79E-07,  avg # of iterations =  8.6

     total cpu time spent up to now is      155.4 secs

     total energy              =    -355.79496198 Ry
     estimated scf accuracy    <       0.00117200 Ry

     iteration # 20     ecut=    50.00 Ry     beta= 0.30
     Davidson diagonalization with overlap
     ethr =  5.79E-07,  avg # of iterations =  2.1

     total cpu time spent up to now is      161.3 secs

     total energy              =    -355.79475081 Ry
     estimated scf accuracy    <       0.00074105 Ry

     iteration # 21     ecut=    50.00 Ry     beta= 0.30
     Davidson diagonalization with overlap
     ethr =  5.79E-07,  avg # of iterations =  5.9

     total cpu time spent up to now is      171.4 secs

     total energy              =    -355.79489512 Ry
     estimated scf accuracy    <       0.00001343 Ry

     iteration # 22     ecut=    50.00 Ry     beta= 0.30
     Davidson diagonalization with overlap
     ethr =  3.73E-08,  avg # of iterations = 10.1

     total cpu time spent up to now is      184.4 secs

     total energy              =    -355.79490722 Ry
     estimated scf accuracy    <       0.00009850 Ry

     iteration # 23     ecut=    50.00 Ry     beta= 0.30
     Davidson diagonalization with overlap
     ethr =  3.73E-08,  avg # of iterations =  2.2

     total cpu time spent up to now is      190.2 secs

     total energy              =    -355.79488445 Ry
     estimated scf accuracy    <       0.00006242 Ry

     iteration # 24     ecut=    50.00 Ry     beta= 0.30
     Davidson diagonalization with overlap
     ethr =  3.73E-08,  avg # of iterations =  7.8

     total cpu time spent up to now is      202.5 secs

     total energy              =    -355.79490355 Ry
     estimated scf accuracy    <       0.00000623 Ry

     iteration # 25     ecut=    50.00 Ry     beta= 0.30
     Davidson diagonalization with overlap
     ethr =  1.73E-08,  avg # of iterations =  1.3

     total cpu time spent up to now is      207.5 secs

     total energy              =    -355.79490258 Ry
     estimated scf accuracy    <       0.00000434 Ry

     iteration # 26     ecut=    50.00 Ry     beta= 0.30
     Davidson diagonalization with overlap
     ethr =  1.21E-08,  avg # of iterations =  2.0

     total cpu time spent up to now is      213.1 secs

     total energy              =    -355.79490274 Ry
     estimated scf accuracy    <       0.00000143 Ry

     iteration # 27     ecut=    50.00 Ry     beta= 0.30
     Davidson diagonalization with overlap
     ethr =  3.98E-09,  avg # of iterations =  4.0

     total cpu time spent up to now is      219.4 secs

     total energy              =    -355.79490256 Ry
     estimated scf accuracy    <       0.00000049 Ry

     iteration # 28     ecut=    50.00 Ry     beta= 0.30
     Davidson diagonalization with overlap
     ethr =  1.36E-09,  avg # of iterations = 10.5

     total cpu time spent up to now is      234.5 secs

     total energy              =    -355.79490262 Ry
     estimated scf accuracy    <       0.00000588 Ry

     iteration # 29     ecut=    50.00 Ry     beta= 0.30
     Davidson diagonalization with overlap
     ethr =  1.36E-09,  avg # of iterations =  6.9

     total cpu time spent up to now is      245.4 secs

     total energy              =    -355.79490313 Ry
     estimated scf accuracy    <       0.00000057 Ry

     iteration # 30     ecut=    50.00 Ry     beta= 0.30
     Davidson diagonalization with overlap
     ethr =  1.36E-09,  avg # of iterations =  1.4

     total cpu time spent up to now is      250.4 secs

     total energy              =    -355.79490289 Ry
     estimated scf accuracy    <       0.00000057 Ry

     iteration # 31     ecut=    50.00 Ry     beta= 0.30
     Davidson diagonalization with overlap
     ethr =  1.36E-09,  avg # of iterations =  5.9

     total cpu time spent up to now is      258.3 secs

     total energy              =    -355.79490306 Ry
     estimated scf accuracy    <       0.00000007 Ry

     iteration # 32     ecut=    50.00 Ry     beta= 0.30
     Davidson diagonalization with overlap
     ethr =  2.02E-10,  avg # of iterations =  2.8

     total cpu time spent up to now is      264.1 secs

     total energy              =    -355.79490305 Ry
     estimated scf accuracy    <       0.00000005 Ry

     iteration # 33     ecut=    50.00 Ry     beta= 0.30
     Davidson diagonalization with overlap
     ethr =  1.44E-10,  avg # of iterations =  4.4

     total cpu time spent up to now is      270.4 secs

     total energy              =    -355.79490306 Ry
     estimated scf accuracy    <       0.00000001 Ry

     iteration # 34     ecut=    50.00 Ry     beta= 0.30
     Davidson diagonalization with overlap
     ethr =  3.08E-11,  avg # of iterations =  6.1

     total cpu time spent up to now is      278.8 secs

     End of self-consistent calculation

     Number of k-points >= 100: set verbosity='high' to print the bands.

     highest occupied level (ev):     7.7535

!    total energy              =    -355.79490306 Ry
     estimated scf accuracy    <          3.5E-09 Ry

     The total energy is the sum of the following terms:
     one-electron contribution =    -227.37603095 Ry
     hartree contribution      =     150.04458254 Ry
     xc contribution           =    -110.99461674 Ry
     ewald contribution        =    -167.46883791 Ry

     convergence has been achieved in  34 iterations

     Forces acting on atoms (cartesian axes, Ry/au):

     atom    1 type  1   force =    -1.41988800    0.12855359   -3.01156384
     atom    2 type  1   force =    -6.31859308   -9.09921965   -5.60043124
     atom    3 type  2   force =     1.43836401   -0.06857236    2.86855044
     atom    4 type  2   force =     6.30011707    9.03923842    5.74344464
     The non-local contrib.  to forces
     atom    1 type  1   force =    -0.39245086   -0.04692453   -0.68608627
     atom    2 type  1   force =     1.18573551    1.58987820    1.15175729
     atom    3 type  2   force =    -0.37774706    0.25100161   -1.17064309
     atom    4 type  2   force =    -0.55816680   -0.85938893   -0.23564124
     The ionic contribution  to forces
     atom    1 type  1   force =   -10.57892867    0.95618400  -27.78716626
     atom    2 type  1   force =   -22.49606728  -32.13172322  -12.46664884
     atom    3 type  2   force =    10.51529506    0.11694800   16.01815784
     atom    4 type  2   force =    22.55970088   31.05859122   24.23565727
     The local contribution  to forces
     atom    1 type  1   force =     9.42064563   -0.77110116   25.19504020
     atom    2 type  1   force =    14.68391658   20.99528618    5.44053856
     atom    3 type  2   force =    -8.69619067   -0.43434020  -11.97731528
     atom    4 type  2   force =   -15.69007252  -21.14411808  -18.24407655
     The core correction contribution to forces
     atom    1 type  1   force =     0.13082041   -0.00964352    0.26659788
     atom    2 type  1   force =     0.30793229    0.44750230    0.27404096
     atom    3 type  2   force =    -0.00301008   -0.00222905   -0.00160129
     atom    4 type  2   force =    -0.01137845   -0.01589206   -0.01254447
     The Hubbard contrib.    to forces
     atom    1 type  1   force =     0.00000000    0.00000000    0.00000000
     atom    2 type  1   force =     0.00000000    0.00000000    0.00000000
     atom    3 type  2   force =     0.00000000    0.00000000    0.00000000
     atom    4 type  2   force =     0.00000000    0.00000000    0.00000000
     The SCF correction term to forces
     atom    1 type  1   force =    -0.00000321   -0.00000395    0.00002742
     atom    2 type  1   force =    -0.00013888   -0.00020585   -0.00014242
     atom    3 type  2   force =    -0.00001194    0.00000454   -0.00007094
     atom    4 type  2   force =     0.00000526    0.00000353    0.00002643

     Total force =    18.162489     Total SCF correction =     0.000298

     Writing all to output data dir ./ZnO_ANN.save/

     init_run     :      3.41s CPU      3.51s WALL (       1 calls)
     electrons    :    269.75s CPU    274.83s WALL (       1 calls)
     forces       :      1.08s CPU      1.10s WALL (       1 calls)

     Called by init_run:
     wfcinit      :      2.64s CPU      2.70s WALL (       1 calls)
     potinit      :      0.25s CPU      0.26s WALL (       1 calls)
     hinit0       :      0.43s CPU      0.45s WALL (       1 calls)

     Called by electrons:
     c_bands      :    240.87s CPU    245.29s WALL (      34 calls)
     sum_band     :     26.13s CPU     26.71s WALL (      34 calls)
     v_of_rho     :      0.59s CPU      0.63s WALL (      35 calls)
     newd         :      2.07s CPU      2.10s WALL (      35 calls)
     mix_rho      :      0.10s CPU      0.11s WALL (      34 calls)

     Called by c_bands:
     init_us_2    :      1.84s CPU      1.87s WALL (    7840 calls)
     init_us_2:cp :      1.81s CPU      1.84s WALL (    7840 calls)
     cegterg      :    234.98s CPU    239.30s WALL (    3808 calls)

     Called by *egterg:
     cdiaghg      :     23.28s CPU     23.44s WALL (   20913 calls)
     h_psi        :    139.96s CPU    143.25s WALL (   21025 calls)
     s_psi        :     17.29s CPU     17.42s WALL (   21025 calls)
     g_psi        :      0.47s CPU      0.48s WALL (   17105 calls)

     Called by h_psi:
     h_psi:calbec :     18.59s CPU     19.25s WALL (   21025 calls)
     vloc_psi     :    103.64s CPU    106.13s WALL (   21025 calls)
     add_vuspsi   :     17.28s CPU     17.43s WALL (   21025 calls)

     General routines
     calbec       :     24.78s CPU     25.59s WALL (   25281 calls)
     fft          :      0.60s CPU      0.65s WALL (     464 calls)
     ffts         :      0.12s CPU      0.13s WALL (      69 calls)
     fftw         :    105.32s CPU    107.86s WALL (  516474 calls)
     interpolate  :      0.14s CPU      0.15s WALL (      35 calls)

     Parallel routines

     PWSCF        :   4m34.94s CPU   4m40.37s WALL


   This run was terminated on:  15:54:15  23Jun2025            

=------------------------------------------------------------------------------=
   JOB DONE.
=------------------------------------------------------------------------------=
Note: The following floating-point exceptions are signalling: IEEE_INVALID_FLAG
