
     Program PWSCF v.7.2 starts on 23Jun2025 at 18:34:32 

     This program is part of the open-source Quantum ESPRESSO suite
     for quantum simulation of materials; please cite
         "P. Giannozzi et al., J. Phys.:Condens. Matter 21 395502 (2009);
         "P. Giannozzi et al., J. Phys.:Condens. Matter 29 465901 (2017);
         "P. Giannozzi et al., J. Chem. Phys. 152 154105 (2020);
          URL http://www.quantum-espresso.org", 
     in publications or presentations arising from this work. More details at
     http://www.quantum-espresso.org/quote

     Parallel version (MPI), running on     8 processors

     MPI processes distributed on     1 nodes
     90647 MiB available memory on the printing compute node when the environment starts

     Reading input from /home/jvc/QEspresso7.2/ZnO_DataBase/scfs_rnd025.in/scf-6.80-1.61-5.in

     Current dimensions of program PWSCF are:
     Max number of different atomic species (ntypx) = 10
     Max number of k-points (npk) =  40000
     Max angular momentum in pseudopotentials (lmaxx) =  4
     file Zn.upf: wavefunction(s)  3D renormalized

     R & G space division:  proc/nbgrp/npool/nimage =       8
     Subspace diagonalization in iterative solution of the eigenvalue problem:
     a serial algorithm will be used


     Parallelization info
     --------------------
     sticks:   dense  smooth     PW     G-vecs:    dense   smooth      PW
     Min         160      80     24                 7420     2616     431
     Max         162      82     25                 7421     2619     433
     Sum        1285     649    199                59361    20941    3453

     Using Slab Decomposition



     bravais-lattice index     =            4
     lattice parameter (alat)  =       6.7967  a.u.
     unit-cell volume          =     438.9606 (a.u.)^3
     number of atoms/cell      =            4
     number of atomic types    =            2
     number of electrons       =        36.00
     number of Kohn-Sham states=           18
     kinetic-energy cutoff     =      50.0000  Ry
     charge density cutoff     =     400.0000  Ry
     scf convergence threshold =      1.0E-08
     mixing beta               =       0.3000
     number of iterations used =            8  plain     mixing
     Exchange-correlation= PBE
                           (   1   4   3   4   0   0   0)

     celldm(1)=   6.796704  celldm(2)=   0.000000  celldm(3)=   1.614358
     celldm(4)=   0.000000  celldm(5)=   0.000000  celldm(6)=   0.000000

     crystal axes: (cart. coord. in units of alat)
               a(1) = (   1.000000   0.000000   0.000000 )  
               a(2) = (  -0.500000   0.866025   0.000000 )  
               a(3) = (   0.000000   0.000000   1.614358 )  

     reciprocal axes: (cart. coord. in units 2 pi/alat)
               b(1) = (  1.000000  0.577350 -0.000000 )  
               b(2) = (  0.000000  1.154701  0.000000 )  
               b(3) = (  0.000000 -0.000000  0.619441 )  


     PseudoPot. # 1 for Zn read from file:
     ./pseudos/Zn.upf
     MD5 check sum: 7f56cabf9682ed8c977c2f7d0c5985c5
     Pseudo is Ultrasoft + core correction, Zval = 12.0
     Generated using &quot;atomic&quot; code by A. Dal Corso  v.6.2.2
     Using radial grid of 1201 points,  6 beta functions with: 
                l(1) =   0
                l(2) =   0
                l(3) =   1
                l(4) =   1
                l(5) =   2
                l(6) =   2
     Q(r) pseudized with 0 coefficients 


     PseudoPot. # 2 for O  read from file:
     ./pseudos/O.upf
     MD5 check sum: 91400c9766925bcf19f520983a725ff0
     Pseudo is Ultrasoft + core correction, Zval =  6.0
     Generated using &quot;atomic&quot; code by A. Dal Corso  v.6.3MaX
     Using radial grid of 1095 points,  4 beta functions with: 
                l(1) =   0
                l(2) =   0
                l(3) =   1
                l(4) =   1
     Q(r) pseudized with 0 coefficients 


     atomic species   valence    mass     pseudopotential
        Zn            12.00    63.38000     Zn( 1.00)
        O              6.00    15.99900     O ( 1.00)

     No symmetry found



   Cartesian axes

     site n.     atom                  positions (alat units)
         1           Zn  tau(   1) = (   0.6952648   0.0989951   0.7581460  )
         2           Zn  tau(   2) = (   0.1589068   0.3689384   0.2268879  )
         3           O   tau(   3) = (   0.3421047   0.3910122   1.5268302  )
         4           O   tau(   4) = (   0.0364286   0.3779370   0.7826572  )

     number of k points=   112

     Number of k-points >= 100: set verbosity='high' to print them.

     Dense  grid:    59361 G-vectors     FFT dimensions: (  45,  45,  72)

     Smooth grid:    20941 G-vectors     FFT dimensions: (  32,  32,  50)

     Estimated max dynamical RAM per process >      39.72 MB

     Estimated total dynamical RAM >     317.77 MB

     Check: negative core charge=   -0.000002

     Initial potential from superposition of free atoms

     starting charge      35.9925, renormalised to      36.0000
     Starting wfcs are   26 randomized atomic wfcs

     total cpu time spent up to now is        4.3 secs

     Self-consistent Calculation

     iteration #  1     ecut=    50.00 Ry     beta= 0.30
     Davidson diagonalization with overlap
     ethr =  1.00E-02,  avg # of iterations =  2.0

     total cpu time spent up to now is       10.5 secs

     total energy              =    -360.54842179 Ry
     estimated scf accuracy    <       1.41577947 Ry

     iteration #  2     ecut=    50.00 Ry     beta= 0.30
     Davidson diagonalization with overlap
     ethr =  3.93E-03,  avg # of iterations =  3.7

     total cpu time spent up to now is       17.5 secs

     total energy              =    -360.71944527 Ry
     estimated scf accuracy    <       0.14748848 Ry

     iteration #  3     ecut=    50.00 Ry     beta= 0.30
     Davidson diagonalization with overlap
     ethr =  4.10E-04,  avg # of iterations = 10.1

     total cpu time spent up to now is       31.0 secs

     total energy              =    -360.88974191 Ry
     estimated scf accuracy    <       0.59693230 Ry

     iteration #  4     ecut=    50.00 Ry     beta= 0.30
     Davidson diagonalization with overlap
     ethr =  4.10E-04,  avg # of iterations =  2.1

     total cpu time spent up to now is       37.2 secs

     total energy              =    -360.57360472 Ry
     estimated scf accuracy    <       0.37517912 Ry

     iteration #  5     ecut=    50.00 Ry     beta= 0.30
     Davidson diagonalization with overlap
     ethr =  4.10E-04,  avg # of iterations =  9.8

     total cpu time spent up to now is       58.2 secs

     total energy              =    -360.95590358 Ry
     estimated scf accuracy    <       2.54181437 Ry

     iteration #  6     ecut=    50.00 Ry     beta= 0.30
     Davidson diagonalization with overlap
     ethr =  4.10E-04,  avg # of iterations =  5.6

     total cpu time spent up to now is       69.3 secs

     total energy              =    -361.05163956 Ry
     estimated scf accuracy    <       0.80200452 Ry

     iteration #  7     ecut=    50.00 Ry     beta= 0.30
     Davidson diagonalization with overlap
     ethr =  4.10E-04,  avg # of iterations =  1.0

     total cpu time spent up to now is       74.6 secs

     total energy              =    -360.59578921 Ry
     estimated scf accuracy    <       0.77642863 Ry

     iteration #  8     ecut=    50.00 Ry     beta= 0.30
     Davidson diagonalization with overlap
     c_bands:  1 eigenvalues not converged
     c_bands:  1 eigenvalues not converged
     c_bands:  2 eigenvalues not converged
     c_bands:  1 eigenvalues not converged
     c_bands:  1 eigenvalues not converged
     c_bands:  2 eigenvalues not converged
     ethr =  4.10E-04,  avg # of iterations = 12.4

     total cpu time spent up to now is       87.8 secs

     total energy              =    -360.94652809 Ry
     estimated scf accuracy    <       1.30439843 Ry

     iteration #  9     ecut=    50.00 Ry     beta= 0.30
     Davidson diagonalization with overlap
     ethr =  4.10E-04,  avg # of iterations =  1.7

     total cpu time spent up to now is       93.5 secs

     total energy              =    -360.96695968 Ry
     estimated scf accuracy    <       1.07881859 Ry

     iteration # 10     ecut=    50.00 Ry     beta= 0.30
     Davidson diagonalization with overlap
     ethr =  4.10E-04,  avg # of iterations =  1.0

     total cpu time spent up to now is       98.8 secs

     total energy              =    -360.90774084 Ry
     estimated scf accuracy    <       1.08214837 Ry

     iteration # 11     ecut=    50.00 Ry     beta= 0.30
     Davidson diagonalization with overlap
     ethr =  4.10E-04,  avg # of iterations =  3.0

     total cpu time spent up to now is      105.1 secs

     total energy              =    -360.98064629 Ry
     estimated scf accuracy    <       0.80204454 Ry

     iteration # 12     ecut=    50.00 Ry     beta= 0.30
     Davidson diagonalization with overlap
     ethr =  4.10E-04,  avg # of iterations =  1.2

     total cpu time spent up to now is      110.5 secs

     total energy              =    -360.71128754 Ry
     estimated scf accuracy    <       0.87870946 Ry

     iteration # 13     ecut=    50.00 Ry     beta= 0.30
     Davidson diagonalization with overlap
     ethr =  4.10E-04,  avg # of iterations =  9.6

     total cpu time spent up to now is      121.7 secs

     total energy              =    -360.91607584 Ry
     estimated scf accuracy    <       0.05586416 Ry

     iteration # 14     ecut=    50.00 Ry     beta= 0.30
     Davidson diagonalization with overlap
     ethr =  1.55E-04,  avg # of iterations =  5.1

     total cpu time spent up to now is      129.6 secs

     total energy              =    -360.91143203 Ry
     estimated scf accuracy    <       0.17166988 Ry

     iteration # 15     ecut=    50.00 Ry     beta= 0.30
     Davidson diagonalization with overlap
     ethr =  1.55E-04,  avg # of iterations =  1.0

     total cpu time spent up to now is      134.8 secs

     total energy              =    -360.89775029 Ry
     estimated scf accuracy    <       0.14616669 Ry

     iteration # 16     ecut=    50.00 Ry     beta= 0.30
     Davidson diagonalization with overlap
     ethr =  1.55E-04,  avg # of iterations =  1.7

     total cpu time spent up to now is      140.6 secs

     total energy              =    -360.85394353 Ry
     estimated scf accuracy    <       0.10338669 Ry

     iteration # 17     ecut=    50.00 Ry     beta= 0.30
     Davidson diagonalization with overlap
     ethr =  1.55E-04,  avg # of iterations =  7.1

     total cpu time spent up to now is      149.7 secs

     total energy              =    -360.88124896 Ry
     estimated scf accuracy    <       0.04400869 Ry

     iteration # 18     ecut=    50.00 Ry     beta= 0.30
     Davidson diagonalization with overlap
     ethr =  1.22E-04,  avg # of iterations =  2.0

     total cpu time spent up to now is      155.6 secs

     total energy              =    -360.88559309 Ry
     estimated scf accuracy    <       0.01988213 Ry

     iteration # 19     ecut=    50.00 Ry     beta= 0.30
     Davidson diagonalization with overlap
     ethr =  5.52E-05,  avg # of iterations =  2.2

     total cpu time spent up to now is      161.5 secs

     total energy              =    -360.88206088 Ry
     estimated scf accuracy    <       0.01916866 Ry

     iteration # 20     ecut=    50.00 Ry     beta= 0.30
     Davidson diagonalization with overlap
     ethr =  5.32E-05,  avg # of iterations =  7.3

     total cpu time spent up to now is      169.4 secs

     total energy              =    -360.88979227 Ry
     estimated scf accuracy    <       0.00263003 Ry

     iteration # 21     ecut=    50.00 Ry     beta= 0.30
     Davidson diagonalization with overlap
     c_bands:  1 eigenvalues not converged
     c_bands:  1 eigenvalues not converged
     ethr =  7.31E-06,  avg # of iterations = 10.6

     total cpu time spent up to now is      182.6 secs

     total energy              =    -360.87782575 Ry
     estimated scf accuracy    <       0.03809305 Ry

     iteration # 22     ecut=    50.00 Ry     beta= 0.30
     Davidson diagonalization with overlap
     c_bands:  2 eigenvalues not converged
     ethr =  7.31E-06,  avg # of iterations = 13.7

     total cpu time spent up to now is      199.6 secs

     total energy              =    -360.89238752 Ry
     estimated scf accuracy    <       0.00975425 Ry

     iteration # 23     ecut=    50.00 Ry     beta= 0.30
     Davidson diagonalization with overlap
     c_bands:  2 eigenvalues not converged
     ethr =  7.31E-06,  avg # of iterations =  7.1

     total cpu time spent up to now is      208.8 secs

     total energy              =    -360.87809261 Ry
     estimated scf accuracy    <       0.04231187 Ry

     iteration # 24     ecut=    50.00 Ry     beta= 0.30
     Davidson diagonalization with overlap
     c_bands:  2 eigenvalues not converged
     c_bands:  1 eigenvalues not converged
     ethr =  7.31E-06,  avg # of iterations = 13.2

     total cpu time spent up to now is      225.7 secs

     total energy              =    -360.88538180 Ry
     estimated scf accuracy    <       0.00568352 Ry

     iteration # 25     ecut=    50.00 Ry     beta= 0.30
     Davidson diagonalization with overlap
     c_bands:  2 eigenvalues not converged
     ethr =  7.31E-06,  avg # of iterations =  8.7

     total cpu time spent up to now is      236.1 secs

     total energy              =    -360.88705006 Ry
     estimated scf accuracy    <       0.00542466 Ry

     iteration # 26     ecut=    50.00 Ry     beta= 0.30
     Davidson diagonalization with overlap
     ethr =  7.31E-06,  avg # of iterations =  3.5

     total cpu time spent up to now is      242.6 secs

     total energy              =    -360.88681490 Ry
     estimated scf accuracy    <       0.00203141 Ry

     iteration # 27     ecut=    50.00 Ry     beta= 0.30
     Davidson diagonalization with overlap
     ethr =  5.64E-06,  avg # of iterations =  6.8

     total cpu time spent up to now is      250.5 secs

     total energy              =    -360.88749528 Ry
     estimated scf accuracy    <       0.00014231 Ry

     iteration # 28     ecut=    50.00 Ry     beta= 0.30
     Davidson diagonalization with overlap
     ethr =  3.95E-07,  avg # of iterations =  6.7

     total cpu time spent up to now is      259.9 secs

     total energy              =    -360.88740944 Ry
     estimated scf accuracy    <       0.00053391 Ry

     iteration # 29     ecut=    50.00 Ry     beta= 0.30
     Davidson diagonalization with overlap
     ethr =  3.95E-07,  avg # of iterations =  7.3

     total cpu time spent up to now is      268.8 secs

     total energy              =    -360.88748259 Ry
     estimated scf accuracy    <       0.00001271 Ry

     iteration # 30     ecut=    50.00 Ry     beta= 0.30
     Davidson diagonalization with overlap
     ethr =  3.53E-08,  avg # of iterations =  9.4

     total cpu time spent up to now is      280.1 secs

     total energy              =    -360.88748901 Ry
     estimated scf accuracy    <       0.00005933 Ry

     iteration # 31     ecut=    50.00 Ry     beta= 0.30
     Davidson diagonalization with overlap
     ethr =  3.53E-08,  avg # of iterations =  1.8

     total cpu time spent up to now is      285.9 secs

     total energy              =    -360.88747150 Ry
     estimated scf accuracy    <       0.00004336 Ry

     iteration # 32     ecut=    50.00 Ry     beta= 0.30
     Davidson diagonalization with overlap
     c_bands:  2 eigenvalues not converged
     c_bands:  2 eigenvalues not converged
     ethr =  3.53E-08,  avg # of iterations = 10.5

     total cpu time spent up to now is      297.8 secs

     total energy              =    -360.88748558 Ry
     estimated scf accuracy    <       0.00002222 Ry

     iteration # 33     ecut=    50.00 Ry     beta= 0.30
     Davidson diagonalization with overlap
     ethr =  3.53E-08,  avg # of iterations =  2.5

     total cpu time spent up to now is      304.0 secs

     total energy              =    -360.88748379 Ry
     estimated scf accuracy    <       0.00001059 Ry

     iteration # 34     ecut=    50.00 Ry     beta= 0.30
     Davidson diagonalization with overlap
     ethr =  2.94E-08,  avg # of iterations =  6.8

     total cpu time spent up to now is      311.9 secs

     total energy              =    -360.88748687 Ry
     estimated scf accuracy    <       0.00000051 Ry

     iteration # 35     ecut=    50.00 Ry     beta= 0.30
     Davidson diagonalization with overlap
     c_bands:  2 eigenvalues not converged
     c_bands:  2 eigenvalues not converged
     ethr =  1.43E-09,  avg # of iterations =  6.3

     total cpu time spent up to now is      320.8 secs

     total energy              =    -360.88748703 Ry
     estimated scf accuracy    <       0.00000125 Ry

     iteration # 36     ecut=    50.00 Ry     beta= 0.30
     Davidson diagonalization with overlap
     ethr =  1.43E-09,  avg # of iterations =  1.2

     total cpu time spent up to now is      326.3 secs

     total energy              =    -360.88748687 Ry
     estimated scf accuracy    <       0.00000099 Ry

     iteration # 37     ecut=    50.00 Ry     beta= 0.30
     Davidson diagonalization with overlap
     ethr =  1.43E-09,  avg # of iterations =  4.6

     total cpu time spent up to now is      333.1 secs

     total energy              =    -360.88748688 Ry
     estimated scf accuracy    <       0.00000026 Ry

     iteration # 38     ecut=    50.00 Ry     beta= 0.30
     Davidson diagonalization with overlap
     ethr =  7.29E-10,  avg # of iterations =  5.8

     total cpu time spent up to now is      340.5 secs

     total energy              =    -360.88748694 Ry
     estimated scf accuracy    <       0.00000002 Ry

     iteration # 39     ecut=    50.00 Ry     beta= 0.30
     Davidson diagonalization with overlap
     ethr =  4.17E-11,  avg # of iterations =  7.4

     total cpu time spent up to now is      350.3 secs

     End of self-consistent calculation

     Number of k-points >= 100: set verbosity='high' to print the bands.

     highest occupied level (ev):     4.0891

!    total energy              =    -360.88748694 Ry
     estimated scf accuracy    <          7.5E-09 Ry

     The total energy is the sum of the following terms:
     one-electron contribution =    -231.59169995 Ry
     hartree contribution      =     150.87389726 Ry
     xc contribution           =    -109.44792614 Ry
     ewald contribution        =    -170.72175811 Ry

     convergence has been achieved in  39 iterations

     Forces acting on atoms (cartesian axes, Ry/au):

     atom    1 type  1   force =    -0.27735180   -0.23580405    0.02778260
     atom    2 type  1   force =    -0.68093660   -0.07530188    1.20697741
     atom    3 type  2   force =     0.70173917    0.08023581   -1.19810024
     atom    4 type  2   force =     0.25654924    0.23087011   -0.03665977
     The non-local contrib.  to forces
     atom    1 type  1   force =    -0.72232609   -0.56627297   -0.05230957
     atom    2 type  1   force =    -0.58545992   -0.07897474    1.00249823
     atom    3 type  2   force =    -0.67644154   -0.10338815    1.21805739
     atom    4 type  2   force =    -0.58300411   -0.21484569   -0.87751627
     The ionic contribution  to forces
     atom    1 type  1   force =    -6.63180803   -4.58937705   10.62664076
     atom    2 type  1   force =    -7.88376304   -1.01273782   -0.27478840
     atom    3 type  2   force =     9.39756796    1.22758898  -19.81200480
     atom    4 type  2   force =     5.11800310    4.37452590    9.46015243
     The local contribution  to forces
     atom    1 type  1   force =     7.00964412    4.87191636  -10.54578806
     atom    2 type  1   force =     7.68637328    1.00238272    0.62648341
     atom    3 type  2   force =    -8.02146556   -1.04445028   17.39986432
     atom    4 type  2   force =    -4.28223831   -3.92913109   -8.62698863
     The core correction contribution to forces
     atom    1 type  1   force =     0.06713669    0.04794076   -0.00066087
     atom    2 type  1   force =     0.10202233    0.01404179   -0.14752174
     atom    3 type  2   force =     0.00205362    0.00048026   -0.00402629
     atom    4 type  2   force =     0.00377629    0.00031733    0.00776052
     The Hubbard contrib.    to forces
     atom    1 type  1   force =     0.00000000    0.00000000    0.00000000
     atom    2 type  1   force =     0.00000000    0.00000000    0.00000000
     atom    3 type  2   force =     0.00000000    0.00000000    0.00000000
     atom    4 type  2   force =     0.00000000    0.00000000    0.00000000
     The SCF correction term to forces
     atom    1 type  1   force =    -0.00001720   -0.00001747   -0.00007094
     atom    2 type  1   force =    -0.00012796   -0.00002016    0.00033464
     atom    3 type  2   force =     0.00000596   -0.00000132    0.00003787
     atom    4 type  2   force =    -0.00000645   -0.00000265   -0.00003911

     Total force =     2.028354     Total SCF correction =     0.000371

     Writing all to output data dir ./ZnO_ANN.save/

     init_run     :      3.85s CPU      3.92s WALL (       1 calls)
     electrons    :    341.06s CPU    346.07s WALL (       1 calls)
     forces       :      1.35s CPU      1.37s WALL (       1 calls)

     Called by init_run:
     wfcinit      :      2.92s CPU      2.96s WALL (       1 calls)
     potinit      :      0.30s CPU      0.30s WALL (       1 calls)
     hinit0       :      0.52s CPU      0.52s WALL (       1 calls)

     Called by electrons:
     c_bands      :    303.81s CPU    308.13s WALL (      39 calls)
     sum_band     :     33.15s CPU     33.74s WALL (      39 calls)
     v_of_rho     :      0.81s CPU      0.86s WALL (      40 calls)
     newd         :      3.17s CPU      3.20s WALL (      40 calls)
     mix_rho      :      0.14s CPU      0.15s WALL (      39 calls)

     Called by c_bands:
     init_us_2    :      2.45s CPU      2.49s WALL (    8960 calls)
     init_us_2:cp :      2.42s CPU      2.46s WALL (    8960 calls)
     cegterg      :    295.23s CPU    299.45s WALL (    4368 calls)

     Called by *egterg:
     cdiaghg      :     29.93s CPU     30.16s WALL (   29393 calls)
     h_psi        :    161.08s CPU    164.12s WALL (   29505 calls)
     s_psi        :     19.01s CPU     19.16s WALL (   29505 calls)
     g_psi        :      0.65s CPU      0.66s WALL (   25025 calls)

     Called by h_psi:
     h_psi:calbec :     26.09s CPU     26.74s WALL (   29505 calls)
     vloc_psi     :    115.51s CPU    117.76s WALL (   29505 calls)
     add_vuspsi   :     18.93s CPU     19.06s WALL (   29505 calls)

     General routines
     calbec       :     34.88s CPU     35.70s WALL (   34321 calls)
     fft          :      1.23s CPU      1.32s WALL (     529 calls)
     ffts         :      0.13s CPU      0.13s WALL (      79 calls)
     fftw         :    118.07s CPU    120.37s WALL (  574834 calls)
     interpolate  :      0.15s CPU      0.17s WALL (      40 calls)

     Parallel routines

     PWSCF        :   5m46.87s CPU   5m52.24s WALL


   This run was terminated on:  18:40:24  23Jun2025            

=------------------------------------------------------------------------------=
   JOB DONE.
=------------------------------------------------------------------------------=
Note: The following floating-point exceptions are signalling: IEEE_INVALID_FLAG
