
     Program PWSCF v.7.2 starts on 23Jun2025 at 12:56:52 

     This program is part of the open-source Quantum ESPRESSO suite
     for quantum simulation of materials; please cite
         "P. Giannozzi et al., J. Phys.:Condens. Matter 21 395502 (2009);
         "P. Giannozzi et al., J. Phys.:Condens. Matter 29 465901 (2017);
         "P. Giannozzi et al., J. Chem. Phys. 152 154105 (2020);
          URL http://www.quantum-espresso.org", 
     in publications or presentations arising from this work. More details at
     http://www.quantum-espresso.org/quote

     Parallel version (MPI), running on     8 processors

     MPI processes distributed on     1 nodes
     91235 MiB available memory on the printing compute node when the environment starts

     Reading input from /home/jvc/QEspresso7.2/ZnO_DataBase/scfs_rnd025.in/scf-5.81-1.71-5.in

     Current dimensions of program PWSCF are:
     Max number of different atomic species (ntypx) = 10
     Max number of k-points (npk) =  40000
     Max angular momentum in pseudopotentials (lmaxx) =  4
     file Zn.upf: wavefunction(s)  3D renormalized

     R & G space division:  proc/nbgrp/npool/nimage =       8
     Subspace diagonalization in iterative solution of the eigenvalue problem:
     a serial algorithm will be used


     Parallelization info
     --------------------
     sticks:   dense  smooth     PW     G-vecs:    dense   smooth      PW
     Min         116      57     18                 4901     1729     297
     Max         117      58     19                 4904     1734     299
     Sum         931     463    151                39225    13851    2383

     Using Slab Decomposition



     bravais-lattice index     =            4
     lattice parameter (alat)  =       5.8081  a.u.
     unit-cell volume          =     290.3601 (a.u.)^3
     number of atoms/cell      =            4
     number of atomic types    =            2
     number of electrons       =        36.00
     number of Kohn-Sham states=           18
     kinetic-energy cutoff     =      50.0000  Ry
     charge density cutoff     =     400.0000  Ry
     scf convergence threshold =      1.0E-08
     mixing beta               =       0.3000
     number of iterations used =            8  plain     mixing
     Exchange-correlation= PBE
                           (   1   4   3   4   0   0   0)

     celldm(1)=   5.808092  celldm(2)=   0.000000  celldm(3)=   1.711220
     celldm(4)=   0.000000  celldm(5)=   0.000000  celldm(6)=   0.000000

     crystal axes: (cart. coord. in units of alat)
               a(1) = (   1.000000   0.000000   0.000000 )  
               a(2) = (  -0.500000   0.866025   0.000000 )  
               a(3) = (   0.000000   0.000000   1.711220 )  

     reciprocal axes: (cart. coord. in units 2 pi/alat)
               b(1) = (  1.000000  0.577350 -0.000000 )  
               b(2) = (  0.000000  1.154701  0.000000 )  
               b(3) = (  0.000000 -0.000000  0.584378 )  


     PseudoPot. # 1 for Zn read from file:
     ./pseudos/Zn.upf
     MD5 check sum: 7f56cabf9682ed8c977c2f7d0c5985c5
     Pseudo is Ultrasoft + core correction, Zval = 12.0
     Generated using &quot;atomic&quot; code by A. Dal Corso  v.6.2.2
     Using radial grid of 1201 points,  6 beta functions with: 
                l(1) =   0
                l(2) =   0
                l(3) =   1
                l(4) =   1
                l(5) =   2
                l(6) =   2
     Q(r) pseudized with 0 coefficients 


     PseudoPot. # 2 for O  read from file:
     ./pseudos/O.upf
     MD5 check sum: 91400c9766925bcf19f520983a725ff0
     Pseudo is Ultrasoft + core correction, Zval =  6.0
     Generated using &quot;atomic&quot; code by A. Dal Corso  v.6.3MaX
     Using radial grid of 1095 points,  4 beta functions with: 
                l(1) =   0
                l(2) =   0
                l(3) =   1
                l(4) =   1
     Q(r) pseudized with 0 coefficients 


     atomic species   valence    mass     pseudopotential
        Zn            12.00    63.38000     Zn( 1.00)
        O              6.00    15.99900     O ( 1.00)

     No symmetry found



   Cartesian axes

     site n.     atom                  positions (alat units)
         1           Zn  tau(   1) = (   0.2221005   0.4697459   0.5743566  )
         2           Zn  tau(   2) = (   0.0271612   0.7552405  -0.3649030  )
         3           O   tau(   3) = (   0.2528457   0.2971563   1.8739001  )
         4           O   tau(   4) = (  -0.1636171   0.4402792   0.5392126  )

     number of k points=   112

     Number of k-points >= 100: set verbosity='high' to print them.

     Dense  grid:    39225 G-vectors     FFT dimensions: (  40,  40,  64)

     Smooth grid:    13851 G-vectors     FFT dimensions: (  27,  27,  45)

     Estimated max dynamical RAM per process >      27.39 MB

     Estimated total dynamical RAM >     219.14 MB

     Check: negative core charge=   -0.000002

     Initial potential from superposition of free atoms

     starting charge      35.9925, renormalised to      36.0000
     Starting wfcs are   26 randomized atomic wfcs

     total cpu time spent up to now is        3.8 secs

     Self-consistent Calculation

     iteration #  1     ecut=    50.00 Ry     beta= 0.30
     Davidson diagonalization with overlap
     ethr =  1.00E-02,  avg # of iterations =  3.0

     total cpu time spent up to now is        9.3 secs

     total energy              =    -359.47899322 Ry
     estimated scf accuracy    <       1.60281818 Ry

     iteration #  2     ecut=    50.00 Ry     beta= 0.30
     Davidson diagonalization with overlap
     ethr =  4.45E-03,  avg # of iterations =  3.0

     total cpu time spent up to now is       15.1 secs

     total energy              =    -359.60335816 Ry
     estimated scf accuracy    <       0.22222105 Ry

     iteration #  3     ecut=    50.00 Ry     beta= 0.30
     Davidson diagonalization with overlap
     c_bands:  1 eigenvalues not converged
     c_bands:  1 eigenvalues not converged
     ethr =  6.17E-04,  avg # of iterations = 12.4

     total cpu time spent up to now is       28.4 secs

     total energy              =    -359.88564611 Ry
     estimated scf accuracy    <       1.01082775 Ry

     iteration #  4     ecut=    50.00 Ry     beta= 0.30
     Davidson diagonalization with overlap
     ethr =  6.17E-04,  avg # of iterations =  2.1

     total cpu time spent up to now is       33.3 secs

     total energy              =    -359.40523830 Ry
     estimated scf accuracy    <       0.66050776 Ry

     iteration #  5     ecut=    50.00 Ry     beta= 0.30
     Davidson diagonalization with overlap
     c_bands:  1 eigenvalues not converged
     c_bands:  1 eigenvalues not converged
     c_bands:  1 eigenvalues not converged
     c_bands:  1 eigenvalues not converged
     c_bands:  1 eigenvalues not converged
     c_bands:  1 eigenvalues not converged
     c_bands:  1 eigenvalues not converged
     ethr =  6.17E-04,  avg # of iterations = 15.1

     total cpu time spent up to now is       51.1 secs

     total energy              =    -360.02587827 Ry
     estimated scf accuracy    <       2.50113279 Ry

     iteration #  6     ecut=    50.00 Ry     beta= 0.30
     Davidson diagonalization with overlap
     ethr =  6.17E-04,  avg # of iterations =  5.6

     total cpu time spent up to now is       57.0 secs

     total energy              =    -359.66700477 Ry
     estimated scf accuracy    <       1.37622606 Ry

     iteration #  7     ecut=    50.00 Ry     beta= 0.30
     Davidson diagonalization with overlap
     ethr =  6.17E-04,  avg # of iterations =  9.0

     total cpu time spent up to now is       67.1 secs

     total energy              =    -359.87324334 Ry
     estimated scf accuracy    <       0.05669787 Ry

     iteration #  8     ecut=    50.00 Ry     beta= 0.30
     Davidson diagonalization with overlap
     ethr =  1.57E-04,  avg # of iterations =  2.8

     total cpu time spent up to now is       72.2 secs

     total energy              =    -359.91533199 Ry
     estimated scf accuracy    <       0.08448705 Ry

     iteration #  9     ecut=    50.00 Ry     beta= 0.30
     Davidson diagonalization with overlap
     ethr =  1.57E-04,  avg # of iterations =  7.3

     total cpu time spent up to now is       79.7 secs

     total energy              =    -359.91593466 Ry
     estimated scf accuracy    <       0.37133502 Ry

     iteration # 10     ecut=    50.00 Ry     beta= 0.30
     Davidson diagonalization with overlap
     ethr =  1.57E-04,  avg # of iterations =  1.1

     total cpu time spent up to now is       84.1 secs

     total energy              =    -359.81275612 Ry
     estimated scf accuracy    <       0.33575523 Ry

     iteration # 11     ecut=    50.00 Ry     beta= 0.30
     Davidson diagonalization with overlap
     ethr =  1.57E-04,  avg # of iterations =  8.7

     total cpu time spent up to now is       93.3 secs

     total energy              =    -359.85347873 Ry
     estimated scf accuracy    <       0.00800686 Ry

     iteration # 12     ecut=    50.00 Ry     beta= 0.30
     Davidson diagonalization with overlap
     c_bands:  1 eigenvalues not converged
     ethr =  2.22E-05,  avg # of iterations = 12.5

     total cpu time spent up to now is      104.5 secs

     total energy              =    -359.86364992 Ry
     estimated scf accuracy    <       0.02619637 Ry

     iteration # 13     ecut=    50.00 Ry     beta= 0.30
     Davidson diagonalization with overlap
     ethr =  2.22E-05,  avg # of iterations =  1.2

     total cpu time spent up to now is      109.0 secs

     total energy              =    -359.85500890 Ry
     estimated scf accuracy    <       0.02294130 Ry

     iteration # 14     ecut=    50.00 Ry     beta= 0.30
     Davidson diagonalization with overlap
     ethr =  2.22E-05,  avg # of iterations =  8.3

     total cpu time spent up to now is      117.5 secs

     total energy              =    -359.85974189 Ry
     estimated scf accuracy    <       0.00069984 Ry

     iteration # 15     ecut=    50.00 Ry     beta= 0.30
     Davidson diagonalization with overlap
     c_bands:  1 eigenvalues not converged
     ethr =  1.94E-06,  avg # of iterations =  9.2

     total cpu time spent up to now is      127.1 secs

     total energy              =    -359.86061080 Ry
     estimated scf accuracy    <       0.00175752 Ry

     iteration # 16     ecut=    50.00 Ry     beta= 0.30
     Davidson diagonalization with overlap
     ethr =  1.94E-06,  avg # of iterations =  1.9

     total cpu time spent up to now is      132.0 secs

     total energy              =    -359.86194557 Ry
     estimated scf accuracy    <       0.00240986 Ry

     iteration # 17     ecut=    50.00 Ry     beta= 0.30
     Davidson diagonalization with overlap
     c_bands:  1 eigenvalues not converged
     c_bands:  1 eigenvalues not converged
     c_bands:  1 eigenvalues not converged
     ethr =  1.94E-06,  avg # of iterations = 11.7

     total cpu time spent up to now is      144.0 secs

     total energy              =    -359.86413758 Ry
     estimated scf accuracy    <       0.01500894 Ry

     iteration # 18     ecut=    50.00 Ry     beta= 0.30
     Davidson diagonalization with overlap
     ethr =  1.94E-06,  avg # of iterations =  3.7

     total cpu time spent up to now is      149.4 secs

     total energy              =    -359.86380738 Ry
     estimated scf accuracy    <       0.01897987 Ry

     iteration # 19     ecut=    50.00 Ry     beta= 0.30
     Davidson diagonalization with overlap
     ethr =  1.94E-06,  avg # of iterations =  1.1

     total cpu time spent up to now is      153.8 secs

     total energy              =    -359.86474324 Ry
     estimated scf accuracy    <       0.01867607 Ry

     iteration # 20     ecut=    50.00 Ry     beta= 0.30
     Davidson diagonalization with overlap
     ethr =  1.94E-06,  avg # of iterations =  6.6

     total cpu time spent up to now is      160.4 secs

     total energy              =    -359.85535363 Ry
     estimated scf accuracy    <       0.02549545 Ry

     iteration # 21     ecut=    50.00 Ry     beta= 0.30
     Davidson diagonalization with overlap
     c_bands:  1 eigenvalues not converged
     c_bands:  1 eigenvalues not converged
     c_bands:  1 eigenvalues not converged
     c_bands:  1 eigenvalues not converged
     c_bands:  1 eigenvalues not converged
     c_bands:  1 eigenvalues not converged
     c_bands:  1 eigenvalues not converged
     c_bands:  1 eigenvalues not converged
     c_bands:  1 eigenvalues not converged
     c_bands:  1 eigenvalues not converged
     c_bands:  2 eigenvalues not converged
     c_bands:  1 eigenvalues not converged
     c_bands:  1 eigenvalues not converged
     c_bands:  1 eigenvalues not converged
     c_bands:  1 eigenvalues not converged
     c_bands:  1 eigenvalues not converged
     c_bands:  1 eigenvalues not converged
     c_bands:  1 eigenvalues not converged
     c_bands:  1 eigenvalues not converged
     c_bands:  1 eigenvalues not converged
     c_bands:  1 eigenvalues not converged
     c_bands:  1 eigenvalues not converged
     c_bands:  1 eigenvalues not converged
     c_bands:  1 eigenvalues not converged
     c_bands:  1 eigenvalues not converged
     ethr =  1.94E-06,  avg # of iterations = 17.4

     total cpu time spent up to now is      178.9 secs

     total energy              =    -359.85980600 Ry
     estimated scf accuracy    <       0.00041713 Ry

     iteration # 22     ecut=    50.00 Ry     beta= 0.30
     Davidson diagonalization with overlap
     c_bands:  1 eigenvalues not converged
     c_bands:  1 eigenvalues not converged
     c_bands:  1 eigenvalues not converged
     ethr =  1.16E-06,  avg # of iterations = 13.5

     total cpu time spent up to now is      193.5 secs

     total energy              =    -359.85907855 Ry
     estimated scf accuracy    <       0.00423629 Ry

     iteration # 23     ecut=    50.00 Ry     beta= 0.30
     Davidson diagonalization with overlap
     c_bands:  1 eigenvalues not converged
     c_bands:  1 eigenvalues not converged
     c_bands:  1 eigenvalues not converged
     c_bands:  1 eigenvalues not converged
     c_bands:  1 eigenvalues not converged
     c_bands:  1 eigenvalues not converged
     ethr =  1.16E-06,  avg # of iterations = 13.1

     total cpu time spent up to now is      208.0 secs

     total energy              =    -359.85999121 Ry
     estimated scf accuracy    <       0.00019911 Ry

     iteration # 24     ecut=    50.00 Ry     beta= 0.30
     Davidson diagonalization with overlap
     ethr =  5.53E-07,  avg # of iterations =  2.4

     total cpu time spent up to now is      212.8 secs

     total energy              =    -359.85996662 Ry
     estimated scf accuracy    <       0.00007704 Ry

     iteration # 25     ecut=    50.00 Ry     beta= 0.30
     Davidson diagonalization with overlap
     ethr =  2.14E-07,  avg # of iterations =  8.5

     total cpu time spent up to now is      221.7 secs

     total energy              =    -359.86000905 Ry
     estimated scf accuracy    <       0.00006354 Ry

     iteration # 26     ecut=    50.00 Ry     beta= 0.30
     Davidson diagonalization with overlap
     ethr =  1.76E-07,  avg # of iterations =  1.8

     total cpu time spent up to now is      226.3 secs

     total energy              =    -359.86000109 Ry
     estimated scf accuracy    <       0.00003006 Ry

     iteration # 27     ecut=    50.00 Ry     beta= 0.30
     Davidson diagonalization with overlap
     ethr =  8.35E-08,  avg # of iterations =  6.9

     total cpu time spent up to now is      233.5 secs

     total energy              =    -359.86001305 Ry
     estimated scf accuracy    <       0.00000321 Ry

     iteration # 28     ecut=    50.00 Ry     beta= 0.30
     Davidson diagonalization with overlap
     ethr =  8.92E-09,  avg # of iterations =  5.7

     total cpu time spent up to now is      239.9 secs

     total energy              =    -359.86001228 Ry
     estimated scf accuracy    <       0.00000316 Ry

     iteration # 29     ecut=    50.00 Ry     beta= 0.30
     Davidson diagonalization with overlap
     ethr =  8.77E-09,  avg # of iterations =  6.8

     total cpu time spent up to now is      247.3 secs

     total energy              =    -359.86001365 Ry
     estimated scf accuracy    <       0.00000096 Ry

     iteration # 30     ecut=    50.00 Ry     beta= 0.30
     Davidson diagonalization with overlap
     ethr =  2.68E-09,  avg # of iterations =  3.9

     total cpu time spent up to now is      252.9 secs

     total energy              =    -359.86001354 Ry
     estimated scf accuracy    <       0.00000127 Ry

     iteration # 31     ecut=    50.00 Ry     beta= 0.30
     Davidson diagonalization with overlap
     ethr =  2.68E-09,  avg # of iterations =  1.7

     total cpu time spent up to now is      257.6 secs

     total energy              =    -359.86001332 Ry
     estimated scf accuracy    <       0.00000071 Ry

     iteration # 32     ecut=    50.00 Ry     beta= 0.30
     Davidson diagonalization with overlap
     ethr =  1.98E-09,  avg # of iterations =  5.7

     total cpu time spent up to now is      264.2 secs

     total energy              =    -359.86001351 Ry
     estimated scf accuracy    <       0.00000002 Ry

     iteration # 33     ecut=    50.00 Ry     beta= 0.30
     Davidson diagonalization with overlap
     c_bands:  1 eigenvalues not converged
     c_bands:  1 eigenvalues not converged
     c_bands:  1 eigenvalues not converged
     c_bands:  1 eigenvalues not converged
     c_bands:  1 eigenvalues not converged
     c_bands:  1 eigenvalues not converged
     c_bands:  1 eigenvalues not converged
     c_bands:  1 eigenvalues not converged
     c_bands:  1 eigenvalues not converged
     ethr =  4.43E-11,  avg # of iterations = 11.7

     total cpu time spent up to now is      277.4 secs

     total energy              =    -359.86001351 Ry
     estimated scf accuracy    <       0.00000008 Ry

     iteration # 34     ecut=    50.00 Ry     beta= 0.30
     Davidson diagonalization with overlap
     c_bands:  1 eigenvalues not converged
     c_bands:  1 eigenvalues not converged
     c_bands:  1 eigenvalues not converged
     ethr =  4.43E-11,  avg # of iterations = 12.7

     total cpu time spent up to now is      290.9 secs

     total energy              =    -359.86001354 Ry
     estimated scf accuracy    <       0.00000004 Ry

     iteration # 35     ecut=    50.00 Ry     beta= 0.30
     Davidson diagonalization with overlap
     ethr =  4.43E-11,  avg # of iterations =  4.3

     total cpu time spent up to now is      296.5 secs

     total energy              =    -359.86001353 Ry
     estimated scf accuracy    <       0.00000001 Ry

     iteration # 36     ecut=    50.00 Ry     beta= 0.30
     Davidson diagonalization with overlap
     ethr =  2.98E-11,  avg # of iterations =  8.4

     total cpu time spent up to now is      305.5 secs

     End of self-consistent calculation

     Number of k-points >= 100: set verbosity='high' to print the bands.

     highest occupied level (ev):    10.5630

!    total energy              =    -359.86001353 Ry
     estimated scf accuracy    <          8.8E-09 Ry

     The total energy is the sum of the following terms:
     one-electron contribution =    -172.94523611 Ry
     hartree contribution      =     127.81257768 Ry
     xc contribution           =    -110.17113038 Ry
     ewald contribution        =    -204.55622471 Ry

     convergence has been achieved in  36 iterations

     Forces acting on atoms (cartesian axes, Ry/au):

     atom    1 type  1   force =     2.66836304    0.60678312    1.21731217
     atom    2 type  1   force =     0.00521518   -0.00022402    0.04720874
     atom    3 type  2   force =     0.14198126   -0.44401774   -1.24298052
     atom    4 type  2   force =    -2.81555948   -0.16254136   -0.02154039
     The non-local contrib.  to forces
     atom    1 type  1   force =     0.10876681    0.16397612    0.32217344
     atom    2 type  1   force =    -0.09176182   -0.08630480    0.01133780
     atom    3 type  2   force =    -0.02456985    0.43525521    0.52349717
     atom    4 type  2   force =     0.81051196    0.22762984    0.70647196
     The ionic contribution  to forces
     atom    1 type  1   force =    16.85779798    6.51182693   19.41535445
     atom    2 type  1   force =    -0.13370644    0.93174231   -2.80327292
     atom    3 type  2   force =     2.04070875   -6.17885522  -18.30942082
     atom    4 type  2   force =   -18.76480029   -1.26471402    1.69733928
     The local contribution  to forces
     atom    1 type  1   force =   -14.08336782   -6.00169770  -18.38950305
     atom    2 type  1   force =     0.22725276   -0.84540250    2.83557758
     atom    3 type  2   force =    -1.87365701    5.30086446   16.54153806
     atom    4 type  2   force =    15.13445484    0.87588343   -2.41961881
     The core correction contribution to forces
     atom    1 type  1   force =    -0.21498014   -0.06736664   -0.13097359
     atom    2 type  1   force =     0.00345280   -0.00025973    0.00370141
     atom    3 type  2   force =    -0.00050460   -0.00125793    0.00158709
     atom    4 type  2   force =     0.00431692   -0.00134006   -0.00582168
     The Hubbard contrib.    to forces
     atom    1 type  1   force =     0.00000000    0.00000000    0.00000000
     atom    2 type  1   force =     0.00000000    0.00000000    0.00000000
     atom    3 type  2   force =     0.00000000    0.00000000    0.00000000
     atom    4 type  2   force =     0.00000000    0.00000000    0.00000000
     The SCF correction term to forces
     atom    1 type  1   force =     0.00017525    0.00005204    0.00028049
     atom    2 type  1   force =     0.00000692    0.00000832   -0.00011556
     atom    3 type  2   force =     0.00003301   -0.00001663   -0.00016245
     atom    4 type  2   force =    -0.00001389    0.00000708    0.00010842

     Total force =     4.323080     Total SCF correction =     0.000407

     Writing all to output data dir ./ZnO_ANN.save/

     init_run     :      3.21s CPU      3.30s WALL (       1 calls)
     electrons    :    295.78s CPU    301.72s WALL (       1 calls)
     forces       :      0.98s CPU      0.99s WALL (       1 calls)

     Called by init_run:
     wfcinit      :      2.45s CPU      2.50s WALL (       1 calls)
     potinit      :      0.19s CPU      0.20s WALL (       1 calls)
     hinit0       :      0.50s CPU      0.52s WALL (       1 calls)

     Called by electrons:
     c_bands      :    268.58s CPU    273.82s WALL (      36 calls)
     sum_band     :     24.75s CPU     25.37s WALL (      36 calls)
     v_of_rho     :      0.50s CPU      0.54s WALL (      37 calls)
     newd         :      1.87s CPU      1.90s WALL (      37 calls)
     mix_rho      :      0.09s CPU      0.10s WALL (      36 calls)

     Called by c_bands:
     init_us_2    :      1.67s CPU      1.70s WALL (    8288 calls)
     init_us_2:cp :      1.64s CPU      1.68s WALL (    8288 calls)
     cegterg      :    263.41s CPU    268.55s WALL (    4032 calls)

     Called by *egterg:
     cdiaghg      :     36.72s CPU     37.10s WALL (   32123 calls)
     h_psi        :    152.17s CPU    155.87s WALL (   32235 calls)
     s_psi        :     17.95s CPU     18.14s WALL (   32235 calls)
     g_psi        :      0.50s CPU      0.51s WALL (   28091 calls)

     Called by h_psi:
     h_psi:calbec :     18.65s CPU     19.41s WALL (   32235 calls)
     vloc_psi     :    115.02s CPU    117.75s WALL (   32235 calls)
     add_vuspsi   :     17.94s CPU     18.16s WALL (   32235 calls)

     General routines
     calbec       :     24.06s CPU     25.00s WALL (   36715 calls)
     fft          :      0.62s CPU      0.68s WALL (     490 calls)
     ffts         :      0.08s CPU      0.09s WALL (      73 calls)
     fftw         :    116.66s CPU    119.47s WALL (  596654 calls)
     interpolate  :      0.09s CPU      0.10s WALL (      37 calls)

     Parallel routines

     PWSCF        :   5m 0.70s CPU   5m 6.91s WALL


   This run was terminated on:  13: 1:59  23Jun2025            

=------------------------------------------------------------------------------=
   JOB DONE.
=------------------------------------------------------------------------------=
Note: The following floating-point exceptions are signalling: IEEE_INVALID_FLAG
