
     Program PWSCF v.7.2 starts on 23Jun2025 at 17:37:10 

     This program is part of the open-source Quantum ESPRESSO suite
     for quantum simulation of materials; please cite
         "P. Giannozzi et al., J. Phys.:Condens. Matter 21 395502 (2009);
         "P. Giannozzi et al., J. Phys.:Condens. Matter 29 465901 (2017);
         "P. Giannozzi et al., J. Chem. Phys. 152 154105 (2020);
          URL http://www.quantum-espresso.org", 
     in publications or presentations arising from this work. More details at
     http://www.quantum-espresso.org/quote

     Parallel version (MPI), running on     8 processors

     MPI processes distributed on     1 nodes
     90781 MiB available memory on the printing compute node when the environment starts

     Reading input from /home/jvc/QEspresso7.2/ZnO_DataBase/scfs_rnd025.in/scf-6.67-1.58-4.in

     Current dimensions of program PWSCF are:
     Max number of different atomic species (ntypx) = 10
     Max number of k-points (npk) =  40000
     Max angular momentum in pseudopotentials (lmaxx) =  4
     file Zn.upf: wavefunction(s)  3D renormalized

     R & G space division:  proc/nbgrp/npool/nimage =       8
     Subspace diagonalization in iterative solution of the eigenvalue problem:
     a serial algorithm will be used


     Parallelization info
     --------------------
     sticks:   dense  smooth     PW     G-vecs:    dense   smooth      PW
     Min         154      75     23                 6882     2416     403
     Max         155      78     24                 6887     2421     408
     Sum        1237     613    187                55087    19343    3249

     Using Slab Decomposition



     bravais-lattice index     =            4
     lattice parameter (alat)  =       6.6731  a.u.
     unit-cell volume          =     407.1410 (a.u.)^3
     number of atoms/cell      =            4
     number of atomic types    =            2
     number of electrons       =        36.00
     number of Kohn-Sham states=           18
     kinetic-energy cutoff     =      50.0000  Ry
     charge density cutoff     =     400.0000  Ry
     scf convergence threshold =      1.0E-08
     mixing beta               =       0.3000
     number of iterations used =            8  plain     mixing
     Exchange-correlation= PBE
                           (   1   4   3   4   0   0   0)

     celldm(1)=   6.673127  celldm(2)=   0.000000  celldm(3)=   1.582071
     celldm(4)=   0.000000  celldm(5)=   0.000000  celldm(6)=   0.000000

     crystal axes: (cart. coord. in units of alat)
               a(1) = (   1.000000   0.000000   0.000000 )  
               a(2) = (  -0.500000   0.866025   0.000000 )  
               a(3) = (   0.000000   0.000000   1.582071 )  

     reciprocal axes: (cart. coord. in units 2 pi/alat)
               b(1) = (  1.000000  0.577350 -0.000000 )  
               b(2) = (  0.000000  1.154701  0.000000 )  
               b(3) = (  0.000000 -0.000000  0.632083 )  


     PseudoPot. # 1 for Zn read from file:
     ./pseudos/Zn.upf
     MD5 check sum: 7f56cabf9682ed8c977c2f7d0c5985c5
     Pseudo is Ultrasoft + core correction, Zval = 12.0
     Generated using &quot;atomic&quot; code by A. Dal Corso  v.6.2.2
     Using radial grid of 1201 points,  6 beta functions with: 
                l(1) =   0
                l(2) =   0
                l(3) =   1
                l(4) =   1
                l(5) =   2
                l(6) =   2
     Q(r) pseudized with 0 coefficients 


     PseudoPot. # 2 for O  read from file:
     ./pseudos/O.upf
     MD5 check sum: 91400c9766925bcf19f520983a725ff0
     Pseudo is Ultrasoft + core correction, Zval =  6.0
     Generated using &quot;atomic&quot; code by A. Dal Corso  v.6.3MaX
     Using radial grid of 1095 points,  4 beta functions with: 
                l(1) =   0
                l(2) =   0
                l(3) =   1
                l(4) =   1
     Q(r) pseudized with 0 coefficients 


     atomic species   valence    mass     pseudopotential
        Zn            12.00    63.38000     Zn( 1.00)
        O              6.00    15.99900     O ( 1.00)

     No symmetry found



   Cartesian axes

     site n.     atom                  positions (alat units)
         1           Zn  tau(   1) = (   0.5673431   0.4612328   1.1278754  )
         2           Zn  tau(   2) = (  -0.1586962   0.7031665  -0.3401440  )
         3           O   tau(   3) = (   0.5133867   0.4526253   1.6982968  )
         4           O   tau(   4) = (  -0.2140066   0.6236882   0.2541785  )

     number of k points=   112

     Number of k-points >= 100: set verbosity='high' to print them.

     Dense  grid:    55087 G-vectors     FFT dimensions: (  45,  45,  72)

     Smooth grid:    19343 G-vectors     FFT dimensions: (  32,  32,  48)

     Estimated max dynamical RAM per process >      37.16 MB

     Estimated total dynamical RAM >     297.31 MB

     Check: negative core charge=   -0.000003

     Initial potential from superposition of free atoms

     starting charge      35.9925, renormalised to      36.0000
     Starting wfcs are   26 randomized atomic wfcs

     total cpu time spent up to now is        4.2 secs

     Self-consistent Calculation

     iteration #  1     ecut=    50.00 Ry     beta= 0.30
     Davidson diagonalization with overlap
     ethr =  1.00E-02,  avg # of iterations =  2.0

     total cpu time spent up to now is       10.4 secs

     total energy              =    -359.32846761 Ry
     estimated scf accuracy    <       0.77921441 Ry

     iteration #  2     ecut=    50.00 Ry     beta= 0.30
     Davidson diagonalization with overlap
     ethr =  2.16E-03,  avg # of iterations =  7.8

     total cpu time spent up to now is       18.9 secs

     total energy              =    -359.55922494 Ry
     estimated scf accuracy    <       0.77354849 Ry

     iteration #  3     ecut=    50.00 Ry     beta= 0.30
     Davidson diagonalization with overlap
     ethr =  2.15E-03,  avg # of iterations =  1.2

     total cpu time spent up to now is       24.0 secs

     total energy              =    -359.35519140 Ry
     estimated scf accuracy    <       0.45245942 Ry

     iteration #  4     ecut=    50.00 Ry     beta= 0.30
     Davidson diagonalization with overlap
     ethr =  1.26E-03,  avg # of iterations =  8.4

     total cpu time spent up to now is       33.1 secs

     total energy              =    -359.57180136 Ry
     estimated scf accuracy    <       1.13290124 Ry

     iteration #  5     ecut=    50.00 Ry     beta= 0.30
     Davidson diagonalization with overlap
     ethr =  1.26E-03,  avg # of iterations =  3.2

     total cpu time spent up to now is       39.1 secs

     total energy              =    -359.42895209 Ry
     estimated scf accuracy    <       0.42497241 Ry

     iteration #  6     ecut=    50.00 Ry     beta= 0.30
     Davidson diagonalization with overlap
     ethr =  1.18E-03,  avg # of iterations =  8.5

     total cpu time spent up to now is       47.6 secs

     total energy              =    -359.52126909 Ry
     estimated scf accuracy    <       0.93317198 Ry

     iteration #  7     ecut=    50.00 Ry     beta= 0.30
     Davidson diagonalization with overlap
     ethr =  1.18E-03,  avg # of iterations =  4.5

     total cpu time spent up to now is       53.9 secs

     total energy              =    -359.56448162 Ry
     estimated scf accuracy    <       0.17744693 Ry

     iteration #  8     ecut=    50.00 Ry     beta= 0.30
     Davidson diagonalization with overlap
     ethr =  4.93E-04,  avg # of iterations =  4.9

     total cpu time spent up to now is       60.4 secs

     total energy              =    -359.64291187 Ry
     estimated scf accuracy    <       0.01156486 Ry

     iteration #  9     ecut=    50.00 Ry     beta= 0.30
     Davidson diagonalization with overlap
     c_bands:  1 eigenvalues not converged
     c_bands:  2 eigenvalues not converged
     c_bands:  1 eigenvalues not converged
     c_bands:  1 eigenvalues not converged
     c_bands:  1 eigenvalues not converged
     c_bands:  1 eigenvalues not converged
     c_bands:  1 eigenvalues not converged
     c_bands:  1 eigenvalues not converged
     c_bands:  1 eigenvalues not converged
     c_bands:  1 eigenvalues not converged
     c_bands:  1 eigenvalues not converged
     c_bands:  1 eigenvalues not converged
     c_bands:  2 eigenvalues not converged
     c_bands:  1 eigenvalues not converged
     c_bands:  1 eigenvalues not converged
     c_bands:  1 eigenvalues not converged
     c_bands:  1 eigenvalues not converged
     c_bands:  1 eigenvalues not converged
     c_bands:  1 eigenvalues not converged
     ethr =  3.21E-05,  avg # of iterations = 11.0

     total cpu time spent up to now is       70.8 secs

     total energy              =    -359.70914003 Ry
     estimated scf accuracy    <       0.15014065 Ry

     iteration # 10     ecut=    50.00 Ry     beta= 0.30
     Davidson diagonalization with overlap
     c_bands:  1 eigenvalues not converged
     c_bands:  1 eigenvalues not converged
     c_bands:  1 eigenvalues not converged
     ethr =  3.21E-05,  avg # of iterations =  9.0

     total cpu time spent up to now is       80.3 secs

     total energy              =    -359.67568676 Ry
     estimated scf accuracy    <       0.53456417 Ry

     iteration # 11     ecut=    50.00 Ry     beta= 0.30
     Davidson diagonalization with overlap
     ethr =  3.21E-05,  avg # of iterations =  7.1

     total cpu time spent up to now is       88.0 secs

     total energy              =    -359.65048335 Ry
     estimated scf accuracy    <       0.28043480 Ry

     iteration # 12     ecut=    50.00 Ry     beta= 0.30
     Davidson diagonalization with overlap
     ethr =  3.21E-05,  avg # of iterations =  6.9

     total cpu time spent up to now is       96.3 secs

     total energy              =    -359.65078867 Ry
     estimated scf accuracy    <       0.06933204 Ry

     iteration # 13     ecut=    50.00 Ry     beta= 0.30
     Davidson diagonalization with overlap
     ethr =  3.21E-05,  avg # of iterations =  2.0

     total cpu time spent up to now is      101.8 secs

     total energy              =    -359.64764573 Ry
     estimated scf accuracy    <       0.04837508 Ry

     iteration # 14     ecut=    50.00 Ry     beta= 0.30
     Davidson diagonalization with overlap
     ethr =  3.21E-05,  avg # of iterations =  6.0

     total cpu time spent up to now is      108.7 secs

     total energy              =    -359.65071440 Ry
     estimated scf accuracy    <       0.00657220 Ry

     iteration # 15     ecut=    50.00 Ry     beta= 0.30
     Davidson diagonalization with overlap
     ethr =  1.83E-05,  avg # of iterations =  2.9

     total cpu time spent up to now is      114.6 secs

     total energy              =    -359.65482217 Ry
     estimated scf accuracy    <       0.00365501 Ry

     iteration # 16     ecut=    50.00 Ry     beta= 0.30
     Davidson diagonalization with overlap
     c_bands:  1 eigenvalues not converged
     ethr =  1.02E-05,  avg # of iterations =  8.2

     total cpu time spent up to now is      122.9 secs

     total energy              =    -359.63671763 Ry
     estimated scf accuracy    <       0.04580342 Ry

     iteration # 17     ecut=    50.00 Ry     beta= 0.30
     Davidson diagonalization with overlap
     c_bands:  1 eigenvalues not converged
     c_bands:  1 eigenvalues not converged
     c_bands:  1 eigenvalues not converged
     c_bands:  2 eigenvalues not converged
     c_bands:  1 eigenvalues not converged
     c_bands:  1 eigenvalues not converged
     c_bands:  1 eigenvalues not converged
     c_bands:  1 eigenvalues not converged
     c_bands:  1 eigenvalues not converged
     c_bands:  1 eigenvalues not converged
     c_bands:  1 eigenvalues not converged
     c_bands:  1 eigenvalues not converged
     c_bands:  1 eigenvalues not converged
     c_bands:  1 eigenvalues not converged
     c_bands:  2 eigenvalues not converged
     c_bands:  1 eigenvalues not converged
     c_bands:  1 eigenvalues not converged
     c_bands:  1 eigenvalues not converged
     c_bands:  1 eigenvalues not converged
     c_bands:  1 eigenvalues not converged
     c_bands:  1 eigenvalues not converged
     c_bands:  1 eigenvalues not converged
     c_bands:  1 eigenvalues not converged
     c_bands:  1 eigenvalues not converged
     c_bands:  1 eigenvalues not converged
     ethr =  1.02E-05,  avg # of iterations = 15.0

     total cpu time spent up to now is      137.8 secs

     total energy              =    -359.64858766 Ry
     estimated scf accuracy    <       0.04526525 Ry

     iteration # 18     ecut=    50.00 Ry     beta= 0.30
     Davidson diagonalization with overlap
     ethr =  1.02E-05,  avg # of iterations =  8.1

     total cpu time spent up to now is      146.1 secs

     total energy              =    -359.65136410 Ry
     estimated scf accuracy    <       0.00401953 Ry

     iteration # 19     ecut=    50.00 Ry     beta= 0.30
     Davidson diagonalization with overlap
     ethr =  1.02E-05,  avg # of iterations =  1.1

     total cpu time spent up to now is      151.1 secs

     total energy              =    -359.65099984 Ry
     estimated scf accuracy    <       0.00332595 Ry

     iteration # 20     ecut=    50.00 Ry     beta= 0.30
     Davidson diagonalization with overlap
     ethr =  9.24E-06,  avg # of iterations =  1.9

     total cpu time spent up to now is      156.4 secs

     total energy              =    -359.65093181 Ry
     estimated scf accuracy    <       0.00187182 Ry

     iteration # 21     ecut=    50.00 Ry     beta= 0.30
     Davidson diagonalization with overlap
     ethr =  5.20E-06,  avg # of iterations =  3.2

     total cpu time spent up to now is      162.3 secs

     total energy              =    -359.65120841 Ry
     estimated scf accuracy    <       0.00057378 Ry

     iteration # 22     ecut=    50.00 Ry     beta= 0.30
     Davidson diagonalization with overlap
     ethr =  1.59E-06,  avg # of iterations =  5.4

     total cpu time spent up to now is      169.2 secs

     total energy              =    -359.65131041 Ry
     estimated scf accuracy    <       0.00011742 Ry

     iteration # 23     ecut=    50.00 Ry     beta= 0.30
     Davidson diagonalization with overlap
     c_bands:  1 eigenvalues not converged
     ethr =  3.26E-07,  avg # of iterations =  6.9

     total cpu time spent up to now is      177.5 secs

     total energy              =    -359.65137685 Ry
     estimated scf accuracy    <       0.00002479 Ry

     iteration # 24     ecut=    50.00 Ry     beta= 0.30
     Davidson diagonalization with overlap
     c_bands:  1 eigenvalues not converged
     c_bands:  1 eigenvalues not converged
     ethr =  6.89E-08,  avg # of iterations =  6.7

     total cpu time spent up to now is      185.0 secs

     total energy              =    -359.65139336 Ry
     estimated scf accuracy    <       0.00006668 Ry

     iteration # 25     ecut=    50.00 Ry     beta= 0.30
     Davidson diagonalization with overlap
     ethr =  6.89E-08,  avg # of iterations =  2.0

     total cpu time spent up to now is      190.4 secs

     total energy              =    -359.65135385 Ry
     estimated scf accuracy    <       0.00008751 Ry

     iteration # 26     ecut=    50.00 Ry     beta= 0.30
     Davidson diagonalization with overlap
     c_bands:  1 eigenvalues not converged
     c_bands:  1 eigenvalues not converged
     c_bands:  1 eigenvalues not converged
     c_bands:  2 eigenvalues not converged
     c_bands:  1 eigenvalues not converged
     c_bands:  1 eigenvalues not converged
     c_bands:  1 eigenvalues not converged
     c_bands:  1 eigenvalues not converged
     c_bands:  1 eigenvalues not converged
     c_bands:  1 eigenvalues not converged
     c_bands:  1 eigenvalues not converged
     c_bands:  1 eigenvalues not converged
     ethr =  6.89E-08,  avg # of iterations = 10.5

     total cpu time spent up to now is      200.2 secs

     total energy              =    -359.65139310 Ry
     estimated scf accuracy    <       0.00004422 Ry

     iteration # 27     ecut=    50.00 Ry     beta= 0.30
     Davidson diagonalization with overlap
     ethr =  6.89E-08,  avg # of iterations =  6.1

     total cpu time spent up to now is      206.8 secs

     total energy              =    -359.65137863 Ry
     estimated scf accuracy    <       0.00015948 Ry

     iteration # 28     ecut=    50.00 Ry     beta= 0.30
     Davidson diagonalization with overlap
     ethr =  6.89E-08,  avg # of iterations =  2.5

     total cpu time spent up to now is      212.4 secs

     total energy              =    -359.65135237 Ry
     estimated scf accuracy    <       0.00010775 Ry

     iteration # 29     ecut=    50.00 Ry     beta= 0.30
     Davidson diagonalization with overlap
     c_bands:  1 eigenvalues not converged
     c_bands:  1 eigenvalues not converged
     c_bands:  1 eigenvalues not converged
     c_bands:  1 eigenvalues not converged
     c_bands:  1 eigenvalues not converged
     c_bands:  1 eigenvalues not converged
     c_bands:  1 eigenvalues not converged
     c_bands:  1 eigenvalues not converged
     ethr =  6.89E-08,  avg # of iterations =  8.8

     total cpu time spent up to now is      221.0 secs

     total energy              =    -359.65137905 Ry
     estimated scf accuracy    <       0.00001081 Ry

     iteration # 30     ecut=    50.00 Ry     beta= 0.30
     Davidson diagonalization with overlap
     ethr =  3.00E-08,  avg # of iterations =  2.5

     total cpu time spent up to now is      226.5 secs

     total energy              =    -359.65137498 Ry
     estimated scf accuracy    <       0.00001571 Ry

     iteration # 31     ecut=    50.00 Ry     beta= 0.30
     Davidson diagonalization with overlap
     ethr =  3.00E-08,  avg # of iterations =  3.1

     total cpu time spent up to now is      232.2 secs

     total energy              =    -359.65137490 Ry
     estimated scf accuracy    <       0.00000423 Ry

     iteration # 32     ecut=    50.00 Ry     beta= 0.30
     Davidson diagonalization with overlap
     ethr =  1.17E-08,  avg # of iterations =  7.1

     total cpu time spent up to now is      239.8 secs

     total energy              =    -359.65137711 Ry
     estimated scf accuracy    <       0.00000168 Ry

     iteration # 33     ecut=    50.00 Ry     beta= 0.30
     Davidson diagonalization with overlap
     ethr =  4.66E-09,  avg # of iterations =  2.3

     total cpu time spent up to now is      245.2 secs

     total energy              =    -359.65137710 Ry
     estimated scf accuracy    <       0.00000192 Ry

     iteration # 34     ecut=    50.00 Ry     beta= 0.30
     Davidson diagonalization with overlap
     ethr =  4.66E-09,  avg # of iterations =  1.1

     total cpu time spent up to now is      250.1 secs

     total energy              =    -359.65137726 Ry
     estimated scf accuracy    <       0.00000180 Ry

     iteration # 35     ecut=    50.00 Ry     beta= 0.30
     Davidson diagonalization with overlap
     ethr =  4.66E-09,  avg # of iterations =  1.2

     total cpu time spent up to now is      255.0 secs

     total energy              =    -359.65137746 Ry
     estimated scf accuracy    <       0.00000208 Ry

     iteration # 36     ecut=    50.00 Ry     beta= 0.30
     Davidson diagonalization with overlap
     ethr =  4.66E-09,  avg # of iterations =  1.4

     total cpu time spent up to now is      260.0 secs

     total energy              =    -359.65137701 Ry
     estimated scf accuracy    <       0.00000288 Ry

     iteration # 37     ecut=    50.00 Ry     beta= 0.30
     Davidson diagonalization with overlap
     ethr =  4.66E-09,  avg # of iterations =  1.1

     total cpu time spent up to now is      264.9 secs

     total energy              =    -359.65137668 Ry
     estimated scf accuracy    <       0.00000209 Ry

     iteration # 38     ecut=    50.00 Ry     beta= 0.30
     Davidson diagonalization with overlap
     ethr =  4.66E-09,  avg # of iterations =  3.6

     total cpu time spent up to now is      270.7 secs

     total energy              =    -359.65137689 Ry
     estimated scf accuracy    <       0.00000045 Ry

     iteration # 39     ecut=    50.00 Ry     beta= 0.30
     Davidson diagonalization with overlap
     ethr =  1.26E-09,  avg # of iterations =  3.8

     total cpu time spent up to now is      276.7 secs

     total energy              =    -359.65137677 Ry
     estimated scf accuracy    <       0.00000030 Ry

     iteration # 40     ecut=    50.00 Ry     beta= 0.30
     Davidson diagonalization with overlap
     c_bands:  1 eigenvalues not converged
     ethr =  8.22E-10,  avg # of iterations =  8.3

     total cpu time spent up to now is      285.5 secs

     total energy              =    -359.65137690 Ry
     estimated scf accuracy    <       0.00000083 Ry

     iteration # 41     ecut=    50.00 Ry     beta= 0.30
     Davidson diagonalization with overlap
     ethr =  8.22E-10,  avg # of iterations =  1.7

     total cpu time spent up to now is      290.7 secs

     total energy              =    -359.65137675 Ry
     estimated scf accuracy    <       0.00000055 Ry

     iteration # 42     ecut=    50.00 Ry     beta= 0.30
     Davidson diagonalization with overlap
     ethr =  8.22E-10,  avg # of iterations =  7.6

     total cpu time spent up to now is      298.5 secs

     total energy              =    -359.65137699 Ry
     estimated scf accuracy    <       0.00000025 Ry

     iteration # 43     ecut=    50.00 Ry     beta= 0.30
     Davidson diagonalization with overlap
     ethr =  7.02E-10,  avg # of iterations =  1.4

     total cpu time spent up to now is      303.5 secs

     total energy              =    -359.65137692 Ry
     estimated scf accuracy    <       0.00000032 Ry

     iteration # 44     ecut=    50.00 Ry     beta= 0.30
     Davidson diagonalization with overlap
     ethr =  7.02E-10,  avg # of iterations =  1.1

     total cpu time spent up to now is      308.4 secs

     total energy              =    -359.65137692 Ry
     estimated scf accuracy    <       0.00000020 Ry

     iteration # 45     ecut=    50.00 Ry     beta= 0.30
     Davidson diagonalization with overlap
     ethr =  5.58E-10,  avg # of iterations =  1.4

     total cpu time spent up to now is      313.5 secs

     total energy              =    -359.65137692 Ry
     estimated scf accuracy    <       0.00000016 Ry

     iteration # 46     ecut=    50.00 Ry     beta= 0.30
     Davidson diagonalization with overlap
     ethr =  4.50E-10,  avg # of iterations =  1.4

     total cpu time spent up to now is      318.5 secs

     total energy              =    -359.65137693 Ry
     estimated scf accuracy    <       0.00000015 Ry

     iteration # 47     ecut=    50.00 Ry     beta= 0.30
     Davidson diagonalization with overlap
     ethr =  4.12E-10,  avg # of iterations =  1.1

     total cpu time spent up to now is      323.4 secs

     total energy              =    -359.65137692 Ry
     estimated scf accuracy    <       0.00000014 Ry

     iteration # 48     ecut=    50.00 Ry     beta= 0.30
     Davidson diagonalization with overlap
     ethr =  3.97E-10,  avg # of iterations =  1.1

     total cpu time spent up to now is      328.3 secs

     total energy              =    -359.65137693 Ry
     estimated scf accuracy    <       0.00000013 Ry

     iteration # 49     ecut=    50.00 Ry     beta= 0.30
     Davidson diagonalization with overlap
     ethr =  3.57E-10,  avg # of iterations =  1.3

     total cpu time spent up to now is      333.2 secs

     total energy              =    -359.65137693 Ry
     estimated scf accuracy    <       0.00000012 Ry

     iteration # 50     ecut=    50.00 Ry     beta= 0.30
     Davidson diagonalization with overlap
     ethr =  3.27E-10,  avg # of iterations =  1.2

     total cpu time spent up to now is      338.2 secs

     total energy              =    -359.65137686 Ry
     estimated scf accuracy    <       0.00000011 Ry

     iteration # 51     ecut=    50.00 Ry     beta= 0.30
     Davidson diagonalization with overlap
     c_bands:  1 eigenvalues not converged
     c_bands:  1 eigenvalues not converged
     c_bands:  1 eigenvalues not converged
     c_bands:  1 eigenvalues not converged
     c_bands:  1 eigenvalues not converged
     c_bands:  1 eigenvalues not converged
     c_bands:  1 eigenvalues not converged
     ethr =  3.08E-10,  avg # of iterations =  9.6

     total cpu time spent up to now is      347.1 secs

     total energy              =    -359.65137686 Ry
     estimated scf accuracy    <       0.00000056 Ry

     iteration # 52     ecut=    50.00 Ry     beta= 0.30
     Davidson diagonalization with overlap
     ethr =  3.08E-10,  avg # of iterations =  8.1

     total cpu time spent up to now is      354.9 secs

     End of self-consistent calculation

     Number of k-points >= 100: set verbosity='high' to print the bands.

     highest occupied level (ev):     6.3515

!    total energy              =    -359.65137692 Ry
     estimated scf accuracy    <          2.9E-09 Ry

     The total energy is the sum of the following terms:
     one-electron contribution =    -277.39259282 Ry
     hartree contribution      =     173.62097767 Ry
     xc contribution           =    -110.01202385 Ry
     ewald contribution        =    -145.86773791 Ry

     convergence has been achieved in  52 iterations

     Forces acting on atoms (cartesian axes, Ry/au):

     atom    1 type  1   force =    -2.23981122   -1.96030442   -0.98336709
     atom    2 type  1   force =     2.25077665    1.96351462    0.92199254
     atom    3 type  2   force =    -0.22008433   -0.13211343   -0.06871235
     atom    4 type  2   force =     0.20911890    0.12890323    0.13008690
     The non-local contrib.  to forces
     atom    1 type  1   force =     1.42055515    1.28119180    0.62514331
     atom    2 type  1   force =    -1.53884708   -1.38672175   -0.17475468
     atom    3 type  2   force =     2.05826196    1.27933032    0.18266357
     atom    4 type  2   force =    -1.85025277   -1.13949812   -1.33205880
     The ionic contribution  to forces
     atom    1 type  1   force =   -21.86678778  -18.78443146  -27.45407023
     atom    2 type  1   force =    23.66711969   20.00965148    0.11178102
     atom    3 type  2   force =    -9.78633094   -5.93827845   11.35574047
     atom    4 type  2   force =     7.98599903    4.71305842   15.98654874
     The local contribution  to forces
     atom    1 type  1   force =    18.09795843   15.44822754   25.78240854
     atom    2 type  1   force =   -19.76436979  -16.56177505    1.03290346
     atom    3 type  2   force =     7.52534873    4.53763420  -11.60498857
     atom    4 type  2   force =    -5.94240372   -3.45441766  -14.53531640
     The core correction contribution to forces
     atom    1 type  1   force =     0.10845194    0.09471559    0.06321034
     atom    2 type  1   force =    -0.11311941   -0.09763736   -0.04786576
     atom    3 type  2   force =    -0.01731663   -0.01077568   -0.00209012
     atom    4 type  2   force =     0.01576820    0.00975688    0.01089134
     The Hubbard contrib.    to forces
     atom    1 type  1   force =     0.00000000    0.00000000    0.00000000
     atom    2 type  1   force =     0.00000000    0.00000000    0.00000000
     atom    3 type  2   force =     0.00000000    0.00000000    0.00000000
     atom    4 type  2   force =     0.00000000    0.00000000    0.00000000
     The SCF correction term to forces
     atom    1 type  1   force =     0.00001338   -0.00000974   -0.00006269
     atom    2 type  1   force =    -0.00000442   -0.00000456   -0.00007516
     atom    3 type  2   force =    -0.00004511   -0.00002567   -0.00004136
     atom    4 type  2   force =     0.00001049    0.00000186    0.00001837

     Total force =     4.443635     Total SCF correction =     0.000121

     Writing all to output data dir ./ZnO_ANN.save/

     init_run     :      3.68s CPU      3.79s WALL (       1 calls)
     electrons    :    344.17s CPU    350.63s WALL (       1 calls)
     forces       :      1.25s CPU      1.27s WALL (       1 calls)

     Called by init_run:
     wfcinit      :      2.74s CPU      2.80s WALL (       1 calls)
     potinit      :      0.32s CPU      0.33s WALL (       1 calls)
     hinit0       :      0.52s CPU      0.54s WALL (       1 calls)

     Called by electrons:
     c_bands      :    299.37s CPU    304.80s WALL (      52 calls)
     sum_band     :     39.82s CPU     40.73s WALL (      52 calls)
     v_of_rho     :      1.05s CPU      1.12s WALL (      53 calls)
     newd         :      3.72s CPU      3.76s WALL (      53 calls)
     mix_rho      :      0.18s CPU      0.20s WALL (      52 calls)

     Called by c_bands:
     init_us_2    :      3.34s CPU      3.39s WALL (   11872 calls)
     init_us_2:cp :      3.29s CPU      3.36s WALL (   11872 calls)
     cegterg      :    288.63s CPU    293.88s WALL (    5824 calls)

     Called by *egterg:
     cdiaghg      :     34.97s CPU     35.34s WALL (   33206 calls)
     h_psi        :    160.60s CPU    164.41s WALL (   33318 calls)
     s_psi        :     24.20s CPU     24.40s WALL (   33318 calls)
     g_psi        :      0.60s CPU      0.60s WALL (   27382 calls)

     Called by h_psi:
     h_psi:calbec :     26.13s CPU     26.89s WALL (   33318 calls)
     vloc_psi     :    109.57s CPU    112.45s WALL (   33318 calls)
     add_vuspsi   :     24.22s CPU     24.41s WALL (   33318 calls)

     General routines
     calbec       :     36.68s CPU     37.72s WALL (   39590 calls)
     fft          :      1.22s CPU      1.32s WALL (     698 calls)
     ffts         :      0.17s CPU      0.18s WALL (     105 calls)
     fftw         :    111.03s CPU    113.91s WALL (  640964 calls)
     interpolate  :      0.21s CPU      0.22s WALL (      53 calls)

     Parallel routines

     PWSCF        :   5m49.84s CPU   5m56.75s WALL


   This run was terminated on:  17:43: 7  23Jun2025            

=------------------------------------------------------------------------------=
   JOB DONE.
=------------------------------------------------------------------------------=
Note: The following floating-point exceptions are signalling: IEEE_INVALID_FLAG
