
     Program PWSCF v.7.2 starts on 23Jun2025 at 16:52:54 

     This program is part of the open-source Quantum ESPRESSO suite
     for quantum simulation of materials; please cite
         "P. Giannozzi et al., J. Phys.:Condens. Matter 21 395502 (2009);
         "P. Giannozzi et al., J. Phys.:Condens. Matter 29 465901 (2017);
         "P. Giannozzi et al., J. Chem. Phys. 152 154105 (2020);
          URL http://www.quantum-espresso.org", 
     in publications or presentations arising from this work. More details at
     http://www.quantum-espresso.org/quote

     Parallel version (MPI), running on     8 processors

     MPI processes distributed on     1 nodes
     90870 MiB available memory on the printing compute node when the environment starts

     Reading input from /home/jvc/QEspresso7.2/ZnO_DataBase/scfs_rnd025.in/scf-6.55-1.61-3.in

     Current dimensions of program PWSCF are:
     Max number of different atomic species (ntypx) = 10
     Max number of k-points (npk) =  40000
     Max angular momentum in pseudopotentials (lmaxx) =  4
     file Zn.upf: wavefunction(s)  3D renormalized

     R & G space division:  proc/nbgrp/npool/nimage =       8
     Subspace diagonalization in iterative solution of the eigenvalue problem:
     a serial algorithm will be used


     Parallelization info
     --------------------
     sticks:   dense  smooth     PW     G-vecs:    dense   smooth      PW
     Min         147      72     22                 6629     2334     382
     Max         148      73     26                 6631     2343     383
     Sum        1177     583    187                53035    18725    3057

     Using Slab Decomposition



     bravais-lattice index     =            4
     lattice parameter (alat)  =       6.5496  a.u.
     unit-cell volume          =     392.7942 (a.u.)^3
     number of atoms/cell      =            4
     number of atomic types    =            2
     number of electrons       =        36.00
     number of Kohn-Sham states=           18
     kinetic-energy cutoff     =      50.0000  Ry
     charge density cutoff     =     400.0000  Ry
     scf convergence threshold =      1.0E-08
     mixing beta               =       0.3000
     number of iterations used =            8  plain     mixing
     Exchange-correlation= PBE
                           (   1   4   3   4   0   0   0)

     celldm(1)=   6.549551  celldm(2)=   0.000000  celldm(3)=   1.614358
     celldm(4)=   0.000000  celldm(5)=   0.000000  celldm(6)=   0.000000

     crystal axes: (cart. coord. in units of alat)
               a(1) = (   1.000000   0.000000   0.000000 )  
               a(2) = (  -0.500000   0.866025   0.000000 )  
               a(3) = (   0.000000   0.000000   1.614358 )  

     reciprocal axes: (cart. coord. in units 2 pi/alat)
               b(1) = (  1.000000  0.577350 -0.000000 )  
               b(2) = (  0.000000  1.154701  0.000000 )  
               b(3) = (  0.000000 -0.000000  0.619441 )  


     PseudoPot. # 1 for Zn read from file:
     ./pseudos/Zn.upf
     MD5 check sum: 7f56cabf9682ed8c977c2f7d0c5985c5
     Pseudo is Ultrasoft + core correction, Zval = 12.0
     Generated using &quot;atomic&quot; code by A. Dal Corso  v.6.2.2
     Using radial grid of 1201 points,  6 beta functions with: 
                l(1) =   0
                l(2) =   0
                l(3) =   1
                l(4) =   1
                l(5) =   2
                l(6) =   2
     Q(r) pseudized with 0 coefficients 


     PseudoPot. # 2 for O  read from file:
     ./pseudos/O.upf
     MD5 check sum: 91400c9766925bcf19f520983a725ff0
     Pseudo is Ultrasoft + core correction, Zval =  6.0
     Generated using &quot;atomic&quot; code by A. Dal Corso  v.6.3MaX
     Using radial grid of 1095 points,  4 beta functions with: 
                l(1) =   0
                l(2) =   0
                l(3) =   1
                l(4) =   1
     Q(r) pseudized with 0 coefficients 


     atomic species   valence    mass     pseudopotential
        Zn            12.00    63.38000     Zn( 1.00)
        O              6.00    15.99900     O ( 1.00)

     No symmetry found



   Cartesian axes

     site n.     atom                  positions (alat units)
         1           Zn  tau(   1) = (   0.1682693   0.4909938   0.8668922  )
         2           Zn  tau(   2) = (  -0.2350859   0.5620077   0.1105435  )
         3           O   tau(   3) = (   0.5753475   0.2166977   1.6932980  )
         4           O   tau(   4) = (  -0.0067773   0.4538281   0.7077103  )

     number of k points=   112

     Number of k-points >= 100: set verbosity='high' to print them.

     Dense  grid:    53035 G-vectors     FFT dimensions: (  45,  45,  72)

     Smooth grid:    18725 G-vectors     FFT dimensions: (  30,  30,  48)

     Estimated max dynamical RAM per process >      36.00 MB

     Estimated total dynamical RAM >     287.98 MB

     Check: negative core charge=   -0.000002

     Initial potential from superposition of free atoms

     starting charge      35.9925, renormalised to      36.0000
     Starting wfcs are   26 randomized atomic wfcs

     total cpu time spent up to now is        4.3 secs

     Self-consistent Calculation

     iteration #  1     ecut=    50.00 Ry     beta= 0.30
     Davidson diagonalization with overlap
     ethr =  1.00E-02,  avg # of iterations =  5.3

     total cpu time spent up to now is       13.5 secs

     total energy              =    -354.31426602 Ry
     estimated scf accuracy    <       1.29582359 Ry

     iteration #  2     ecut=    50.00 Ry     beta= 0.30
     Davidson diagonalization with overlap
     ethr =  3.60E-03,  avg # of iterations =  2.0

     total cpu time spent up to now is       19.9 secs

     total energy              =    -354.27703955 Ry
     estimated scf accuracy    <       0.29141275 Ry

     iteration #  3     ecut=    50.00 Ry     beta= 0.30
     Davidson diagonalization with overlap
     ethr =  8.09E-04,  avg # of iterations =  6.5

     total cpu time spent up to now is       31.4 secs

     total energy              =    -354.46774036 Ry
     estimated scf accuracy    <       0.44316478 Ry

     iteration #  4     ecut=    50.00 Ry     beta= 0.30
     Davidson diagonalization with overlap
     ethr =  8.09E-04,  avg # of iterations =  2.0

     total cpu time spent up to now is       37.3 secs

     total energy              =    -354.38475224 Ry
     estimated scf accuracy    <       0.17593843 Ry

     iteration #  5     ecut=    50.00 Ry     beta= 0.30
     Davidson diagonalization with overlap
     ethr =  4.89E-04,  avg # of iterations =  8.2

     total cpu time spent up to now is       54.8 secs

     total energy              =    -353.97645059 Ry
     estimated scf accuracy    <       2.96986772 Ry

     iteration #  6     ecut=    50.00 Ry     beta= 0.30
     Davidson diagonalization with overlap
     ethr =  4.89E-04,  avg # of iterations =  7.5

     total cpu time spent up to now is       69.5 secs

     total energy              =    -354.49393939 Ry
     estimated scf accuracy    <       0.00858881 Ry

     iteration #  7     ecut=    50.00 Ry     beta= 0.30
     Davidson diagonalization with overlap
     ethr =  2.39E-05,  avg # of iterations =  6.0

     total cpu time spent up to now is       81.0 secs

     total energy              =    -354.50835893 Ry
     estimated scf accuracy    <       0.04817176 Ry

     iteration #  8     ecut=    50.00 Ry     beta= 0.30
     Davidson diagonalization with overlap
     ethr =  2.39E-05,  avg # of iterations =  2.4

     total cpu time spent up to now is       87.2 secs

     total energy              =    -354.48917709 Ry
     estimated scf accuracy    <       0.06568582 Ry

     iteration #  9     ecut=    50.00 Ry     beta= 0.30
     Davidson diagonalization with overlap
     ethr =  2.39E-05,  avg # of iterations =  5.0

     total cpu time spent up to now is       95.8 secs

     total energy              =    -354.49079350 Ry
     estimated scf accuracy    <       0.01771480 Ry

     iteration # 10     ecut=    50.00 Ry     beta= 0.30
     Davidson diagonalization with overlap
     ethr =  2.39E-05,  avg # of iterations =  1.2

     total cpu time spent up to now is      101.1 secs

     total energy              =    -354.48775572 Ry
     estimated scf accuracy    <       0.01283056 Ry

     iteration # 11     ecut=    50.00 Ry     beta= 0.30
     Davidson diagonalization with overlap
     ethr =  2.39E-05,  avg # of iterations =  2.1

     total cpu time spent up to now is      107.4 secs

     total energy              =    -354.48732544 Ry
     estimated scf accuracy    <       0.00435777 Ry

     iteration # 12     ecut=    50.00 Ry     beta= 0.30
     Davidson diagonalization with overlap
     ethr =  1.21E-05,  avg # of iterations =  5.1

     total cpu time spent up to now is      116.1 secs

     total energy              =    -354.48911504 Ry
     estimated scf accuracy    <       0.00009669 Ry

     iteration # 13     ecut=    50.00 Ry     beta= 0.30
     Davidson diagonalization with overlap
     ethr =  2.69E-07,  avg # of iterations =  6.8

     total cpu time spent up to now is      127.3 secs

     total energy              =    -354.48933117 Ry
     estimated scf accuracy    <       0.00019727 Ry

     iteration # 14     ecut=    50.00 Ry     beta= 0.30
     Davidson diagonalization with overlap
     ethr =  2.69E-07,  avg # of iterations =  4.5

     total cpu time spent up to now is      136.0 secs

     total energy              =    -354.48968767 Ry
     estimated scf accuracy    <       0.00066684 Ry

     iteration # 15     ecut=    50.00 Ry     beta= 0.30
     Davidson diagonalization with overlap
     ethr =  2.69E-07,  avg # of iterations =  7.1

     total cpu time spent up to now is      148.7 secs

     total energy              =    -354.48964833 Ry
     estimated scf accuracy    <       0.00240644 Ry

     iteration # 16     ecut=    50.00 Ry     beta= 0.30
     Davidson diagonalization with overlap
     ethr =  2.69E-07,  avg # of iterations =  1.0

     total cpu time spent up to now is      153.9 secs

     total energy              =    -354.48832376 Ry
     estimated scf accuracy    <       0.00209726 Ry

     iteration # 17     ecut=    50.00 Ry     beta= 0.30
     Davidson diagonalization with overlap
     ethr =  2.69E-07,  avg # of iterations = 12.1

     total cpu time spent up to now is      175.6 secs

     total energy              =    -354.48902522 Ry
     estimated scf accuracy    <       0.00122552 Ry

     iteration # 18     ecut=    50.00 Ry     beta= 0.30
     Davidson diagonalization with overlap
     ethr =  2.69E-07,  avg # of iterations =  7.3

     total cpu time spent up to now is      189.1 secs

     total energy              =    -354.48918026 Ry
     estimated scf accuracy    <       0.00003372 Ry

     iteration # 19     ecut=    50.00 Ry     beta= 0.30
     Davidson diagonalization with overlap
     ethr =  9.37E-08,  avg # of iterations =  2.5

     total cpu time spent up to now is      194.8 secs

     total energy              =    -354.48917381 Ry
     estimated scf accuracy    <       0.00001555 Ry

     iteration # 20     ecut=    50.00 Ry     beta= 0.30
     Davidson diagonalization with overlap
     ethr =  4.32E-08,  avg # of iterations =  6.3

     total cpu time spent up to now is      205.2 secs

     total energy              =    -354.48917929 Ry
     estimated scf accuracy    <       0.00001261 Ry

     iteration # 21     ecut=    50.00 Ry     beta= 0.30
     Davidson diagonalization with overlap
     ethr =  3.50E-08,  avg # of iterations =  5.5

     total cpu time spent up to now is      215.1 secs

     total energy              =    -354.48918254 Ry
     estimated scf accuracy    <       0.00000651 Ry

     iteration # 22     ecut=    50.00 Ry     beta= 0.30
     Davidson diagonalization with overlap
     ethr =  1.81E-08,  avg # of iterations =  4.2

     total cpu time spent up to now is      222.8 secs

     total energy              =    -354.48918411 Ry
     estimated scf accuracy    <       0.00000004 Ry

     iteration # 23     ecut=    50.00 Ry     beta= 0.30
     Davidson diagonalization with overlap
     ethr =  1.22E-10,  avg # of iterations = 10.6

     total cpu time spent up to now is      242.7 secs

     total energy              =    -354.48918432 Ry
     estimated scf accuracy    <       0.00000133 Ry

     iteration # 24     ecut=    50.00 Ry     beta= 0.30
     Davidson diagonalization with overlap
     ethr =  1.22E-10,  avg # of iterations =  7.2

     total cpu time spent up to now is      256.3 secs

     total energy              =    -354.48918430 Ry
     estimated scf accuracy    <       0.00000028 Ry

     iteration # 25     ecut=    50.00 Ry     beta= 0.30
     Davidson diagonalization with overlap
     ethr =  1.22E-10,  avg # of iterations =  5.9

     total cpu time spent up to now is      266.8 secs

     total energy              =    -354.48918433 Ry
     estimated scf accuracy    <       0.00000002 Ry

     iteration # 26     ecut=    50.00 Ry     beta= 0.30
     Davidson diagonalization with overlap
     ethr =  5.86E-11,  avg # of iterations =  1.9

     total cpu time spent up to now is      272.5 secs

     total energy              =    -354.48918433 Ry
     estimated scf accuracy    <       0.00000001 Ry

     iteration # 27     ecut=    50.00 Ry     beta= 0.30
     Davidson diagonalization with overlap
     ethr =  2.78E-11,  avg # of iterations =  5.7

     total cpu time spent up to now is      282.4 secs

     End of self-consistent calculation

     Number of k-points >= 100: set verbosity='high' to print the bands.

     highest occupied level (ev):     5.5559

!    total energy              =    -354.48918433 Ry
     estimated scf accuracy    <          2.6E-09 Ry

     The total energy is the sum of the following terms:
     one-electron contribution =    -244.96814148 Ry
     hartree contribution      =     156.91985096 Ry
     xc contribution           =    -111.03795860 Ry
     ewald contribution        =    -155.40293521 Ry

     convergence has been achieved in  27 iterations

     Forces acting on atoms (cartesian axes, Ry/au):

     atom    1 type  1   force =    13.23126958    2.80055891   12.06245542
     atom    2 type  1   force =     0.54192583    1.00079090    0.04556261
     atom    3 type  2   force =    -0.55871390   -1.00245571   -0.09871092
     atom    4 type  2   force =   -13.21448151   -2.79889410  -12.00930711
     The non-local contrib.  to forces
     atom    1 type  1   force =    -3.78050612   -0.80593996   -3.37159984
     atom    2 type  1   force =     0.55933502    1.00291011    0.11717270
     atom    3 type  2   force =     0.14848753    0.42482707    0.04546720
     atom    4 type  2   force =     1.09173300    0.33663905    0.93146696
     The ionic contribution  to forces
     atom    1 type  1   force =    40.11112828    8.33235334   43.54430561
     atom    2 type  1   force =     4.39873216   11.83288342   -7.52771610
     atom    3 type  2   force =    -6.04283194  -11.29718458   -5.20659121
     atom    4 type  2   force =   -38.46702850   -8.86805218  -30.80999830
     The local contribution  to forces
     atom    1 type  1   force =   -22.54375532   -4.60738679  -27.60389370
     atom    2 type  1   force =    -4.34278036  -11.69577555    7.46771875
     atom    3 type  2   force =     5.33385952    9.86822312    5.06213791
     atom    4 type  2   force =    24.13949337    5.72871839   17.84933336
     The core correction contribution to forces
     atom    1 type  1   force =    -0.55571597   -0.11848231   -0.50650198
     atom    2 type  1   force =    -0.07336672   -0.13930038   -0.01155809
     atom    3 type  2   force =     0.00180449    0.00169301    0.00032031
     atom    4 type  2   force =     0.02134948    0.00381597    0.01989173
     The Hubbard contrib.    to forces
     atom    1 type  1   force =     0.00000000    0.00000000    0.00000000
     atom    2 type  1   force =     0.00000000    0.00000000    0.00000000
     atom    3 type  2   force =     0.00000000    0.00000000    0.00000000
     atom    4 type  2   force =     0.00000000    0.00000000    0.00000000
     The SCF correction term to forces
     atom    1 type  1   force =     0.00015088    0.00003183    0.00017252
     atom    2 type  1   force =     0.00003791    0.00009049   -0.00002745
     atom    3 type  2   force =    -0.00000132    0.00000285   -0.00001795
     atom    4 type  2   force =     0.00000331    0.00000185    0.00002632

     Total force =    25.645982     Total SCF correction =     0.000255

     Writing all to output data dir ./ZnO_ANN.save/

     init_run     :      3.79s CPU      3.89s WALL (       1 calls)
     electrons    :    273.42s CPU    278.05s WALL (       1 calls)
     forces       :      1.24s CPU      1.26s WALL (       1 calls)

     Called by init_run:
     wfcinit      :      2.86s CPU      2.92s WALL (       1 calls)
     potinit      :      0.31s CPU      0.32s WALL (       1 calls)
     hinit0       :      0.52s CPU      0.54s WALL (       1 calls)

     Called by electrons:
     c_bands      :    248.98s CPU    253.09s WALL (      27 calls)
     sum_band     :     22.00s CPU     22.45s WALL (      27 calls)
     v_of_rho     :      0.54s CPU      0.58s WALL (      28 calls)
     newd         :      1.83s CPU      1.86s WALL (      28 calls)
     mix_rho      :      0.09s CPU      0.10s WALL (      27 calls)

     Called by c_bands:
     init_us_2    :      1.67s CPU      1.70s WALL (    6272 calls)
     init_us_2:cp :      1.65s CPU      1.68s WALL (    6272 calls)
     cegterg      :    243.61s CPU    247.65s WALL (    3024 calls)

     Called by *egterg:
     cdiaghg      :     21.59s CPU     21.73s WALL (   18945 calls)
     h_psi        :    140.80s CPU    143.88s WALL (   19057 calls)
     s_psi        :     18.16s CPU     18.28s WALL (   19057 calls)
     g_psi        :      0.54s CPU      0.55s WALL (   15921 calls)

     Called by h_psi:
     h_psi:calbec :     19.76s CPU     20.39s WALL (   19057 calls)
     vloc_psi     :    102.49s CPU    104.80s WALL (   19057 calls)
     add_vuspsi   :     18.12s CPU     18.27s WALL (   19057 calls)

     General routines
     calbec       :     25.41s CPU     26.18s WALL (   22529 calls)
     fft          :      0.66s CPU      0.72s WALL (     373 calls)
     ffts         :      0.16s CPU      0.16s WALL (      55 calls)
     fftw         :    101.46s CPU    103.73s WALL (  480954 calls)
     interpolate  :      0.18s CPU      0.18s WALL (      28 calls)

     Parallel routines

     PWSCF        :   4m39.16s CPU   4m44.17s WALL


   This run was terminated on:  16:57:39  23Jun2025            

=------------------------------------------------------------------------------=
   JOB DONE.
=------------------------------------------------------------------------------=
Note: The following floating-point exceptions are signalling: IEEE_INVALID_FLAG
