
     Program PWSCF v.7.2 starts on 23Jun2025 at 12: 5:56 

     This program is part of the open-source Quantum ESPRESSO suite
     for quantum simulation of materials; please cite
         "P. Giannozzi et al., J. Phys.:Condens. Matter 21 395502 (2009);
         "P. Giannozzi et al., J. Phys.:Condens. Matter 29 465901 (2017);
         "P. Giannozzi et al., J. Chem. Phys. 152 154105 (2020);
          URL http://www.quantum-espresso.org", 
     in publications or presentations arising from this work. More details at
     http://www.quantum-espresso.org/quote

     Parallel version (MPI), running on     8 processors

     MPI processes distributed on     1 nodes
     91387 MiB available memory on the printing compute node when the environment starts

     Reading input from /home/jvc/QEspresso7.2/ZnO_DataBase/scfs_rnd025.in/scf-5.56-1.74-3.in

     Current dimensions of program PWSCF are:
     Max number of different atomic species (ntypx) = 10
     Max number of k-points (npk) =  40000
     Max angular momentum in pseudopotentials (lmaxx) =  4
     file Zn.upf: wavefunction(s)  3D renormalized

     R & G space division:  proc/nbgrp/npool/nimage =       8
     Subspace diagonalization in iterative solution of the eigenvalue problem:
     a serial algorithm will be used


     Parallelization info
     --------------------
     sticks:   dense  smooth     PW     G-vecs:    dense   smooth      PW
     Min         105      53     15                 4375     1553     257
     Max         106      55     16                 4384     1554     266
     Sum         847     433    127                35059    12427    2083

     Using Slab Decomposition



     bravais-lattice index     =            4
     lattice parameter (alat)  =       5.5609  a.u.
     unit-cell volume          =     259.6563 (a.u.)^3
     number of atoms/cell      =            4
     number of atomic types    =            2
     number of electrons       =        36.00
     number of Kohn-Sham states=           18
     kinetic-energy cutoff     =      50.0000  Ry
     charge density cutoff     =     400.0000  Ry
     scf convergence threshold =      1.0E-08
     mixing beta               =       0.3000
     number of iterations used =            8  plain     mixing
     Exchange-correlation= PBE
                           (   1   4   3   4   0   0   0)

     celldm(1)=   5.560939  celldm(2)=   0.000000  celldm(3)=   1.743507
     celldm(4)=   0.000000  celldm(5)=   0.000000  celldm(6)=   0.000000

     crystal axes: (cart. coord. in units of alat)
               a(1) = (   1.000000   0.000000   0.000000 )  
               a(2) = (  -0.500000   0.866025   0.000000 )  
               a(3) = (   0.000000   0.000000   1.743507 )  

     reciprocal axes: (cart. coord. in units 2 pi/alat)
               b(1) = (  1.000000  0.577350 -0.000000 )  
               b(2) = (  0.000000  1.154701  0.000000 )  
               b(3) = (  0.000000 -0.000000  0.573557 )  


     PseudoPot. # 1 for Zn read from file:
     ./pseudos/Zn.upf
     MD5 check sum: 7f56cabf9682ed8c977c2f7d0c5985c5
     Pseudo is Ultrasoft + core correction, Zval = 12.0
     Generated using &quot;atomic&quot; code by A. Dal Corso  v.6.2.2
     Using radial grid of 1201 points,  6 beta functions with: 
                l(1) =   0
                l(2) =   0
                l(3) =   1
                l(4) =   1
                l(5) =   2
                l(6) =   2
     Q(r) pseudized with 0 coefficients 


     PseudoPot. # 2 for O  read from file:
     ./pseudos/O.upf
     MD5 check sum: 91400c9766925bcf19f520983a725ff0
     Pseudo is Ultrasoft + core correction, Zval =  6.0
     Generated using &quot;atomic&quot; code by A. Dal Corso  v.6.3MaX
     Using radial grid of 1095 points,  4 beta functions with: 
                l(1) =   0
                l(2) =   0
                l(3) =   1
                l(4) =   1
     Q(r) pseudized with 0 coefficients 


     atomic species   valence    mass     pseudopotential
        Zn            12.00    63.38000     Zn( 1.00)
        O              6.00    15.99900     O ( 1.00)

     No symmetry found



   Cartesian axes

     site n.     atom                  positions (alat units)
         1           Zn  tau(   1) = (   0.2347681   0.3455408   0.6423432  )
         2           Zn  tau(   2) = (  -0.1130271   0.5212076   0.3848207  )
         3           O   tau(   3) = (   0.5869096   0.1564076   1.9629429  )
         4           O   tau(   4) = (  -0.1311971   0.4791966   0.3104721  )

     number of k points=   112

     Number of k-points >= 100: set verbosity='high' to print them.

     Dense  grid:    35059 G-vectors     FFT dimensions: (  36,  36,  64)

     Smooth grid:    12427 G-vectors     FFT dimensions: (  25,  25,  45)

     Estimated max dynamical RAM per process >      24.75 MB

     Estimated total dynamical RAM >     198.02 MB

     Check: negative core charge=   -0.000002

     Initial potential from superposition of free atoms

     starting charge      35.9925, renormalised to      36.0000
     Starting wfcs are   26 randomized atomic wfcs

     total cpu time spent up to now is        3.2 secs

     Self-consistent Calculation

     iteration #  1     ecut=    50.00 Ry     beta= 0.30
     Davidson diagonalization with overlap
     ethr =  1.00E-02,  avg # of iterations =  4.5

     total cpu time spent up to now is       10.8 secs

     total energy              =    -212.78896714 Ry
     estimated scf accuracy    <       7.73379881 Ry

     iteration #  2     ecut=    50.00 Ry     beta= 0.30
     Davidson diagonalization with overlap
     ethr =  1.00E-02,  avg # of iterations =  2.2

     total cpu time spent up to now is       15.7 secs

     total energy              =    -212.69906217 Ry
     estimated scf accuracy    <       1.45727789 Ry

     iteration #  3     ecut=    50.00 Ry     beta= 0.30
     Davidson diagonalization with overlap
     ethr =  4.05E-03,  avg # of iterations =  3.6

     total cpu time spent up to now is       21.5 secs

     total energy              =    -212.92689524 Ry
     estimated scf accuracy    <       0.28479001 Ry

     iteration #  4     ecut=    50.00 Ry     beta= 0.30
     Davidson diagonalization with overlap
     ethr =  7.91E-04,  avg # of iterations =  6.8

     total cpu time spent up to now is       28.9 secs

     total energy              =    -213.00563012 Ry
     estimated scf accuracy    <       0.19744314 Ry

     iteration #  5     ecut=    50.00 Ry     beta= 0.30
     Davidson diagonalization with overlap
     ethr =  5.48E-04,  avg # of iterations =  4.7

     total cpu time spent up to now is       34.3 secs

     total energy              =    -213.04610928 Ry
     estimated scf accuracy    <       0.02659555 Ry

     iteration #  6     ecut=    50.00 Ry     beta= 0.30
     Davidson diagonalization with overlap
     ethr =  7.39E-05,  avg # of iterations =  6.4

     total cpu time spent up to now is       40.8 secs

     total energy              =    -213.03523332 Ry
     estimated scf accuracy    <       0.03984988 Ry

     iteration #  7     ecut=    50.00 Ry     beta= 0.30
     Davidson diagonalization with overlap
     ethr =  7.39E-05,  avg # of iterations =  5.2

     total cpu time spent up to now is       47.1 secs

     total energy              =    -213.04617364 Ry
     estimated scf accuracy    <       0.00240703 Ry

     iteration #  8     ecut=    50.00 Ry     beta= 0.30
     Davidson diagonalization with overlap
     ethr =  6.69E-06,  avg # of iterations =  6.2

     total cpu time spent up to now is       53.7 secs

     total energy              =    -213.04686939 Ry
     estimated scf accuracy    <       0.00207733 Ry

     iteration #  9     ecut=    50.00 Ry     beta= 0.30
     Davidson diagonalization with overlap
     ethr =  5.77E-06,  avg # of iterations =  2.9

     total cpu time spent up to now is       57.8 secs

     total energy              =    -213.04671554 Ry
     estimated scf accuracy    <       0.00049739 Ry

     iteration # 10     ecut=    50.00 Ry     beta= 0.30
     Davidson diagonalization with overlap
     ethr =  1.38E-06,  avg # of iterations =  8.2

     total cpu time spent up to now is       65.5 secs

     total energy              =    -213.04705896 Ry
     estimated scf accuracy    <       0.00039719 Ry

     iteration # 11     ecut=    50.00 Ry     beta= 0.30
     Davidson diagonalization with overlap
     ethr =  1.10E-06,  avg # of iterations =  1.6

     total cpu time spent up to now is       69.1 secs

     total energy              =    -213.04699340 Ry
     estimated scf accuracy    <       0.00019068 Ry

     iteration # 12     ecut=    50.00 Ry     beta= 0.30
     Davidson diagonalization with overlap
     ethr =  5.30E-07,  avg # of iterations =  5.3

     total cpu time spent up to now is       74.7 secs

     total energy              =    -213.04704729 Ry
     estimated scf accuracy    <       0.00000472 Ry

     iteration # 13     ecut=    50.00 Ry     beta= 0.30
     Davidson diagonalization with overlap
     ethr =  1.31E-08,  avg # of iterations =  8.2

     total cpu time spent up to now is       82.7 secs

     total energy              =    -213.04705168 Ry
     estimated scf accuracy    <       0.00000295 Ry

     iteration # 14     ecut=    50.00 Ry     beta= 0.30
     Davidson diagonalization with overlap
     ethr =  8.19E-09,  avg # of iterations =  2.4

     total cpu time spent up to now is       86.8 secs

     total energy              =    -213.04705132 Ry
     estimated scf accuracy    <       0.00000085 Ry

     iteration # 15     ecut=    50.00 Ry     beta= 0.30
     Davidson diagonalization with overlap
     ethr =  2.37E-09,  avg # of iterations =  8.0

     total cpu time spent up to now is       95.2 secs

     total energy              =    -213.04705194 Ry
     estimated scf accuracy    <       0.00000069 Ry

     iteration # 16     ecut=    50.00 Ry     beta= 0.30
     Davidson diagonalization with overlap
     ethr =  1.92E-09,  avg # of iterations =  2.1

     total cpu time spent up to now is       99.2 secs

     total energy              =    -213.04705186 Ry
     estimated scf accuracy    <       0.00000021 Ry

     iteration # 17     ecut=    50.00 Ry     beta= 0.30
     Davidson diagonalization with overlap
     ethr =  5.71E-10,  avg # of iterations =  6.4

     total cpu time spent up to now is      106.4 secs

     total energy              =    -213.04705199 Ry
     estimated scf accuracy    <       0.00000007 Ry

     iteration # 18     ecut=    50.00 Ry     beta= 0.30
     Davidson diagonalization with overlap
     ethr =  1.96E-10,  avg # of iterations =  2.0

     total cpu time spent up to now is      110.3 secs

     total energy              =    -213.04705196 Ry
     estimated scf accuracy    <       0.00000004 Ry

     iteration # 19     ecut=    50.00 Ry     beta= 0.30
     Davidson diagonalization with overlap
     ethr =  1.18E-10,  avg # of iterations =  6.0

     total cpu time spent up to now is      117.4 secs

     total energy              =    -213.04705198 Ry
     estimated scf accuracy    <       0.00000002 Ry

     iteration # 20     ecut=    50.00 Ry     beta= 0.30
     Davidson diagonalization with overlap
     ethr =  4.91E-11,  avg # of iterations =  2.1

     total cpu time spent up to now is      121.3 secs

     End of self-consistent calculation

     Number of k-points >= 100: set verbosity='high' to print the bands.

     highest occupied level (ev):    15.6012

!    total energy              =    -213.04705198 Ry
     estimated scf accuracy    <          7.5E-09 Ry

     The total energy is the sum of the following terms:
     one-electron contribution =    -518.64403625 Ry
     hartree contribution      =     287.83930453 Ry
     xc contribution           =    -119.35064926 Ry
     ewald contribution        =     137.10832900 Ry

     convergence has been achieved in  20 iterations

     Forces acting on atoms (cartesian axes, Ry/au):

     atom    1 type  1   force =     2.55522063   -1.20698080    2.81205027
     atom    2 type  1   force =   110.83348169  261.64778198  459.98814523
     atom    3 type  2   force =    -0.47810430   -0.63808589   -0.77639853
     atom    4 type  2   force =  -112.91059802 -259.80271528 -462.02379696
     The non-local contrib.  to forces
     atom    1 type  1   force =    -1.43199837    0.58049768   -2.04275204
     atom    2 type  1   force =    -9.16350297  -22.98722495  -37.61648620
     atom    3 type  2   force =     0.95639186    1.16482172    0.84577108
     atom    4 type  2   force =    -0.29343380    0.23066393    1.30761566
     The ionic contribution  to forces
     atom    1 type  1   force =    19.39837099   -9.48817780   65.47711529
     atom    2 type  1   force =   113.46935145  303.78736659  499.08981570
     atom    3 type  2   force =    -4.59142554   -7.58670037  -30.42120446
     atom    4 type  2   force =  -128.27629690 -286.71248842 -534.14572653
     The local contribution  to forces
     atom    1 type  1   force =   -15.29280638    7.64088980  -60.46438702
     atom    2 type  1   force =     6.79914684  -18.19499824    0.04505905
     atom    3 type  2   force =     3.16214941    5.79008391   28.79883369
     atom    4 type  2   force =    15.53285756   26.39505515   70.32105291
     The core correction contribution to forces
     atom    1 type  1   force =    -0.11837738    0.05983895   -0.15777199
     atom    2 type  1   force =    -0.27147995   -0.95735791   -1.52999835
     atom    3 type  2   force =    -0.00520373   -0.00625852    0.00028016
     atom    4 type  2   force =     0.12633710    0.28412189    0.49339536
     The Hubbard contrib.    to forces
     atom    1 type  1   force =     0.00000000    0.00000000    0.00000000
     atom    2 type  1   force =     0.00000000    0.00000000    0.00000000
     atom    3 type  2   force =     0.00000000    0.00000000    0.00000000
     atom    4 type  2   force =     0.00000000    0.00000000    0.00000000
     The SCF correction term to forces
     atom    1 type  1   force =     0.00004413   -0.00000785   -0.00019245
     atom    2 type  1   force =    -0.00002132    0.00001806   -0.00028346
     atom    3 type  2   force =    -0.00000393   -0.00001106   -0.00011748
     atom    4 type  2   force =    -0.00004961   -0.00004625   -0.00017283

     Total force =   765.546923     Total SCF correction =     0.000411

     Writing all to output data dir ./ZnO_ANN.save/

     init_run     :      2.64s CPU      2.72s WALL (       1 calls)
     electrons    :    115.32s CPU    118.15s WALL (       1 calls)
     forces       :      0.87s CPU      0.89s WALL (       1 calls)

     Called by init_run:
     wfcinit      :      1.95s CPU      1.99s WALL (       1 calls)
     potinit      :      0.16s CPU      0.16s WALL (       1 calls)
     hinit0       :      0.47s CPU      0.48s WALL (       1 calls)

     Called by electrons:
     c_bands      :    103.63s CPU    106.08s WALL (      20 calls)
     sum_band     :     10.53s CPU     10.88s WALL (      20 calls)
     v_of_rho     :      0.22s CPU      0.25s WALL (      21 calls)
     newd         :      0.92s CPU      0.94s WALL (      21 calls)
     mix_rho      :      0.04s CPU      0.04s WALL (      20 calls)

     Called by c_bands:
     init_us_2    :      0.85s CPU      0.87s WALL (    4704 calls)
     init_us_2:cp :      0.83s CPU      0.85s WALL (    4704 calls)
     cegterg      :    101.04s CPU    103.41s WALL (    2240 calls)

     Called by *egterg:
     cdiaghg      :     14.81s CPU     14.97s WALL (   12841 calls)
     h_psi        :     55.48s CPU     57.24s WALL (   12953 calls)
     s_psi        :      8.05s CPU      8.13s WALL (   12953 calls)
     g_psi        :      0.21s CPU      0.21s WALL (   10601 calls)

     Called by h_psi:
     h_psi:calbec :      8.17s CPU      8.54s WALL (   12953 calls)
     vloc_psi     :     39.02s CPU     40.31s WALL (   12953 calls)
     add_vuspsi   :      8.06s CPU      8.15s WALL (   12953 calls)

     General routines
     calbec       :     11.09s CPU     11.58s WALL (   15641 calls)
     fft          :      0.41s CPU      0.45s WALL (     282 calls)
     ffts         :      0.05s CPU      0.06s WALL (      41 calls)
     fftw         :     39.22s CPU     40.54s WALL (  297998 calls)
     interpolate  :      0.06s CPU      0.06s WALL (      21 calls)

     Parallel routines

     PWSCF        :   1m59.57s CPU   2m 2.64s WALL


   This run was terminated on:  12: 7:59  23Jun2025            

=------------------------------------------------------------------------------=
   JOB DONE.
=------------------------------------------------------------------------------=
Note: The following floating-point exceptions are signalling: IEEE_INVALID_FLAG
