
     Program PWSCF v.7.2 starts on 23Jun2025 at 13: 1:59 

     This program is part of the open-source Quantum ESPRESSO suite
     for quantum simulation of materials; please cite
         "P. Giannozzi et al., J. Phys.:Condens. Matter 21 395502 (2009);
         "P. Giannozzi et al., J. Phys.:Condens. Matter 29 465901 (2017);
         "P. Giannozzi et al., J. Chem. Phys. 152 154105 (2020);
          URL http://www.quantum-espresso.org", 
     in publications or presentations arising from this work. More details at
     http://www.quantum-espresso.org/quote

     Parallel version (MPI), running on     8 processors

     MPI processes distributed on     1 nodes
     91190 MiB available memory on the printing compute node when the environment starts

     Reading input from /home/jvc/QEspresso7.2/ZnO_DataBase/scfs_rnd025.in/scf-5.81-1.78-3.in

     Current dimensions of program PWSCF are:
     Max number of different atomic species (ntypx) = 10
     Max number of k-points (npk) =  40000
     Max angular momentum in pseudopotentials (lmaxx) =  4
     file Zn.upf: wavefunction(s)  3D renormalized

     R & G space division:  proc/nbgrp/npool/nimage =       8
     Subspace diagonalization in iterative solution of the eigenvalue problem:
     a serial algorithm will be used


     Parallelization info
     --------------------
     sticks:   dense  smooth     PW     G-vecs:    dense   smooth      PW
     Min         116      57     18                 5081     1797     304
     Max         118      58     20                 5084     1800     307
     Sum         931     463    151                40667    14393    2443

     Using Slab Decomposition



     bravais-lattice index     =            4
     lattice parameter (alat)  =       5.8081  a.u.
     unit-cell volume          =     301.3171 (a.u.)^3
     number of atoms/cell      =            4
     number of atomic types    =            2
     number of electrons       =        36.00
     number of Kohn-Sham states=           18
     kinetic-energy cutoff     =      50.0000  Ry
     charge density cutoff     =     400.0000  Ry
     scf convergence threshold =      1.0E-08
     mixing beta               =       0.3000
     number of iterations used =            8  plain     mixing
     Exchange-correlation= PBE
                           (   1   4   3   4   0   0   0)

     celldm(1)=   5.808092  celldm(2)=   0.000000  celldm(3)=   1.775794
     celldm(4)=   0.000000  celldm(5)=   0.000000  celldm(6)=   0.000000

     crystal axes: (cart. coord. in units of alat)
               a(1) = (   1.000000   0.000000   0.000000 )  
               a(2) = (  -0.500000   0.866025   0.000000 )  
               a(3) = (   0.000000   0.000000   1.775794 )  

     reciprocal axes: (cart. coord. in units 2 pi/alat)
               b(1) = (  1.000000  0.577350 -0.000000 )  
               b(2) = (  0.000000  1.154701  0.000000 )  
               b(3) = (  0.000000 -0.000000  0.563128 )  


     PseudoPot. # 1 for Zn read from file:
     ./pseudos/Zn.upf
     MD5 check sum: 7f56cabf9682ed8c977c2f7d0c5985c5
     Pseudo is Ultrasoft + core correction, Zval = 12.0
     Generated using &quot;atomic&quot; code by A. Dal Corso  v.6.2.2
     Using radial grid of 1201 points,  6 beta functions with: 
                l(1) =   0
                l(2) =   0
                l(3) =   1
                l(4) =   1
                l(5) =   2
                l(6) =   2
     Q(r) pseudized with 0 coefficients 


     PseudoPot. # 2 for O  read from file:
     ./pseudos/O.upf
     MD5 check sum: 91400c9766925bcf19f520983a725ff0
     Pseudo is Ultrasoft + core correction, Zval =  6.0
     Generated using &quot;atomic&quot; code by A. Dal Corso  v.6.3MaX
     Using radial grid of 1095 points,  4 beta functions with: 
                l(1) =   0
                l(2) =   0
                l(3) =   1
                l(4) =   1
     Q(r) pseudized with 0 coefficients 


     atomic species   valence    mass     pseudopotential
        Zn            12.00    63.38000     Zn( 1.00)
        O              6.00    15.99900     O ( 1.00)

     No symmetry found



   Cartesian axes

     site n.     atom                  positions (alat units)
         1           Zn  tau(   1) = (   0.6749720   0.1652547   1.3329451  )
         2           Zn  tau(   2) = (  -0.1037726   0.6811940  -0.0017701  )
         3           O   tau(   3) = (   0.2578083   0.3816377   1.6999255  )
         4           O   tau(   4) = (   0.2138178   0.4296410   0.7887540  )

     number of k points=   112

     Number of k-points >= 100: set verbosity='high' to print them.

     Dense  grid:    40667 G-vectors     FFT dimensions: (  40,  40,  72)

     Smooth grid:    14393 G-vectors     FFT dimensions: (  27,  27,  48)

     Estimated max dynamical RAM per process >      28.35 MB

     Estimated total dynamical RAM >     226.82 MB

     Check: negative core charge=   -0.000002

     Initial potential from superposition of free atoms

     starting charge      35.9925, renormalised to      36.0000
     Starting wfcs are   26 randomized atomic wfcs

     total cpu time spent up to now is        3.9 secs

     Self-consistent Calculation

     iteration #  1     ecut=    50.00 Ry     beta= 0.30
     Davidson diagonalization with overlap
     ethr =  1.00E-02,  avg # of iterations =  2.0

     total cpu time spent up to now is        9.0 secs

     total energy              =    -360.48629333 Ry
     estimated scf accuracy    <       1.22304876 Ry

     iteration #  2     ecut=    50.00 Ry     beta= 0.30
     Davidson diagonalization with overlap
     ethr =  3.40E-03,  avg # of iterations =  7.9

     total cpu time spent up to now is       16.5 secs

     total energy              =    -360.69937054 Ry
     estimated scf accuracy    <       0.70655743 Ry

     iteration #  3     ecut=    50.00 Ry     beta= 0.30
     Davidson diagonalization with overlap
     ethr =  1.96E-03,  avg # of iterations =  2.0

     total cpu time spent up to now is       21.5 secs

     total energy              =    -360.53934221 Ry
     estimated scf accuracy    <       0.33000278 Ry

     iteration #  4     ecut=    50.00 Ry     beta= 0.30
     Davidson diagonalization with overlap
     ethr =  9.17E-04,  avg # of iterations =  8.8

     total cpu time spent up to now is       31.7 secs

     total energy              =    -360.92113438 Ry
     estimated scf accuracy    <       1.48470953 Ry

     iteration #  5     ecut=    50.00 Ry     beta= 0.30
     Davidson diagonalization with overlap
     ethr =  9.17E-04,  avg # of iterations =  2.0

     total cpu time spent up to now is       36.7 secs

     total energy              =    -361.17355570 Ry
     estimated scf accuracy    <       0.99888367 Ry

     iteration #  6     ecut=    50.00 Ry     beta= 0.30
     Davidson diagonalization with overlap
     ethr =  9.17E-04,  avg # of iterations =  1.1

     total cpu time spent up to now is       41.3 secs

     total energy              =    -360.15379047 Ry
     estimated scf accuracy    <       1.41490096 Ry

     iteration #  7     ecut=    50.00 Ry     beta= 0.30
     Davidson diagonalization with overlap
     c_bands:  1 eigenvalues not converged
     c_bands:  1 eigenvalues not converged
     c_bands:  1 eigenvalues not converged
     ethr =  9.17E-04,  avg # of iterations = 16.0

     total cpu time spent up to now is       56.2 secs

     total energy              =    -362.13290880 Ry
     estimated scf accuracy    <      13.01819461 Ry

     iteration #  8     ecut=    50.00 Ry     beta= 0.30
     Davidson diagonalization with overlap
     ethr =  9.17E-04,  avg # of iterations =  1.0

     total cpu time spent up to now is       60.7 secs

     total energy              =    -362.12880849 Ry
     estimated scf accuracy    <      12.94506243 Ry

     iteration #  9     ecut=    50.00 Ry     beta= 0.30
     Davidson diagonalization with overlap
     ethr =  9.17E-04,  avg # of iterations =  1.0

     total cpu time spent up to now is       65.2 secs

     total energy              =    -361.12389443 Ry
     estimated scf accuracy    <      12.94870546 Ry

     iteration # 10     ecut=    50.00 Ry     beta= 0.30
     Davidson diagonalization with overlap
     ethr =  9.17E-04,  avg # of iterations =  8.6

     total cpu time spent up to now is       72.7 secs

     total energy              =    -361.44362500 Ry
     estimated scf accuracy    <       5.72249132 Ry

     iteration # 11     ecut=    50.00 Ry     beta= 0.30
     Davidson diagonalization with overlap
     ethr =  9.17E-04,  avg # of iterations =  1.0

     total cpu time spent up to now is       77.2 secs

     total energy              =    -361.23482930 Ry
     estimated scf accuracy    <       6.04199624 Ry

     iteration # 12     ecut=    50.00 Ry     beta= 0.30
     Davidson diagonalization with overlap
     ethr =  9.17E-04,  avg # of iterations =  1.1

     total cpu time spent up to now is       81.8 secs

     total energy              =    -362.53400170 Ry
     estimated scf accuracy    <       5.69314761 Ry

     iteration # 13     ecut=    50.00 Ry     beta= 0.30
     Davidson diagonalization with overlap
     ethr =  9.17E-04,  avg # of iterations = 10.1

     total cpu time spent up to now is       90.0 secs

     total energy              =    -362.08833717 Ry
     estimated scf accuracy    <      17.85648071 Ry

     iteration # 14     ecut=    50.00 Ry     beta= 0.30
     Davidson diagonalization with overlap
     ethr =  9.17E-04,  avg # of iterations =  2.2

     total cpu time spent up to now is       95.1 secs

     total energy              =    -360.48326268 Ry
     estimated scf accuracy    <      16.15414076 Ry

     iteration # 15     ecut=    50.00 Ry     beta= 0.30
     Davidson diagonalization with overlap
     ethr =  9.17E-04,  avg # of iterations =  9.0

     total cpu time spent up to now is      103.2 secs

     total energy              =    -359.25700042 Ry
     estimated scf accuracy    <       2.75185044 Ry

     iteration # 16     ecut=    50.00 Ry     beta= 0.30
     Davidson diagonalization with overlap
     c_bands:  1 eigenvalues not converged
     c_bands:  1 eigenvalues not converged
     c_bands:  1 eigenvalues not converged
     c_bands:  1 eigenvalues not converged
     ethr =  9.17E-04,  avg # of iterations = 12.6

     total cpu time spent up to now is      120.9 secs

     total energy              =    -361.89434222 Ry
     estimated scf accuracy    <       5.70139800 Ry

     iteration # 17     ecut=    50.00 Ry     beta= 0.30
     Davidson diagonalization with overlap
     ethr =  9.17E-04,  avg # of iterations =  2.2

     total cpu time spent up to now is      126.0 secs

     total energy              =    -360.30185229 Ry
     estimated scf accuracy    <       4.58074879 Ry

     iteration # 18     ecut=    50.00 Ry     beta= 0.30
     Davidson diagonalization with overlap
     ethr =  9.17E-04,  avg # of iterations =  9.1

     total cpu time spent up to now is      135.5 secs

     total energy              =    -360.79419991 Ry
     estimated scf accuracy    <       0.19159203 Ry

     iteration # 19     ecut=    50.00 Ry     beta= 0.30
     Davidson diagonalization with overlap
     ethr =  5.32E-04,  avg # of iterations =  5.1

     total cpu time spent up to now is      141.5 secs

     total energy              =    -360.82876685 Ry
     estimated scf accuracy    <       0.02085391 Ry

     iteration # 20     ecut=    50.00 Ry     beta= 0.30
     Davidson diagonalization with overlap
     c_bands:  2 eigenvalues not converged
     ethr =  5.79E-05,  avg # of iterations =  7.8

     total cpu time spent up to now is      149.0 secs

     total energy              =    -360.83950845 Ry
     estimated scf accuracy    <       0.01754312 Ry

     iteration # 21     ecut=    50.00 Ry     beta= 0.30
     Davidson diagonalization with overlap
     c_bands:  1 eigenvalues not converged
     c_bands:  1 eigenvalues not converged
     c_bands:  1 eigenvalues not converged
     ethr =  4.87E-05,  avg # of iterations =  7.9

     total cpu time spent up to now is      156.6 secs

     total energy              =    -360.79108257 Ry
     estimated scf accuracy    <       0.15385441 Ry

     iteration # 22     ecut=    50.00 Ry     beta= 0.30
     Davidson diagonalization with overlap
     c_bands:  1 eigenvalues not converged
     c_bands:  2 eigenvalues not converged
     c_bands:  2 eigenvalues not converged
     c_bands:  1 eigenvalues not converged
     c_bands:  1 eigenvalues not converged
     c_bands:  1 eigenvalues not converged
     c_bands:  1 eigenvalues not converged
     c_bands:  2 eigenvalues not converged
     c_bands:  2 eigenvalues not converged
     c_bands:  2 eigenvalues not converged
     c_bands:  2 eigenvalues not converged
     c_bands:  2 eigenvalues not converged
     c_bands:  2 eigenvalues not converged
     c_bands:  1 eigenvalues not converged
     c_bands:  1 eigenvalues not converged
     c_bands:  1 eigenvalues not converged
     c_bands:  1 eigenvalues not converged
     c_bands:  1 eigenvalues not converged
     c_bands:  1 eigenvalues not converged
     ethr =  4.87E-05,  avg # of iterations = 11.8

     total cpu time spent up to now is      166.3 secs

     total energy              =    -360.80559622 Ry
     estimated scf accuracy    <       0.14500541 Ry

     iteration # 23     ecut=    50.00 Ry     beta= 0.30
     Davidson diagonalization with overlap
     c_bands:  1 eigenvalues not converged
     ethr =  4.87E-05,  avg # of iterations =  8.4

     total cpu time spent up to now is      174.2 secs

     total energy              =    -360.83252847 Ry
     estimated scf accuracy    <       0.02667983 Ry

     iteration # 24     ecut=    50.00 Ry     beta= 0.30
     Davidson diagonalization with overlap
     ethr =  4.87E-05,  avg # of iterations =  1.1

     total cpu time spent up to now is      178.5 secs

     total energy              =    -360.82907937 Ry
     estimated scf accuracy    <       0.01940100 Ry

     iteration # 25     ecut=    50.00 Ry     beta= 0.30
     Davidson diagonalization with overlap
     ethr =  4.87E-05,  avg # of iterations =  6.7

     total cpu time spent up to now is      184.8 secs

     total energy              =    -360.83421522 Ry
     estimated scf accuracy    <       0.00144548 Ry

     iteration # 26     ecut=    50.00 Ry     beta= 0.30
     Davidson diagonalization with overlap
     c_bands:  2 eigenvalues not converged
     c_bands:  1 eigenvalues not converged
     c_bands:  1 eigenvalues not converged
     c_bands:  1 eigenvalues not converged
     c_bands:  1 eigenvalues not converged
     c_bands:  1 eigenvalues not converged
     c_bands:  1 eigenvalues not converged
     c_bands:  1 eigenvalues not converged
     c_bands:  1 eigenvalues not converged
     c_bands:  2 eigenvalues not converged
     c_bands:  2 eigenvalues not converged
     c_bands:  1 eigenvalues not converged
     c_bands:  1 eigenvalues not converged
     c_bands:  1 eigenvalues not converged
     c_bands:  1 eigenvalues not converged
     c_bands:  1 eigenvalues not converged
     c_bands:  1 eigenvalues not converged
     ethr =  4.02E-06,  avg # of iterations = 12.8

     total cpu time spent up to now is      195.2 secs

     total energy              =    -360.84125152 Ry
     estimated scf accuracy    <       0.07054086 Ry

     iteration # 27     ecut=    50.00 Ry     beta= 0.30
     Davidson diagonalization with overlap
     ethr =  4.02E-06,  avg # of iterations =  2.7

     total cpu time spent up to now is      200.1 secs

     total energy              =    -360.84529039 Ry
     estimated scf accuracy    <       0.08517790 Ry

     iteration # 28     ecut=    50.00 Ry     beta= 0.30
     Davidson diagonalization with overlap
     ethr =  4.02E-06,  avg # of iterations =  7.4

     total cpu time spent up to now is      206.7 secs

     total energy              =    -360.83204467 Ry
     estimated scf accuracy    <       0.11851070 Ry

     iteration # 29     ecut=    50.00 Ry     beta= 0.30
     Davidson diagonalization with overlap
     c_bands:  1 eigenvalues not converged
     c_bands:  1 eigenvalues not converged
     c_bands:  1 eigenvalues not converged
     ethr =  4.02E-06,  avg # of iterations =  8.9

     total cpu time spent up to now is      214.8 secs

     total energy              =    -360.83305095 Ry
     estimated scf accuracy    <       0.03167019 Ry

     iteration # 30     ecut=    50.00 Ry     beta= 0.30
     Davidson diagonalization with overlap
     ethr =  4.02E-06,  avg # of iterations =  3.1

     total cpu time spent up to now is      219.8 secs

     total energy              =    -360.83292943 Ry
     estimated scf accuracy    <       0.02064765 Ry

     iteration # 31     ecut=    50.00 Ry     beta= 0.30
     Davidson diagonalization with overlap
     ethr =  4.02E-06,  avg # of iterations =  2.7

     total cpu time spent up to now is      224.9 secs

     total energy              =    -360.83065807 Ry
     estimated scf accuracy    <       0.01789247 Ry

     iteration # 32     ecut=    50.00 Ry     beta= 0.30
     Davidson diagonalization with overlap
     ethr =  4.02E-06,  avg # of iterations =  8.2

     total cpu time spent up to now is      232.2 secs

     total energy              =    -360.83299392 Ry
     estimated scf accuracy    <       0.00012624 Ry

     iteration # 33     ecut=    50.00 Ry     beta= 0.30
     Davidson diagonalization with overlap
     c_bands:  1 eigenvalues not converged
     c_bands:  1 eigenvalues not converged
     ethr =  3.51E-07,  avg # of iterations =  8.0

     total cpu time spent up to now is      239.5 secs

     total energy              =    -360.83298556 Ry
     estimated scf accuracy    <       0.00037177 Ry

     iteration # 34     ecut=    50.00 Ry     beta= 0.30
     Davidson diagonalization with overlap
     c_bands:  1 eigenvalues not converged
     c_bands:  1 eigenvalues not converged
     ethr =  3.51E-07,  avg # of iterations =  8.1

     total cpu time spent up to now is      246.7 secs

     total energy              =    -360.83305028 Ry
     estimated scf accuracy    <       0.00010120 Ry

     iteration # 35     ecut=    50.00 Ry     beta= 0.30
     Davidson diagonalization with overlap
     ethr =  2.81E-07,  avg # of iterations =  1.2

     total cpu time spent up to now is      250.9 secs

     total energy              =    -360.83307774 Ry
     estimated scf accuracy    <       0.00008997 Ry

     iteration # 36     ecut=    50.00 Ry     beta= 0.30
     Davidson diagonalization with overlap
     c_bands:  1 eigenvalues not converged
     ethr =  2.50E-07,  avg # of iterations =  5.9

     total cpu time spent up to now is      256.9 secs

     total energy              =    -360.83310193 Ry
     estimated scf accuracy    <       0.00039955 Ry

     iteration # 37     ecut=    50.00 Ry     beta= 0.30
     Davidson diagonalization with overlap
     ethr =  2.50E-07,  avg # of iterations =  1.6

     total cpu time spent up to now is      261.4 secs

     total energy              =    -360.83307946 Ry
     estimated scf accuracy    <       0.00042315 Ry

     iteration # 38     ecut=    50.00 Ry     beta= 0.30
     Davidson diagonalization with overlap
     ethr =  2.50E-07,  avg # of iterations =  1.0

     total cpu time spent up to now is      265.8 secs

     total energy              =    -360.83304914 Ry
     estimated scf accuracy    <       0.00038337 Ry

     iteration # 39     ecut=    50.00 Ry     beta= 0.30
     Davidson diagonalization with overlap
     ethr =  2.50E-07,  avg # of iterations =  1.4

     total cpu time spent up to now is      270.4 secs

     total energy              =    -360.83297822 Ry
     estimated scf accuracy    <       0.00031232 Ry

     iteration # 40     ecut=    50.00 Ry     beta= 0.30
     Davidson diagonalization with overlap
     c_bands:  1 eigenvalues not converged
     c_bands:  1 eigenvalues not converged
     ethr =  2.50E-07,  avg # of iterations =  8.1

     total cpu time spent up to now is      277.6 secs

     total energy              =    -360.83305267 Ry
     estimated scf accuracy    <       0.00003237 Ry

     iteration # 41     ecut=    50.00 Ry     beta= 0.30
     Davidson diagonalization with overlap
     c_bands:  1 eigenvalues not converged
     c_bands:  1 eigenvalues not converged
     c_bands:  1 eigenvalues not converged
     c_bands:  1 eigenvalues not converged
     c_bands:  1 eigenvalues not converged
     c_bands:  1 eigenvalues not converged
     c_bands:  1 eigenvalues not converged
     ethr =  8.99E-08,  avg # of iterations =  8.1

     total cpu time spent up to now is      285.3 secs

     total energy              =    -360.83292431 Ry
     estimated scf accuracy    <       0.00042099 Ry

     iteration # 42     ecut=    50.00 Ry     beta= 0.30
     Davidson diagonalization with overlap
     c_bands:  1 eigenvalues not converged
     c_bands:  2 eigenvalues not converged
     c_bands:  1 eigenvalues not converged
     c_bands:  2 eigenvalues not converged
     c_bands:  1 eigenvalues not converged
     c_bands:  2 eigenvalues not converged
     c_bands:  2 eigenvalues not converged
     c_bands:  1 eigenvalues not converged
     c_bands:  2 eigenvalues not converged
     c_bands:  2 eigenvalues not converged
     c_bands:  2 eigenvalues not converged
     c_bands:  2 eigenvalues not converged
     c_bands:  1 eigenvalues not converged
     c_bands:  1 eigenvalues not converged
     c_bands:  1 eigenvalues not converged
     c_bands:  1 eigenvalues not converged
     c_bands:  1 eigenvalues not converged
     ethr =  8.99E-08,  avg # of iterations = 13.4

     total cpu time spent up to now is      297.7 secs

     total energy              =    -360.83302967 Ry
     estimated scf accuracy    <       0.00018973 Ry

     iteration # 43     ecut=    50.00 Ry     beta= 0.30
     Davidson diagonalization with overlap
     c_bands:  1 eigenvalues not converged
     ethr =  8.99E-08,  avg # of iterations =  7.8

     total cpu time spent up to now is      304.3 secs

     total energy              =    -360.83303004 Ry
     estimated scf accuracy    <       0.00006500 Ry

     iteration # 44     ecut=    50.00 Ry     beta= 0.30
     Davidson diagonalization with overlap
     ethr =  8.99E-08,  avg # of iterations =  4.3

     total cpu time spent up to now is      309.8 secs

     total energy              =    -360.83303018 Ry
     estimated scf accuracy    <       0.00001703 Ry

     iteration # 45     ecut=    50.00 Ry     beta= 0.30
     Davidson diagonalization with overlap
     ethr =  4.73E-08,  avg # of iterations =  7.5

     total cpu time spent up to now is      316.7 secs

     total energy              =    -360.83304013 Ry
     estimated scf accuracy    <       0.00001988 Ry

     iteration # 46     ecut=    50.00 Ry     beta= 0.30
     Davidson diagonalization with overlap
     ethr =  4.73E-08,  avg # of iterations =  1.2

     total cpu time spent up to now is      321.1 secs

     total energy              =    -360.83303801 Ry
     estimated scf accuracy    <       0.00001845 Ry

     iteration # 47     ecut=    50.00 Ry     beta= 0.30
     Davidson diagonalization with overlap
     ethr =  4.73E-08,  avg # of iterations =  1.8

     total cpu time spent up to now is      325.9 secs

     total energy              =    -360.83303760 Ry
     estimated scf accuracy    <       0.00001005 Ry

     iteration # 48     ecut=    50.00 Ry     beta= 0.30
     Davidson diagonalization with overlap
     ethr =  2.79E-08,  avg # of iterations =  1.7

     total cpu time spent up to now is      330.5 secs

     total energy              =    -360.83303957 Ry
     estimated scf accuracy    <       0.00000623 Ry

     iteration # 49     ecut=    50.00 Ry     beta= 0.30
     Davidson diagonalization with overlap
     ethr =  1.73E-08,  avg # of iterations =  1.4

     total cpu time spent up to now is      334.9 secs

     total energy              =    -360.83303707 Ry
     estimated scf accuracy    <       0.00000928 Ry

     iteration # 50     ecut=    50.00 Ry     beta= 0.30
     Davidson diagonalization with overlap
     ethr =  1.73E-08,  avg # of iterations =  4.8

     total cpu time spent up to now is      340.5 secs

     total energy              =    -360.83303790 Ry
     estimated scf accuracy    <       0.00000034 Ry

     iteration # 51     ecut=    50.00 Ry     beta= 0.30
     Davidson diagonalization with overlap
     c_bands:  1 eigenvalues not converged
     c_bands:  1 eigenvalues not converged
     c_bands:  1 eigenvalues not converged
     c_bands:  1 eigenvalues not converged
     c_bands:  1 eigenvalues not converged
     c_bands:  1 eigenvalues not converged
     c_bands:  1 eigenvalues not converged
     c_bands:  2 eigenvalues not converged
     c_bands:  2 eigenvalues not converged
     c_bands:  2 eigenvalues not converged
     c_bands:  1 eigenvalues not converged
     c_bands:  1 eigenvalues not converged
     c_bands:  1 eigenvalues not converged
     c_bands:  1 eigenvalues not converged
     c_bands:  1 eigenvalues not converged
     c_bands:  1 eigenvalues not converged
     c_bands:  1 eigenvalues not converged
     ethr =  9.58E-10,  avg # of iterations = 14.7

     total cpu time spent up to now is      354.0 secs

     total energy              =    -360.83305405 Ry
     estimated scf accuracy    <       0.00002771 Ry

     iteration # 52     ecut=    50.00 Ry     beta= 0.30
     Davidson diagonalization with overlap
     c_bands:  1 eigenvalues not converged
     c_bands:  1 eigenvalues not converged
     c_bands:  1 eigenvalues not converged
     c_bands:  1 eigenvalues not converged
     c_bands:  1 eigenvalues not converged
     c_bands:  1 eigenvalues not converged
     c_bands:  1 eigenvalues not converged
     c_bands:  1 eigenvalues not converged
     c_bands:  1 eigenvalues not converged
     c_bands:  1 eigenvalues not converged
     c_bands:  1 eigenvalues not converged
     ethr =  9.58E-10,  avg # of iterations =  9.0

     total cpu time spent up to now is      361.7 secs

     total energy              =    -360.83305553 Ry
     estimated scf accuracy    <       0.00005195 Ry

     iteration # 53     ecut=    50.00 Ry     beta= 0.30
     Davidson diagonalization with overlap
     ethr =  9.58E-10,  avg # of iterations =  1.8

     total cpu time spent up to now is      366.2 secs

     total energy              =    -360.83305411 Ry
     estimated scf accuracy    <       0.00005118 Ry

     iteration # 54     ecut=    50.00 Ry     beta= 0.30
     Davidson diagonalization with overlap
     c_bands:  1 eigenvalues not converged
     ethr =  9.58E-10,  avg # of iterations =  7.9

     total cpu time spent up to now is      373.1 secs

     total energy              =    -360.83305313 Ry
     estimated scf accuracy    <       0.00003912 Ry

     iteration # 55     ecut=    50.00 Ry     beta= 0.30
     Davidson diagonalization with overlap
     ethr =  9.58E-10,  avg # of iterations =  8.0

     total cpu time spent up to now is      380.4 secs

     total energy              =    -360.83305358 Ry
     estimated scf accuracy    <       0.00002852 Ry

     iteration # 56     ecut=    50.00 Ry     beta= 0.30
     Davidson diagonalization with overlap
     ethr =  9.58E-10,  avg # of iterations =  1.0

     total cpu time spent up to now is      384.8 secs

     total energy              =    -360.83305441 Ry
     estimated scf accuracy    <       0.00002893 Ry

     iteration # 57     ecut=    50.00 Ry     beta= 0.30
     Davidson diagonalization with overlap
     c_bands:  1 eigenvalues not converged
     ethr =  9.58E-10,  avg # of iterations =  8.1

     total cpu time spent up to now is      392.1 secs

     total energy              =    -360.83305013 Ry
     estimated scf accuracy    <       0.00003840 Ry

     iteration # 58     ecut=    50.00 Ry     beta= 0.30
     Davidson diagonalization with overlap
     c_bands:  2 eigenvalues not converged
     c_bands:  2 eigenvalues not converged
     c_bands:  1 eigenvalues not converged
     c_bands:  1 eigenvalues not converged
     c_bands:  1 eigenvalues not converged
     c_bands:  1 eigenvalues not converged
     c_bands:  1 eigenvalues not converged
     c_bands:  1 eigenvalues not converged
     c_bands:  1 eigenvalues not converged
     c_bands:  1 eigenvalues not converged
     c_bands:  2 eigenvalues not converged
     c_bands:  2 eigenvalues not converged
     c_bands:  2 eigenvalues not converged
     c_bands:  2 eigenvalues not converged
     c_bands:  1 eigenvalues not converged
     c_bands:  1 eigenvalues not converged
     ethr =  9.58E-10,  avg # of iterations = 13.3

     total cpu time spent up to now is      404.2 secs

     total energy              =    -360.83305191 Ry
     estimated scf accuracy    <       0.00001549 Ry

     iteration # 59     ecut=    50.00 Ry     beta= 0.30
     Davidson diagonalization with overlap
     ethr =  9.58E-10,  avg # of iterations =  2.8

     total cpu time spent up to now is      409.1 secs

     total energy              =    -360.83307148 Ry
     estimated scf accuracy    <       0.00001442 Ry

     iteration # 60     ecut=    50.00 Ry     beta= 0.30
     Davidson diagonalization with overlap
     c_bands:  2 eigenvalues not converged
     c_bands:  2 eigenvalues not converged
     c_bands:  3 eigenvalues not converged
     c_bands:  4 eigenvalues not converged
     c_bands:  3 eigenvalues not converged
     c_bands:  4 eigenvalues not converged
     c_bands:  3 eigenvalues not converged
     c_bands:  1 eigenvalues not converged
     c_bands:  3 eigenvalues not converged
     c_bands:  3 eigenvalues not converged
     c_bands:  3 eigenvalues not converged
     c_bands:  1 eigenvalues not converged
     c_bands:  1 eigenvalues not converged
     c_bands:  2 eigenvalues not converged
     c_bands:  2 eigenvalues not converged
     c_bands:  3 eigenvalues not converged
     c_bands:  2 eigenvalues not converged
     c_bands:  2 eigenvalues not converged
     c_bands:  3 eigenvalues not converged
     c_bands:  2 eigenvalues not converged
     c_bands:  3 eigenvalues not converged
     c_bands:  2 eigenvalues not converged
     c_bands:  3 eigenvalues not converged
     c_bands:  3 eigenvalues not converged
     c_bands:  3 eigenvalues not converged
     c_bands:  3 eigenvalues not converged
     c_bands:  2 eigenvalues not converged
     c_bands:  3 eigenvalues not converged
     c_bands:  3 eigenvalues not converged
     c_bands:  3 eigenvalues not converged
     c_bands:  3 eigenvalues not converged
     c_bands:  3 eigenvalues not converged
     c_bands:  3 eigenvalues not converged
     c_bands:  4 eigenvalues not converged
     c_bands:  3 eigenvalues not converged
     c_bands:  1 eigenvalues not converged
     c_bands:  3 eigenvalues not converged
     c_bands:  3 eigenvalues not converged
     c_bands:  3 eigenvalues not converged
     c_bands:  3 eigenvalues not converged
     c_bands:  3 eigenvalues not converged
     c_bands:  3 eigenvalues not converged
     c_bands:  3 eigenvalues not converged
     c_bands:  2 eigenvalues not converged
     c_bands:  3 eigenvalues not converged
     c_bands:  2 eigenvalues not converged
     c_bands:  2 eigenvalues not converged
     c_bands:  2 eigenvalues not converged
     c_bands:  1 eigenvalues not converged
     c_bands:  3 eigenvalues not converged
     c_bands:  3 eigenvalues not converged
     c_bands:  3 eigenvalues not converged
     c_bands:  2 eigenvalues not converged
     c_bands:  3 eigenvalues not converged
     c_bands:  2 eigenvalues not converged
     c_bands:  1 eigenvalues not converged
     c_bands:  3 eigenvalues not converged
     c_bands:  2 eigenvalues not converged
     c_bands:  3 eigenvalues not converged
     c_bands:  1 eigenvalues not converged
     c_bands:  1 eigenvalues not converged
     c_bands:  1 eigenvalues not converged
     c_bands:  3 eigenvalues not converged
     c_bands:  3 eigenvalues not converged
     c_bands:  3 eigenvalues not converged
     c_bands:  2 eigenvalues not converged
     c_bands:  1 eigenvalues not converged
     c_bands:  1 eigenvalues not converged
     c_bands:  2 eigenvalues not converged
     c_bands:  2 eigenvalues not converged
     c_bands:  3 eigenvalues not converged
     c_bands:  1 eigenvalues not converged
     c_bands:  3 eigenvalues not converged
     c_bands:  1 eigenvalues not converged
     c_bands:  1 eigenvalues not converged
     c_bands:  1 eigenvalues not converged
     c_bands:  1 eigenvalues not converged
     c_bands:  1 eigenvalues not converged
     ethr =  9.58E-10,  avg # of iterations = 19.8

     total cpu time spent up to now is      433.9 secs

     total energy              =    -360.83307944 Ry
     estimated scf accuracy    <       0.00097282 Ry

     iteration # 61     ecut=    50.00 Ry     beta= 0.30
     Davidson diagonalization with overlap
     c_bands:  1 eigenvalues not converged
     c_bands:  1 eigenvalues not converged
     c_bands:  1 eigenvalues not converged
     c_bands:  1 eigenvalues not converged
     c_bands:  3 eigenvalues not converged
     c_bands:  1 eigenvalues not converged
     c_bands:  2 eigenvalues not converged
     c_bands:  2 eigenvalues not converged
     c_bands:  2 eigenvalues not converged
     c_bands:  1 eigenvalues not converged
     c_bands:  1 eigenvalues not converged
     c_bands:  1 eigenvalues not converged
     c_bands:  1 eigenvalues not converged
     c_bands:  2 eigenvalues not converged
     c_bands:  2 eigenvalues not converged
     c_bands:  2 eigenvalues not converged
     c_bands:  2 eigenvalues not converged
     c_bands:  1 eigenvalues not converged
     c_bands:  1 eigenvalues not converged
     c_bands:  1 eigenvalues not converged
     c_bands:  3 eigenvalues not converged
     c_bands:  1 eigenvalues not converged
     c_bands:  1 eigenvalues not converged
     c_bands:  3 eigenvalues not converged
     c_bands:  3 eigenvalues not converged
     c_bands:  1 eigenvalues not converged
     c_bands:  1 eigenvalues not converged
     c_bands:  2 eigenvalues not converged
     c_bands:  2 eigenvalues not converged
     c_bands:  2 eigenvalues not converged
     c_bands:  1 eigenvalues not converged
     c_bands:  3 eigenvalues not converged
     c_bands:  2 eigenvalues not converged
     c_bands:  1 eigenvalues not converged
     c_bands:  2 eigenvalues not converged
     c_bands:  1 eigenvalues not converged
     c_bands:  1 eigenvalues not converged
     c_bands:  3 eigenvalues not converged
     c_bands:  1 eigenvalues not converged
     c_bands:  2 eigenvalues not converged
     c_bands:  1 eigenvalues not converged
     c_bands:  2 eigenvalues not converged
     c_bands:  1 eigenvalues not converged
     c_bands:  1 eigenvalues not converged
     c_bands:  2 eigenvalues not converged
     c_bands:  2 eigenvalues not converged
     c_bands:  2 eigenvalues not converged
     c_bands:  2 eigenvalues not converged
     c_bands:  2 eigenvalues not converged
     c_bands:  2 eigenvalues not converged
     c_bands:  2 eigenvalues not converged
     c_bands:  1 eigenvalues not converged
     c_bands:  2 eigenvalues not converged
     c_bands:  1 eigenvalues not converged
     c_bands:  1 eigenvalues not converged
     c_bands:  2 eigenvalues not converged
     ethr =  9.58E-10,  avg # of iterations = 18.9

     total cpu time spent up to now is      455.5 secs

     total energy              =    -360.83310765 Ry
     estimated scf accuracy    <       0.00044241 Ry

     iteration # 62     ecut=    50.00 Ry     beta= 0.30
     Davidson diagonalization with overlap
     c_bands:  1 eigenvalues not converged
     c_bands:  1 eigenvalues not converged
     c_bands:  1 eigenvalues not converged
     c_bands:  1 eigenvalues not converged
     c_bands:  1 eigenvalues not converged
     c_bands:  1 eigenvalues not converged
     c_bands:  1 eigenvalues not converged
     c_bands:  1 eigenvalues not converged
     c_bands:  1 eigenvalues not converged
     c_bands:  1 eigenvalues not converged
     c_bands:  1 eigenvalues not converged
     c_bands:  1 eigenvalues not converged
     c_bands:  1 eigenvalues not converged
     c_bands:  1 eigenvalues not converged
     c_bands:  1 eigenvalues not converged
     c_bands:  1 eigenvalues not converged
     ethr =  9.58E-10,  avg # of iterations = 10.0

     total cpu time spent up to now is      463.4 secs

     total energy              =    -360.83304593 Ry
     estimated scf accuracy    <       0.00054661 Ry

     iteration # 63     ecut=    50.00 Ry     beta= 0.30
     Davidson diagonalization with overlap
     c_bands:  1 eigenvalues not converged
     c_bands:  1 eigenvalues not converged
     c_bands:  1 eigenvalues not converged
     c_bands:  2 eigenvalues not converged
     c_bands:  2 eigenvalues not converged
     c_bands:  3 eigenvalues not converged
     c_bands:  3 eigenvalues not converged
     c_bands:  3 eigenvalues not converged
     c_bands:  1 eigenvalues not converged
     c_bands:  1 eigenvalues not converged
     c_bands:  2 eigenvalues not converged
     c_bands:  2 eigenvalues not converged
     c_bands:  3 eigenvalues not converged
     c_bands:  3 eigenvalues not converged
     c_bands:  2 eigenvalues not converged
     c_bands:  3 eigenvalues not converged
     c_bands:  2 eigenvalues not converged
     c_bands:  2 eigenvalues not converged
     c_bands:  3 eigenvalues not converged
     c_bands:  2 eigenvalues not converged
     c_bands:  3 eigenvalues not converged
     c_bands:  3 eigenvalues not converged
     c_bands:  3 eigenvalues not converged
     c_bands:  3 eigenvalues not converged
     c_bands:  3 eigenvalues not converged
     c_bands:  1 eigenvalues not converged
     c_bands:  1 eigenvalues not converged
     c_bands:  1 eigenvalues not converged
     c_bands:  1 eigenvalues not converged
     c_bands:  3 eigenvalues not converged
     c_bands:  2 eigenvalues not converged
     ethr =  9.58E-10,  avg # of iterations = 17.3

     total cpu time spent up to now is      480.3 secs

     total energy              =    -360.83304520 Ry
     estimated scf accuracy    <       0.00016659 Ry

     iteration # 64     ecut=    50.00 Ry     beta= 0.30
     Davidson diagonalization with overlap
     c_bands:  1 eigenvalues not converged
     c_bands:  1 eigenvalues not converged
     c_bands:  1 eigenvalues not converged
     c_bands:  2 eigenvalues not converged
     c_bands:  2 eigenvalues not converged
     c_bands:  2 eigenvalues not converged
     c_bands:  2 eigenvalues not converged
     c_bands:  1 eigenvalues not converged
     c_bands:  1 eigenvalues not converged
     c_bands:  1 eigenvalues not converged
     c_bands:  2 eigenvalues not converged
     c_bands:  1 eigenvalues not converged
     c_bands:  2 eigenvalues not converged
     c_bands:  2 eigenvalues not converged
     c_bands:  2 eigenvalues not converged
     c_bands:  2 eigenvalues not converged
     c_bands:  2 eigenvalues not converged
     c_bands:  2 eigenvalues not converged
     c_bands:  1 eigenvalues not converged
     c_bands:  1 eigenvalues not converged
     c_bands:  2 eigenvalues not converged
     c_bands:  1 eigenvalues not converged
     c_bands:  1 eigenvalues not converged
     c_bands:  1 eigenvalues not converged
     ethr =  9.58E-10,  avg # of iterations = 15.1

     total cpu time spent up to now is      492.9 secs

     total energy              =    -360.83303106 Ry
     estimated scf accuracy    <       0.00006180 Ry

     iteration # 65     ecut=    50.00 Ry     beta= 0.30
     Davidson diagonalization with overlap
     c_bands:  1 eigenvalues not converged
     c_bands:  1 eigenvalues not converged
     c_bands:  1 eigenvalues not converged
     c_bands:  1 eigenvalues not converged
     c_bands:  3 eigenvalues not converged
     c_bands:  2 eigenvalues not converged
     c_bands:  3 eigenvalues not converged
     c_bands:  3 eigenvalues not converged
     c_bands:  1 eigenvalues not converged
     c_bands:  1 eigenvalues not converged
     c_bands:  1 eigenvalues not converged
     c_bands:  1 eigenvalues not converged
     c_bands:  2 eigenvalues not converged
     c_bands:  2 eigenvalues not converged
     c_bands:  2 eigenvalues not converged
     c_bands:  2 eigenvalues not converged
     c_bands:  2 eigenvalues not converged
     c_bands:  1 eigenvalues not converged
     c_bands:  3 eigenvalues not converged
     c_bands:  2 eigenvalues not converged
     c_bands:  3 eigenvalues not converged
     c_bands:  3 eigenvalues not converged
     c_bands:  1 eigenvalues not converged
     c_bands:  3 eigenvalues not converged
     c_bands:  3 eigenvalues not converged
     c_bands:  3 eigenvalues not converged
     c_bands:  3 eigenvalues not converged
     c_bands:  3 eigenvalues not converged
     c_bands:  3 eigenvalues not converged
     c_bands:  3 eigenvalues not converged
     c_bands:  3 eigenvalues not converged
     c_bands:  1 eigenvalues not converged
     c_bands:  3 eigenvalues not converged
     c_bands:  1 eigenvalues not converged
     c_bands:  1 eigenvalues not converged
     c_bands:  1 eigenvalues not converged
     c_bands:  1 eigenvalues not converged
     c_bands:  3 eigenvalues not converged
     c_bands:  1 eigenvalues not converged
     c_bands:  1 eigenvalues not converged
     c_bands:  2 eigenvalues not converged
     c_bands:  1 eigenvalues not converged
     c_bands:  2 eigenvalues not converged
     c_bands:  1 eigenvalues not converged
     c_bands:  1 eigenvalues not converged
     c_bands:  1 eigenvalues not converged
     c_bands:  2 eigenvalues not converged
     c_bands:  2 eigenvalues not converged
     c_bands:  2 eigenvalues not converged
     ethr =  9.58E-10,  avg # of iterations = 18.5

     total cpu time spent up to now is      513.8 secs

     total energy              =    -360.83306732 Ry
     estimated scf accuracy    <       0.00008307 Ry

     iteration # 66     ecut=    50.00 Ry     beta= 0.30
     Davidson diagonalization with overlap
     c_bands:  1 eigenvalues not converged
     c_bands:  1 eigenvalues not converged
     c_bands:  1 eigenvalues not converged
     c_bands:  1 eigenvalues not converged
     c_bands:  2 eigenvalues not converged
     c_bands:  2 eigenvalues not converged
     c_bands:  2 eigenvalues not converged
     c_bands:  2 eigenvalues not converged
     c_bands:  1 eigenvalues not converged
     c_bands:  1 eigenvalues not converged
     c_bands:  1 eigenvalues not converged
     c_bands:  2 eigenvalues not converged
     c_bands:  1 eigenvalues not converged
     c_bands:  1 eigenvalues not converged
     c_bands:  1 eigenvalues not converged
     c_bands:  2 eigenvalues not converged
     c_bands:  2 eigenvalues not converged
     c_bands:  2 eigenvalues not converged
     c_bands:  1 eigenvalues not converged
     c_bands:  2 eigenvalues not converged
     c_bands:  1 eigenvalues not converged
     c_bands:  1 eigenvalues not converged
     c_bands:  1 eigenvalues not converged
     c_bands:  1 eigenvalues not converged
     ethr =  9.58E-10,  avg # of iterations = 12.1

     total cpu time spent up to now is      524.5 secs

     total energy              =    -360.83308525 Ry
     estimated scf accuracy    <       0.00023546 Ry

     iteration # 67     ecut=    50.00 Ry     beta= 0.30
     Davidson diagonalization with overlap
     c_bands:  1 eigenvalues not converged
     c_bands:  1 eigenvalues not converged
     c_bands:  1 eigenvalues not converged
     c_bands:  1 eigenvalues not converged
     c_bands:  1 eigenvalues not converged
     c_bands:  1 eigenvalues not converged
     c_bands:  1 eigenvalues not converged
     c_bands:  1 eigenvalues not converged
     c_bands:  1 eigenvalues not converged
     c_bands:  1 eigenvalues not converged
     c_bands:  1 eigenvalues not converged
     c_bands:  1 eigenvalues not converged
     c_bands:  1 eigenvalues not converged
     c_bands:  1 eigenvalues not converged
     c_bands:  1 eigenvalues not converged
     c_bands:  1 eigenvalues not converged
     c_bands:  1 eigenvalues not converged
     c_bands:  1 eigenvalues not converged
     ethr =  9.58E-10,  avg # of iterations = 10.0

     total cpu time spent up to now is      532.9 secs

     total energy              =    -360.83302792 Ry
     estimated scf accuracy    <       0.00034922 Ry

     iteration # 68     ecut=    50.00 Ry     beta= 0.30
     Davidson diagonalization with overlap
     c_bands:  1 eigenvalues not converged
     c_bands:  1 eigenvalues not converged
     c_bands:  2 eigenvalues not converged
     c_bands:  3 eigenvalues not converged
     c_bands:  3 eigenvalues not converged
     c_bands:  3 eigenvalues not converged
     c_bands:  3 eigenvalues not converged
     c_bands:  1 eigenvalues not converged
     c_bands:  1 eigenvalues not converged
     c_bands:  2 eigenvalues not converged
     c_bands:  3 eigenvalues not converged
     c_bands:  2 eigenvalues not converged
     c_bands:  2 eigenvalues not converged
     c_bands:  2 eigenvalues not converged
     c_bands:  3 eigenvalues not converged
     c_bands:  2 eigenvalues not converged
     c_bands:  2 eigenvalues not converged
     c_bands:  3 eigenvalues not converged
     c_bands:  2 eigenvalues not converged
     c_bands:  2 eigenvalues not converged
     c_bands:  3 eigenvalues not converged
     c_bands:  2 eigenvalues not converged
     c_bands:  3 eigenvalues not converged
     c_bands:  2 eigenvalues not converged
     c_bands:  1 eigenvalues not converged
     c_bands:  3 eigenvalues not converged
     c_bands:  3 eigenvalues not converged
     c_bands:  3 eigenvalues not converged
     c_bands:  1 eigenvalues not converged
     c_bands:  1 eigenvalues not converged
     c_bands:  3 eigenvalues not converged
     c_bands:  3 eigenvalues not converged
     c_bands:  1 eigenvalues not converged
     c_bands:  1 eigenvalues not converged
     c_bands:  1 eigenvalues not converged
     c_bands:  2 eigenvalues not converged
     c_bands:  2 eigenvalues not converged
     c_bands:  1 eigenvalues not converged
     c_bands:  3 eigenvalues not converged
     c_bands:  2 eigenvalues not converged
     c_bands:  2 eigenvalues not converged
     c_bands:  2 eigenvalues not converged
     c_bands:  1 eigenvalues not converged
     c_bands:  1 eigenvalues not converged
     c_bands:  2 eigenvalues not converged
     ethr =  9.58E-10,  avg # of iterations = 18.3

     total cpu time spent up to now is      552.1 secs

     total energy              =    -360.83304463 Ry
     estimated scf accuracy    <       0.00003479 Ry

     iteration # 69     ecut=    50.00 Ry     beta= 0.30
     Davidson diagonalization with overlap
     c_bands:  1 eigenvalues not converged
     c_bands:  1 eigenvalues not converged
     c_bands:  1 eigenvalues not converged
     c_bands:  1 eigenvalues not converged
     c_bands:  2 eigenvalues not converged
     c_bands:  2 eigenvalues not converged
     c_bands:  1 eigenvalues not converged
     c_bands:  1 eigenvalues not converged
     c_bands:  2 eigenvalues not converged
     c_bands:  1 eigenvalues not converged
     c_bands:  1 eigenvalues not converged
     c_bands:  1 eigenvalues not converged
     c_bands:  1 eigenvalues not converged
     c_bands:  2 eigenvalues not converged
     c_bands:  1 eigenvalues not converged
     c_bands:  2 eigenvalues not converged
     c_bands:  1 eigenvalues not converged
     c_bands:  1 eigenvalues not converged
     c_bands:  1 eigenvalues not converged
     c_bands:  1 eigenvalues not converged
     c_bands:  1 eigenvalues not converged
     ethr =  9.58E-10,  avg # of iterations = 11.5

     total cpu time spent up to now is      562.6 secs

     total energy              =    -360.83304768 Ry
     estimated scf accuracy    <       0.00002804 Ry

     iteration # 70     ecut=    50.00 Ry     beta= 0.30
     Davidson diagonalization with overlap
     c_bands:  1 eigenvalues not converged
     c_bands:  1 eigenvalues not converged
     c_bands:  1 eigenvalues not converged
     c_bands:  1 eigenvalues not converged
     ethr =  9.58E-10,  avg # of iterations =  5.4

     total cpu time spent up to now is      568.6 secs

     total energy              =    -360.83304798 Ry
     estimated scf accuracy    <       0.00001306 Ry

     iteration # 71     ecut=    50.00 Ry     beta= 0.30
     Davidson diagonalization with overlap
     ethr =  9.58E-10,  avg # of iterations =  6.2

     total cpu time spent up to now is      574.5 secs

     total energy              =    -360.83304733 Ry
     estimated scf accuracy    <       0.00000459 Ry

     iteration # 72     ecut=    50.00 Ry     beta= 0.30
     Davidson diagonalization with overlap
     c_bands:  1 eigenvalues not converged
     c_bands:  1 eigenvalues not converged
     c_bands:  1 eigenvalues not converged
     ethr =  9.58E-10,  avg # of iterations =  6.2

     total cpu time spent up to now is      580.5 secs

     total energy              =    -360.83304792 Ry
     estimated scf accuracy    <       0.00000133 Ry

     iteration # 73     ecut=    50.00 Ry     beta= 0.30
     Davidson diagonalization with overlap
     c_bands:  1 eigenvalues not converged
     ethr =  9.58E-10,  avg # of iterations =  7.4

     total cpu time spent up to now is      587.1 secs

     total energy              =    -360.83304815 Ry
     estimated scf accuracy    <       0.00000054 Ry

     iteration # 74     ecut=    50.00 Ry     beta= 0.30
     Davidson diagonalization with overlap
     ethr =  9.58E-10,  avg # of iterations =  1.1

     total cpu time spent up to now is      591.4 secs

     total energy              =    -360.83304807 Ry
     estimated scf accuracy    <       0.00000038 Ry

     iteration # 75     ecut=    50.00 Ry     beta= 0.30
     Davidson diagonalization with overlap
     ethr =  9.58E-10,  avg # of iterations =  3.9

     total cpu time spent up to now is      596.7 secs

     total energy              =    -360.83304811 Ry
     estimated scf accuracy    <       0.00000006 Ry

     iteration # 76     ecut=    50.00 Ry     beta= 0.30
     Davidson diagonalization with overlap
     c_bands:  1 eigenvalues not converged
     ethr =  1.73E-10,  avg # of iterations =  7.8

     total cpu time spent up to now is      603.3 secs

     total energy              =    -360.83304814 Ry
     estimated scf accuracy    <       0.00000011 Ry

     iteration # 77     ecut=    50.00 Ry     beta= 0.30
     Davidson diagonalization with overlap
     ethr =  1.73E-10,  avg # of iterations =  1.1

     total cpu time spent up to now is      607.6 secs

     total energy              =    -360.83304812 Ry
     estimated scf accuracy    <       0.00000008 Ry

     iteration # 78     ecut=    50.00 Ry     beta= 0.30
     Davidson diagonalization with overlap
     ethr =  1.73E-10,  avg # of iterations =  6.8

     total cpu time spent up to now is      613.7 secs

     total energy              =    -360.83304814 Ry
     estimated scf accuracy    <       0.00000001 Ry

     iteration # 79     ecut=    50.00 Ry     beta= 0.30
     Davidson diagonalization with overlap
     ethr =  4.00E-11,  avg # of iterations =  5.6

     total cpu time spent up to now is      619.4 secs

     total energy              =    -360.83304814 Ry
     estimated scf accuracy    <       0.00000004 Ry

     iteration # 80     ecut=    50.00 Ry     beta= 0.30
     Davidson diagonalization with overlap
     ethr =  4.00E-11,  avg # of iterations =  1.1

     total cpu time spent up to now is      623.6 secs

     total energy              =    -360.83304814 Ry
     estimated scf accuracy    <       0.00000004 Ry

     iteration # 81     ecut=    50.00 Ry     beta= 0.30
     Davidson diagonalization with overlap
     ethr =  4.00E-11,  avg # of iterations =  1.6

     total cpu time spent up to now is      628.1 secs

     total energy              =    -360.83304813 Ry
     estimated scf accuracy    <       0.00000003 Ry

     iteration # 82     ecut=    50.00 Ry     beta= 0.30
     Davidson diagonalization with overlap
     c_bands:  1 eigenvalues not converged
     c_bands:  1 eigenvalues not converged
     ethr =  4.00E-11,  avg # of iterations =  8.4

     total cpu time spent up to now is      635.2 secs

     total energy              =    -360.83304814 Ry
     estimated scf accuracy    <       0.00000014 Ry

     iteration # 83     ecut=    50.00 Ry     beta= 0.30
     Davidson diagonalization with overlap
     ethr =  4.00E-11,  avg # of iterations =  1.4

     total cpu time spent up to now is      639.5 secs

     total energy              =    -360.83304814 Ry
     estimated scf accuracy    <       0.00000011 Ry

     iteration # 84     ecut=    50.00 Ry     beta= 0.30
     Davidson diagonalization with overlap
     ethr =  4.00E-11,  avg # of iterations =  1.5

     total cpu time spent up to now is      643.9 secs

     total energy              =    -360.83304814 Ry
     estimated scf accuracy    <       0.00000011 Ry

     iteration # 85     ecut=    50.00 Ry     beta= 0.30
     Davidson diagonalization with overlap
     ethr =  4.00E-11,  avg # of iterations =  1.0

     total cpu time spent up to now is      648.0 secs

     total energy              =    -360.83304815 Ry
     estimated scf accuracy    <       0.00000012 Ry

     iteration # 86     ecut=    50.00 Ry     beta= 0.30
     Davidson diagonalization with overlap
     ethr =  4.00E-11,  avg # of iterations =  1.0

     total cpu time spent up to now is      652.2 secs

     total energy              =    -360.83304813 Ry
     estimated scf accuracy    <       0.00000012 Ry

     iteration # 87     ecut=    50.00 Ry     beta= 0.30
     Davidson diagonalization with overlap
     c_bands:  1 eigenvalues not converged
     ethr =  4.00E-11,  avg # of iterations =  8.1

     total cpu time spent up to now is      659.2 secs

     total energy              =    -360.83304814 Ry
     estimated scf accuracy    <       0.00000011 Ry

     iteration # 88     ecut=    50.00 Ry     beta= 0.30
     Davidson diagonalization with overlap
     ethr =  4.00E-11,  avg # of iterations =  7.4

     total cpu time spent up to now is      665.4 secs

     total energy              =    -360.83304815 Ry
     estimated scf accuracy    <       0.00000010 Ry

     iteration # 89     ecut=    50.00 Ry     beta= 0.30
     Davidson diagonalization with overlap
     ethr =  4.00E-11,  avg # of iterations =  3.7

     total cpu time spent up to now is      670.4 secs

     total energy              =    -360.83304815 Ry
     estimated scf accuracy    <       0.00000011 Ry

     iteration # 90     ecut=    50.00 Ry     beta= 0.30
     Davidson diagonalization with overlap
     ethr =  4.00E-11,  avg # of iterations =  1.0

     total cpu time spent up to now is      674.6 secs

     total energy              =    -360.83304813 Ry
     estimated scf accuracy    <       0.00000010 Ry

     iteration # 91     ecut=    50.00 Ry     beta= 0.30
     Davidson diagonalization with overlap
     c_bands:  1 eigenvalues not converged
     c_bands:  1 eigenvalues not converged
     c_bands:  1 eigenvalues not converged
     c_bands:  1 eigenvalues not converged
     c_bands:  3 eigenvalues not converged
     c_bands:  2 eigenvalues not converged
     c_bands:  2 eigenvalues not converged
     c_bands:  1 eigenvalues not converged
     c_bands:  1 eigenvalues not converged
     c_bands:  1 eigenvalues not converged
     c_bands:  1 eigenvalues not converged
     c_bands:  1 eigenvalues not converged
     c_bands:  1 eigenvalues not converged
     c_bands:  1 eigenvalues not converged
     c_bands:  1 eigenvalues not converged
     c_bands:  1 eigenvalues not converged
     c_bands:  2 eigenvalues not converged
     c_bands:  2 eigenvalues not converged
     c_bands:  2 eigenvalues not converged
     c_bands:  3 eigenvalues not converged
     c_bands:  2 eigenvalues not converged
     c_bands:  2 eigenvalues not converged
     c_bands:  3 eigenvalues not converged
     c_bands:  1 eigenvalues not converged
     c_bands:  1 eigenvalues not converged
     c_bands:  1 eigenvalues not converged
     ethr =  4.00E-11,  avg # of iterations = 16.9

     total cpu time spent up to now is      690.4 secs

     total energy              =    -360.83304811 Ry
     estimated scf accuracy    <       0.00000331 Ry

     iteration # 92     ecut=    50.00 Ry     beta= 0.30
     Davidson diagonalization with overlap
     c_bands:  1 eigenvalues not converged
     c_bands:  1 eigenvalues not converged
     c_bands:  1 eigenvalues not converged
     c_bands:  1 eigenvalues not converged
     c_bands:  1 eigenvalues not converged
     c_bands:  2 eigenvalues not converged
     c_bands:  2 eigenvalues not converged
     c_bands:  2 eigenvalues not converged
     c_bands:  1 eigenvalues not converged
     c_bands:  2 eigenvalues not converged
     c_bands:  1 eigenvalues not converged
     c_bands:  2 eigenvalues not converged
     c_bands:  2 eigenvalues not converged
     c_bands:  2 eigenvalues not converged
     c_bands:  2 eigenvalues not converged
     c_bands:  1 eigenvalues not converged
     c_bands:  1 eigenvalues not converged
     ethr =  4.00E-11,  avg # of iterations = 14.5

     total cpu time spent up to now is      703.2 secs

     total energy              =    -360.83304805 Ry
     estimated scf accuracy    <       0.00000109 Ry

     iteration # 93     ecut=    50.00 Ry     beta= 0.30
     Davidson diagonalization with overlap
     c_bands:  1 eigenvalues not converged
     c_bands:  1 eigenvalues not converged
     c_bands:  1 eigenvalues not converged
     c_bands:  1 eigenvalues not converged
     c_bands:  2 eigenvalues not converged
     c_bands:  2 eigenvalues not converged
     c_bands:  1 eigenvalues not converged
     c_bands:  1 eigenvalues not converged
     c_bands:  1 eigenvalues not converged
     c_bands:  2 eigenvalues not converged
     c_bands:  1 eigenvalues not converged
     c_bands:  1 eigenvalues not converged
     c_bands:  1 eigenvalues not converged
     c_bands:  1 eigenvalues not converged
     c_bands:  1 eigenvalues not converged
     c_bands:  1 eigenvalues not converged
     c_bands:  1 eigenvalues not converged
     ethr =  4.00E-11,  avg # of iterations = 10.6

     total cpu time spent up to now is      712.1 secs

     total energy              =    -360.83304812 Ry
     estimated scf accuracy    <       0.00000017 Ry

     iteration # 94     ecut=    50.00 Ry     beta= 0.30
     Davidson diagonalization with overlap
     c_bands:  1 eigenvalues not converged
     ethr =  4.00E-11,  avg # of iterations =  2.3

     total cpu time spent up to now is      716.7 secs

     total energy              =    -360.83304814 Ry
     estimated scf accuracy    <       0.00000006 Ry

     iteration # 95     ecut=    50.00 Ry     beta= 0.30
     Davidson diagonalization with overlap
     ethr =  4.00E-11,  avg # of iterations =  2.0

     total cpu time spent up to now is      721.4 secs

     total energy              =    -360.83304813 Ry
     estimated scf accuracy    <       0.00000004 Ry

     iteration # 96     ecut=    50.00 Ry     beta= 0.30
     Davidson diagonalization with overlap
     c_bands:  1 eigenvalues not converged
     c_bands:  1 eigenvalues not converged
     c_bands:  1 eigenvalues not converged
     c_bands:  1 eigenvalues not converged
     ethr =  4.00E-11,  avg # of iterations =  8.3

     total cpu time spent up to now is      728.7 secs

     total energy              =    -360.83304814 Ry
     estimated scf accuracy    <       0.00000001 Ry

     iteration # 97     ecut=    50.00 Ry     beta= 0.30
     Davidson diagonalization with overlap
     ethr =  3.92E-11,  avg # of iterations =  1.3

     total cpu time spent up to now is      733.0 secs

     End of self-consistent calculation

     Number of k-points >= 100: set verbosity='high' to print the bands.

     highest occupied level (ev):     9.8886

!    total energy              =    -360.83304813 Ry
     estimated scf accuracy    <          9.4E-09 Ry

     The total energy is the sum of the following terms:
     one-electron contribution =    -210.42474002 Ry
     hartree contribution      =     145.40018617 Ry
     xc contribution           =    -109.76504124 Ry
     ewald contribution        =    -186.04345304 Ry

     convergence has been achieved in  97 iterations

     Forces acting on atoms (cartesian axes, Ry/au):

     atom    1 type  1   force =     0.14098454    0.06871127   -0.55500022
     atom    2 type  1   force =    -0.61006284    0.29509728    0.47340962
     atom    3 type  2   force =     0.48237028   -0.37571697   -0.01919878
     atom    4 type  2   force =    -0.01329197    0.01190842    0.10078937
     The non-local contrib.  to forces
     atom    1 type  1   force =     0.13616629   -0.16468400    0.74158966
     atom    2 type  1   force =    -0.51329976    0.32145077   -0.07390853
     atom    3 type  2   force =    -0.07537841   -0.13374129   -0.11081720
     atom    4 type  2   force =    -0.05021847    0.05003213    0.52521859
     The ionic contribution  to forces
     atom    1 type  1   force =     4.34749032    0.46592740  -29.76047960
     atom    2 type  1   force =    -8.43038085    1.55758736   28.47313190
     atom    3 type  2   force =     4.14573501   -2.06898457    7.96150127
     atom    4 type  2   force =    -0.06284449    0.04546981   -6.67415357
     The local contribution  to forces
     atom    1 type  1   force =    -4.31695964   -0.23958378   28.44157796
     atom    2 type  1   force =     8.24709758   -1.54454045  -27.87753865
     atom    3 type  2   force =    -3.58621392    1.82420507   -7.87029181
     atom    4 type  2   force =     0.09914351   -0.08298848    6.25479296
     The core correction contribution to forces
     atom    1 type  1   force =    -0.02572079    0.00706351    0.02202123
     atom    2 type  1   force =     0.08651099   -0.03939821   -0.04809368
     atom    3 type  2   force =    -0.00176348    0.00280271    0.00047022
     atom    4 type  2   force =     0.00062900   -0.00061100   -0.00508171
     The Hubbard contrib.    to forces
     atom    1 type  1   force =     0.00000000    0.00000000    0.00000000
     atom    2 type  1   force =     0.00000000    0.00000000    0.00000000
     atom    3 type  2   force =     0.00000000    0.00000000    0.00000000
     atom    4 type  2   force =     0.00000000    0.00000000    0.00000000
     The SCF correction term to forces
     atom    1 type  1   force =     0.00001091   -0.00001561    0.00030074
     atom    2 type  1   force =     0.00001175   -0.00000595   -0.00017121
     atom    3 type  2   force =    -0.00000638   -0.00000264   -0.00005105
     atom    4 type  2   force =     0.00000103    0.00000220    0.00002330

     Total force =     1.183507     Total SCF correction =     0.000351

     Writing all to output data dir ./ZnO_ANN.save/

     init_run     :      3.33s CPU      3.42s WALL (       1 calls)
     electrons    :    716.14s CPU    729.16s WALL (       1 calls)
     forces       :      0.94s CPU      0.94s WALL (       1 calls)

     Called by init_run:
     wfcinit      :      2.48s CPU      2.53s WALL (       1 calls)
     potinit      :      0.24s CPU      0.24s WALL (       1 calls)
     hinit0       :      0.54s CPU      0.55s WALL (       1 calls)

     Called by electrons:
     c_bands      :    642.07s CPU    653.46s WALL (      97 calls)
     sum_band     :     67.11s CPU     68.57s WALL (      97 calls)
     v_of_rho     :      1.50s CPU      1.60s WALL (      98 calls)
     newd         :      5.09s CPU      5.13s WALL (      98 calls)
     mix_rho      :      0.27s CPU      0.29s WALL (      97 calls)

     Called by c_bands:
     init_us_2    :      4.14s CPU      4.20s WALL (   21952 calls)
     init_us_2:cp :      4.07s CPU      4.14s WALL (   21952 calls)
     cegterg      :    627.71s CPU    638.87s WALL (   10864 calls)

     Called by *egterg:
     cdiaghg      :     85.60s CPU     86.44s WALL (   82668 calls)
     h_psi        :    356.48s CPU    364.42s WALL (   82780 calls)
     s_psi        :     36.26s CPU     36.69s WALL (   82780 calls)
     g_psi        :      1.19s CPU      1.21s WALL (   71804 calls)

     Called by h_psi:
     h_psi:calbec :     46.45s CPU     47.84s WALL (   82780 calls)
     vloc_psi     :    272.40s CPU    278.59s WALL (   82780 calls)
     add_vuspsi   :     36.39s CPU     36.77s WALL (   82780 calls)

     General routines
     calbec       :     60.77s CPU     62.60s WALL (   94092 calls)
     fft          :      1.83s CPU      1.97s WALL (    1283 calls)
     ffts         :      0.15s CPU      0.17s WALL (     195 calls)
     fftw         :    283.69s CPU    290.15s WALL ( 1453156 calls)
     interpolate  :      0.20s CPU      0.21s WALL (      98 calls)

     Parallel routines

     PWSCF        :  12m 1.13s CPU  12m14.36s WALL


   This run was terminated on:  13:14:14  23Jun2025            

=------------------------------------------------------------------------------=
   JOB DONE.
=------------------------------------------------------------------------------=
Note: The following floating-point exceptions are signalling: IEEE_INVALID_FLAG
