
     Program PWSCF v.7.2 starts on 23Jun2025 at 14: 6:21 

     This program is part of the open-source Quantum ESPRESSO suite
     for quantum simulation of materials; please cite
         "P. Giannozzi et al., J. Phys.:Condens. Matter 21 395502 (2009);
         "P. Giannozzi et al., J. Phys.:Condens. Matter 29 465901 (2017);
         "P. Giannozzi et al., J. Chem. Phys. 152 154105 (2020);
          URL http://www.quantum-espresso.org", 
     in publications or presentations arising from this work. More details at
     http://www.quantum-espresso.org/quote

     Parallel version (MPI), running on     8 processors

     MPI processes distributed on     1 nodes
     91088 MiB available memory on the printing compute node when the environment starts

     Reading input from /home/jvc/QEspresso7.2/ZnO_DataBase/scfs_rnd025.in/scf-6.06-1.71-3.in

     Current dimensions of program PWSCF are:
     Max number of different atomic species (ntypx) = 10
     Max number of k-points (npk) =  40000
     Max angular momentum in pseudopotentials (lmaxx) =  4
     file Zn.upf: wavefunction(s)  3D renormalized

     R & G space division:  proc/nbgrp/npool/nimage =       8
     Subspace diagonalization in iterative solution of the eigenvalue problem:
     a serial algorithm will be used


     Parallelization info
     --------------------
     sticks:   dense  smooth     PW     G-vecs:    dense   smooth      PW
     Min         126      63     18                 5554     1956     324
     Max         127      65     19                 5557     1957     331
     Sum        1015     511    151                44447    15653    2635

     Using Slab Decomposition



     bravais-lattice index     =            4
     lattice parameter (alat)  =       6.0552  a.u.
     unit-cell volume          =     329.0270 (a.u.)^3
     number of atoms/cell      =            4
     number of atomic types    =            2
     number of electrons       =        36.00
     number of Kohn-Sham states=           18
     kinetic-energy cutoff     =      50.0000  Ry
     charge density cutoff     =     400.0000  Ry
     scf convergence threshold =      1.0E-08
     mixing beta               =       0.3000
     number of iterations used =            8  plain     mixing
     Exchange-correlation= PBE
                           (   1   4   3   4   0   0   0)

     celldm(1)=   6.055245  celldm(2)=   0.000000  celldm(3)=   1.711220
     celldm(4)=   0.000000  celldm(5)=   0.000000  celldm(6)=   0.000000

     crystal axes: (cart. coord. in units of alat)
               a(1) = (   1.000000   0.000000   0.000000 )  
               a(2) = (  -0.500000   0.866025   0.000000 )  
               a(3) = (   0.000000   0.000000   1.711220 )  

     reciprocal axes: (cart. coord. in units 2 pi/alat)
               b(1) = (  1.000000  0.577350 -0.000000 )  
               b(2) = (  0.000000  1.154701  0.000000 )  
               b(3) = (  0.000000 -0.000000  0.584378 )  


     PseudoPot. # 1 for Zn read from file:
     ./pseudos/Zn.upf
     MD5 check sum: 7f56cabf9682ed8c977c2f7d0c5985c5
     Pseudo is Ultrasoft + core correction, Zval = 12.0
     Generated using &quot;atomic&quot; code by A. Dal Corso  v.6.2.2
     Using radial grid of 1201 points,  6 beta functions with: 
                l(1) =   0
                l(2) =   0
                l(3) =   1
                l(4) =   1
                l(5) =   2
                l(6) =   2
     Q(r) pseudized with 0 coefficients 


     PseudoPot. # 2 for O  read from file:
     ./pseudos/O.upf
     MD5 check sum: 91400c9766925bcf19f520983a725ff0
     Pseudo is Ultrasoft + core correction, Zval =  6.0
     Generated using &quot;atomic&quot; code by A. Dal Corso  v.6.3MaX
     Using radial grid of 1095 points,  4 beta functions with: 
                l(1) =   0
                l(2) =   0
                l(3) =   1
                l(4) =   1
     Q(r) pseudized with 0 coefficients 


     atomic species   valence    mass     pseudopotential
        Zn            12.00    63.38000     Zn( 1.00)
        O              6.00    15.99900     O ( 1.00)

     No symmetry found



   Cartesian axes

     site n.     atom                  positions (alat units)
         1           Zn  tau(   1) = (   0.2860589   0.2906471   1.1059922  )
         2           Zn  tau(   2) = (  -0.0578361   0.7215828  -0.2571474  )
         3           O   tau(   3) = (   0.5328248   0.2260336   1.4647172  )
         4           O   tau(   4) = (   0.1269094   0.7127834   0.9912574  )

     number of k points=   112

     Number of k-points >= 100: set verbosity='high' to print them.

     Dense  grid:    44447 G-vectors     FFT dimensions: (  40,  40,  72)

     Smooth grid:    15653 G-vectors     FFT dimensions: (  27,  27,  48)

     Estimated max dynamical RAM per process >      30.61 MB

     Estimated total dynamical RAM >     244.89 MB

     Check: negative core charge=   -0.000002

     Initial potential from superposition of free atoms

     starting charge      35.9925, renormalised to      36.0000
     Starting wfcs are   26 randomized atomic wfcs

     total cpu time spent up to now is        4.0 secs

     Self-consistent Calculation

     iteration #  1     ecut=    50.00 Ry     beta= 0.30
     Davidson diagonalization with overlap
     ethr =  1.00E-02,  avg # of iterations =  3.0

     total cpu time spent up to now is       10.0 secs

     total energy              =    -359.26542847 Ry
     estimated scf accuracy    <       1.56973240 Ry

     iteration #  2     ecut=    50.00 Ry     beta= 0.30
     Davidson diagonalization with overlap
     ethr =  4.36E-03,  avg # of iterations =  2.0

     total cpu time spent up to now is       15.6 secs

     total energy              =    -359.21093823 Ry
     estimated scf accuracy    <       0.37084700 Ry

     iteration #  3     ecut=    50.00 Ry     beta= 0.30
     Davidson diagonalization with overlap
     ethr =  1.03E-03,  avg # of iterations =  7.0

     total cpu time spent up to now is       27.0 secs

     total energy              =    -359.53633457 Ry
     estimated scf accuracy    <       0.61503568 Ry

     iteration #  4     ecut=    50.00 Ry     beta= 0.30
     Davidson diagonalization with overlap
     ethr =  1.03E-03,  avg # of iterations =  1.8

     total cpu time spent up to now is       32.0 secs

     total energy              =    -359.38591947 Ry
     estimated scf accuracy    <       0.24717449 Ry

     iteration #  5     ecut=    50.00 Ry     beta= 0.30
     Davidson diagonalization with overlap
     ethr =  6.87E-04,  avg # of iterations =  6.6

     total cpu time spent up to now is       43.6 secs

     total energy              =    -359.62785109 Ry
     estimated scf accuracy    <       0.30080213 Ry

     iteration #  6     ecut=    50.00 Ry     beta= 0.30
     Davidson diagonalization with overlap
     ethr =  6.87E-04,  avg # of iterations =  1.0

     total cpu time spent up to now is       48.3 secs

     total energy              =    -359.52927691 Ry
     estimated scf accuracy    <       0.25397563 Ry

     iteration #  7     ecut=    50.00 Ry     beta= 0.30
     Davidson diagonalization with overlap
     ethr =  6.87E-04,  avg # of iterations =  1.5

     total cpu time spent up to now is       53.2 secs

     total energy              =    -359.53153976 Ry
     estimated scf accuracy    <       0.07126468 Ry

     iteration #  8     ecut=    50.00 Ry     beta= 0.30
     Davidson diagonalization with overlap
     ethr =  1.98E-04,  avg # of iterations =  4.5

     total cpu time spent up to now is       60.5 secs

     total energy              =    -359.55563373 Ry
     estimated scf accuracy    <       0.00469032 Ry

     iteration #  9     ecut=    50.00 Ry     beta= 0.30
     Davidson diagonalization with overlap
     ethr =  1.30E-05,  avg # of iterations =  5.3

     total cpu time spent up to now is       68.9 secs

     total energy              =    -359.55880770 Ry
     estimated scf accuracy    <       0.00143715 Ry

     iteration # 10     ecut=    50.00 Ry     beta= 0.30
     Davidson diagonalization with overlap
     ethr =  3.99E-06,  avg # of iterations =  2.0

     total cpu time spent up to now is       74.2 secs

     total energy              =    -359.55850205 Ry
     estimated scf accuracy    <       0.00282642 Ry

     iteration # 11     ecut=    50.00 Ry     beta= 0.30
     Davidson diagonalization with overlap
     ethr =  3.99E-06,  avg # of iterations =  1.2

     total cpu time spent up to now is       78.9 secs

     total energy              =    -359.55796051 Ry
     estimated scf accuracy    <       0.00222771 Ry

     iteration # 12     ecut=    50.00 Ry     beta= 0.30
     Davidson diagonalization with overlap
     ethr =  3.99E-06,  avg # of iterations =  1.5

     total cpu time spent up to now is       83.7 secs

     total energy              =    -359.55807854 Ry
     estimated scf accuracy    <       0.00109618 Ry

     iteration # 13     ecut=    50.00 Ry     beta= 0.30
     Davidson diagonalization with overlap
     ethr =  3.04E-06,  avg # of iterations =  1.2

     total cpu time spent up to now is       88.3 secs

     total energy              =    -359.55831953 Ry
     estimated scf accuracy    <       0.00105999 Ry

     iteration # 14     ecut=    50.00 Ry     beta= 0.30
     Davidson diagonalization with overlap
     ethr =  2.94E-06,  avg # of iterations =  1.0

     total cpu time spent up to now is       92.8 secs

     total energy              =    -359.55810003 Ry
     estimated scf accuracy    <       0.00140597 Ry

     iteration # 15     ecut=    50.00 Ry     beta= 0.30
     Davidson diagonalization with overlap
     ethr =  2.94E-06,  avg # of iterations =  1.1

     total cpu time spent up to now is       97.4 secs

     total energy              =    -359.55807524 Ry
     estimated scf accuracy    <       0.00090881 Ry

     iteration # 16     ecut=    50.00 Ry     beta= 0.30
     Davidson diagonalization with overlap
     ethr =  2.52E-06,  avg # of iterations =  1.0

     total cpu time spent up to now is      101.9 secs

     total energy              =    -359.55756476 Ry
     estimated scf accuracy    <       0.00070855 Ry

     iteration # 17     ecut=    50.00 Ry     beta= 0.30
     Davidson diagonalization with overlap
     ethr =  1.97E-06,  avg # of iterations =  7.1

     total cpu time spent up to now is      112.6 secs

     total energy              =    -359.55778067 Ry
     estimated scf accuracy    <       0.00081132 Ry

     iteration # 18     ecut=    50.00 Ry     beta= 0.30
     Davidson diagonalization with overlap
     ethr =  1.97E-06,  avg # of iterations =  4.2

     total cpu time spent up to now is      118.9 secs

     total energy              =    -359.55790076 Ry
     estimated scf accuracy    <       0.00002989 Ry

     iteration # 19     ecut=    50.00 Ry     beta= 0.30
     Davidson diagonalization with overlap
     ethr =  8.30E-08,  avg # of iterations =  8.7

     total cpu time spent up to now is      134.0 secs

     total energy              =    -359.55797626 Ry
     estimated scf accuracy    <       0.00016113 Ry

     iteration # 20     ecut=    50.00 Ry     beta= 0.30
     Davidson diagonalization with overlap
     ethr =  8.30E-08,  avg # of iterations =  2.2

     total cpu time spent up to now is      139.5 secs

     total energy              =    -359.55795066 Ry
     estimated scf accuracy    <       0.00009037 Ry

     iteration # 21     ecut=    50.00 Ry     beta= 0.30
     Davidson diagonalization with overlap
     ethr =  8.30E-08,  avg # of iterations =  5.9

     total cpu time spent up to now is      148.7 secs

     total energy              =    -359.55796888 Ry
     estimated scf accuracy    <       0.00000513 Ry

     iteration # 22     ecut=    50.00 Ry     beta= 0.30
     Davidson diagonalization with overlap
     ethr =  1.43E-08,  avg # of iterations =  2.7

     total cpu time spent up to now is      154.5 secs

     total energy              =    -359.55796994 Ry
     estimated scf accuracy    <       0.00000830 Ry

     iteration # 23     ecut=    50.00 Ry     beta= 0.30
     Davidson diagonalization with overlap
     ethr =  1.43E-08,  avg # of iterations =  1.7

     total cpu time spent up to now is      159.4 secs

     total energy              =    -359.55796686 Ry
     estimated scf accuracy    <       0.00000993 Ry

     iteration # 24     ecut=    50.00 Ry     beta= 0.30
     Davidson diagonalization with overlap
     ethr =  1.43E-08,  avg # of iterations =  2.2

     total cpu time spent up to now is      164.9 secs

     total energy              =    -359.55796467 Ry
     estimated scf accuracy    <       0.00000408 Ry

     iteration # 25     ecut=    50.00 Ry     beta= 0.30
     Davidson diagonalization with overlap
     ethr =  1.13E-08,  avg # of iterations =  8.5

     total cpu time spent up to now is      179.7 secs

     total energy              =    -359.55796627 Ry
     estimated scf accuracy    <       0.00003417 Ry

     iteration # 26     ecut=    50.00 Ry     beta= 0.30
     Davidson diagonalization with overlap
     ethr =  1.13E-08,  avg # of iterations =  5.5

     total cpu time spent up to now is      189.1 secs

     total energy              =    -359.55796530 Ry
     estimated scf accuracy    <       0.00000699 Ry

     iteration # 27     ecut=    50.00 Ry     beta= 0.30
     Davidson diagonalization with overlap
     ethr =  1.13E-08,  avg # of iterations =  5.2

     total cpu time spent up to now is      197.2 secs

     total energy              =    -359.55796697 Ry
     estimated scf accuracy    <       0.00000003 Ry

     iteration # 28     ecut=    50.00 Ry     beta= 0.30
     Davidson diagonalization with overlap
     c_bands:  1 eigenvalues not converged
     c_bands:  1 eigenvalues not converged
     c_bands:  1 eigenvalues not converged
     ethr =  8.42E-11,  avg # of iterations = 11.8

     total cpu time spent up to now is      214.5 secs

     total energy              =    -359.55796701 Ry
     estimated scf accuracy    <       0.00000032 Ry

     iteration # 29     ecut=    50.00 Ry     beta= 0.30
     Davidson diagonalization with overlap
     ethr =  8.42E-11,  avg # of iterations =  9.4

     total cpu time spent up to now is      230.6 secs

     total energy              =    -359.55796709 Ry
     estimated scf accuracy    <       0.00000010 Ry

     iteration # 30     ecut=    50.00 Ry     beta= 0.30
     Davidson diagonalization with overlap
     ethr =  8.42E-11,  avg # of iterations =  7.9

     total cpu time spent up to now is      243.8 secs

     total energy              =    -359.55796712 Ry
     estimated scf accuracy    <       0.00000007 Ry

     iteration # 31     ecut=    50.00 Ry     beta= 0.30
     Davidson diagonalization with overlap
     ethr =  8.42E-11,  avg # of iterations =  4.6

     total cpu time spent up to now is      250.6 secs

     End of self-consistent calculation

     Number of k-points >= 100: set verbosity='high' to print the bands.

     highest occupied level (ev):     8.5900

!    total energy              =    -359.55796712 Ry
     estimated scf accuracy    <          8.3E-09 Ry

     The total energy is the sum of the following terms:
     one-electron contribution =    -363.49912262 Ry
     hartree contribution      =     220.49723647 Ry
     xc contribution           =    -111.13813556 Ry
     ewald contribution        =    -105.41794541 Ry

     convergence has been achieved in  31 iterations

     Forces acting on atoms (cartesian axes, Ry/au):

     atom    1 type  1   force =    -0.43614562   -0.11224394   -1.04664892
     atom    2 type  1   force =    -0.75807612   -2.66775144    0.70000832
     atom    3 type  2   force =     1.19131069    2.43285475    1.11465903
     atom    4 type  2   force =     0.00291105    0.34714064   -0.76801843
     The non-local contrib.  to forces
     atom    1 type  1   force =    -0.32441953   -0.74476645    0.02500800
     atom    2 type  1   force =    -0.49408566   -0.73859394    0.09421085
     atom    3 type  2   force =    -0.44604110   -0.16765638   -0.10984971
     atom    4 type  2   force =    -0.21429495   -0.82379074    0.40956415
     The ionic contribution  to forces
     atom    1 type  1   force =    -6.53116382   -0.32452037  -37.20527624
     atom    2 type  1   force =    -7.00048049  -20.97230221   40.85755786
     atom    3 type  2   force =    11.04479350   16.43570150   26.19065916
     atom    4 type  2   force =     2.48685081    4.86112107  -29.84294078
     The local contribution  to forces
     atom    1 type  1   force =     6.35688621    0.89140618   36.02246371
     atom    2 type  1   force =     6.65753686   18.79688288  -40.16379301
     atom    3 type  2   force =    -9.40631720  -13.82736147  -24.96107925
     atom    4 type  2   force =    -2.27115036   -3.69602716   28.66333890
     The core correction contribution to forces
     atom    1 type  1   force =     0.06262066    0.06566614    0.11119680
     atom    2 type  1   force =     0.07901582    0.24642337   -0.08812030
     atom    3 type  2   force =    -0.00114766   -0.00787780   -0.00512183
     atom    4 type  2   force =     0.00148535    0.00581857    0.00206375
     The Hubbard contrib.    to forces
     atom    1 type  1   force =     0.00000000    0.00000000    0.00000000
     atom    2 type  1   force =     0.00000000    0.00000000    0.00000000
     atom    3 type  2   force =     0.00000000    0.00000000    0.00000000
     atom    4 type  2   force =     0.00000000    0.00000000    0.00000000
     The SCF correction term to forces
     atom    1 type  1   force =    -0.00008849   -0.00006080   -0.00002268
     atom    2 type  1   force =    -0.00008198   -0.00019290    0.00017143
     atom    3 type  2   force =     0.00000381    0.00001754    0.00006916
     atom    4 type  2   force =     0.00000087   -0.00001247   -0.00002595

     Total force =     4.332519     Total SCF correction =     0.000302

     Writing all to output data dir ./ZnO_ANN.save/

     init_run     :      3.49s CPU      3.57s WALL (       1 calls)
     electrons    :    242.45s CPU    246.62s WALL (       1 calls)
     forces       :      1.03s CPU      1.04s WALL (       1 calls)

     Called by init_run:
     wfcinit      :      2.57s CPU      2.62s WALL (       1 calls)
     potinit      :      0.25s CPU      0.26s WALL (       1 calls)
     hinit0       :      0.59s CPU      0.60s WALL (       1 calls)

     Called by electrons:
     c_bands      :    217.77s CPU    221.40s WALL (      31 calls)
     sum_band     :     22.33s CPU     22.79s WALL (      31 calls)
     v_of_rho     :      0.48s CPU      0.53s WALL (      32 calls)
     newd         :      1.80s CPU      1.82s WALL (      32 calls)
     mix_rho      :      0.08s CPU      0.09s WALL (      31 calls)

     Called by c_bands:
     init_us_2    :      1.50s CPU      1.52s WALL (    7168 calls)
     init_us_2:cp :      1.48s CPU      1.50s WALL (    7168 calls)
     cegterg      :    212.67s CPU    216.23s WALL (    3472 calls)

     Called by *egterg:
     cdiaghg      :     19.88s CPU     20.00s WALL (   17972 calls)
     h_psi        :    125.64s CPU    128.35s WALL (   18084 calls)
     s_psi        :     13.54s CPU     13.63s WALL (   18084 calls)
     g_psi        :      0.43s CPU      0.43s WALL (   14500 calls)

     Called by h_psi:
     h_psi:calbec :     16.88s CPU     17.41s WALL (   18084 calls)
     vloc_psi     :     94.85s CPU     96.93s WALL (   18084 calls)
     add_vuspsi   :     13.57s CPU     13.67s WALL (   18084 calls)

     General routines
     calbec       :     22.33s CPU     23.00s WALL (   22004 calls)
     fft          :      0.69s CPU      0.75s WALL (     425 calls)
     ffts         :      0.12s CPU      0.12s WALL (      63 calls)
     fftw         :     97.79s CPU     99.93s WALL (  490178 calls)
     interpolate  :      0.14s CPU      0.14s WALL (      32 calls)

     Parallel routines

     PWSCF        :   4m 7.69s CPU   4m12.09s WALL


   This run was terminated on:  14:10:33  23Jun2025            

=------------------------------------------------------------------------------=
   JOB DONE.
=------------------------------------------------------------------------------=
Note: The following floating-point exceptions are signalling: IEEE_INVALID_FLAG
