
     Program PWSCF v.7.2 starts on 23Jun2025 at 18:33:53 

     This program is part of the open-source Quantum ESPRESSO suite
     for quantum simulation of materials; please cite
         "P. Giannozzi et al., J. Phys.:Condens. Matter 21 395502 (2009);
         "P. Giannozzi et al., J. Phys.:Condens. Matter 29 465901 (2017);
         "P. Giannozzi et al., J. Chem. Phys. 152 154105 (2020);
          URL http://www.quantum-espresso.org", 
     in publications or presentations arising from this work. More details at
     http://www.quantum-espresso.org/quote

     Parallel version (MPI), running on     8 processors

     MPI processes distributed on     1 nodes
     90775 MiB available memory on the printing compute node when the environment starts

     Reading input from /home/jvc/QEspresso7.2/ZnO_DataBase/scfs_rnd025.in/scf-6.80-1.61-4.in

     Current dimensions of program PWSCF are:
     Max number of different atomic species (ntypx) = 10
     Max number of k-points (npk) =  40000
     Max angular momentum in pseudopotentials (lmaxx) =  4
     file Zn.upf: wavefunction(s)  3D renormalized

     R & G space division:  proc/nbgrp/npool/nimage =       8
     Subspace diagonalization in iterative solution of the eigenvalue problem:
     a serial algorithm will be used


     Parallelization info
     --------------------
     sticks:   dense  smooth     PW     G-vecs:    dense   smooth      PW
     Min         160      80     24                 7420     2616     431
     Max         162      82     25                 7421     2619     433
     Sum        1285     649    199                59361    20941    3453

     Using Slab Decomposition



     bravais-lattice index     =            4
     lattice parameter (alat)  =       6.7967  a.u.
     unit-cell volume          =     438.9606 (a.u.)^3
     number of atoms/cell      =            4
     number of atomic types    =            2
     number of electrons       =        36.00
     number of Kohn-Sham states=           18
     kinetic-energy cutoff     =      50.0000  Ry
     charge density cutoff     =     400.0000  Ry
     scf convergence threshold =      1.0E-08
     mixing beta               =       0.3000
     number of iterations used =            8  plain     mixing
     Exchange-correlation= PBE
                           (   1   4   3   4   0   0   0)

     celldm(1)=   6.796704  celldm(2)=   0.000000  celldm(3)=   1.614358
     celldm(4)=   0.000000  celldm(5)=   0.000000  celldm(6)=   0.000000

     crystal axes: (cart. coord. in units of alat)
               a(1) = (   1.000000   0.000000   0.000000 )  
               a(2) = (  -0.500000   0.866025   0.000000 )  
               a(3) = (   0.000000   0.000000   1.614358 )  

     reciprocal axes: (cart. coord. in units 2 pi/alat)
               b(1) = (  1.000000  0.577350 -0.000000 )  
               b(2) = (  0.000000  1.154701  0.000000 )  
               b(3) = (  0.000000 -0.000000  0.619441 )  


     PseudoPot. # 1 for Zn read from file:
     ./pseudos/Zn.upf
     MD5 check sum: 7f56cabf9682ed8c977c2f7d0c5985c5
     Pseudo is Ultrasoft + core correction, Zval = 12.0
     Generated using &quot;atomic&quot; code by A. Dal Corso  v.6.2.2
     Using radial grid of 1201 points,  6 beta functions with: 
                l(1) =   0
                l(2) =   0
                l(3) =   1
                l(4) =   1
                l(5) =   2
                l(6) =   2
     Q(r) pseudized with 0 coefficients 


     PseudoPot. # 2 for O  read from file:
     ./pseudos/O.upf
     MD5 check sum: 91400c9766925bcf19f520983a725ff0
     Pseudo is Ultrasoft + core correction, Zval =  6.0
     Generated using &quot;atomic&quot; code by A. Dal Corso  v.6.3MaX
     Using radial grid of 1095 points,  4 beta functions with: 
                l(1) =   0
                l(2) =   0
                l(3) =   1
                l(4) =   1
     Q(r) pseudized with 0 coefficients 


     atomic species   valence    mass     pseudopotential
        Zn            12.00    63.38000     Zn( 1.00)
        O              6.00    15.99900     O ( 1.00)

     No symmetry found



   Cartesian axes

     site n.     atom                  positions (alat units)
         1           Zn  tau(   1) = (   0.7060895   0.1563767   0.4201103  )
         2           Zn  tau(   2) = (  -0.2487024   0.7706101   0.2440078  )
         3           O   tau(   3) = (   0.6814961   0.2647233   1.1765456  )
         4           O   tau(   4) = (  -0.0920442   0.6908980   0.9370014  )

     number of k points=   112

     Number of k-points >= 100: set verbosity='high' to print them.

     Dense  grid:    59361 G-vectors     FFT dimensions: (  45,  45,  72)

     Smooth grid:    20941 G-vectors     FFT dimensions: (  32,  32,  50)

     Estimated max dynamical RAM per process >      39.72 MB

     Estimated total dynamical RAM >     317.77 MB

     Check: negative core charge=   -0.000003

     Initial potential from superposition of free atoms

     starting charge      35.9925, renormalised to      36.0000
     Starting wfcs are   26 randomized atomic wfcs

     total cpu time spent up to now is        4.5 secs

     Self-consistent Calculation

     iteration #  1     ecut=    50.00 Ry     beta= 0.30
     Davidson diagonalization with overlap
     ethr =  1.00E-02,  avg # of iterations =  1.6

     total cpu time spent up to now is       10.3 secs

     total energy              =    -360.58627787 Ry
     estimated scf accuracy    <       0.71985396 Ry

     iteration #  2     ecut=    50.00 Ry     beta= 0.30
     Davidson diagonalization with overlap
     ethr =  2.00E-03,  avg # of iterations =  7.0

     total cpu time spent up to now is       19.3 secs

     total energy              =    -360.83799019 Ry
     estimated scf accuracy    <       0.43745838 Ry

     iteration #  3     ecut=    50.00 Ry     beta= 0.30
     Davidson diagonalization with overlap
     ethr =  1.22E-03,  avg # of iterations =  1.4

     total cpu time spent up to now is       25.0 secs

     total energy              =    -360.72175365 Ry
     estimated scf accuracy    <       0.24790000 Ry

     iteration #  4     ecut=    50.00 Ry     beta= 0.30
     Davidson diagonalization with overlap
     ethr =  6.89E-04,  avg # of iterations = 10.0

     total cpu time spent up to now is       35.8 secs

     total energy              =    -360.81318914 Ry
     estimated scf accuracy    <       0.77843939 Ry

     iteration #  5     ecut=    50.00 Ry     beta= 0.30
     Davidson diagonalization with overlap
     ethr =  6.89E-04,  avg # of iterations =  5.1

     total cpu time spent up to now is       43.0 secs

     total energy              =    -360.80284247 Ry
     estimated scf accuracy    <       0.13974740 Ry

     iteration #  6     ecut=    50.00 Ry     beta= 0.30
     Davidson diagonalization with overlap
     ethr =  3.88E-04,  avg # of iterations =  8.7

     total cpu time spent up to now is       52.9 secs

     total energy              =    -360.89105085 Ry
     estimated scf accuracy    <       0.20140782 Ry

     iteration #  7     ecut=    50.00 Ry     beta= 0.30
     Davidson diagonalization with overlap
     ethr =  3.88E-04,  avg # of iterations =  1.1

     total cpu time spent up to now is       58.4 secs

     total energy              =    -360.86417828 Ry
     estimated scf accuracy    <       0.18185325 Ry

     iteration #  8     ecut=    50.00 Ry     beta= 0.30
     Davidson diagonalization with overlap
     ethr =  3.88E-04,  avg # of iterations =  2.0

     total cpu time spent up to now is       64.3 secs

     total energy              =    -360.86241167 Ry
     estimated scf accuracy    <       0.09936975 Ry

     iteration #  9     ecut=    50.00 Ry     beta= 0.30
     Davidson diagonalization with overlap
     ethr =  2.76E-04,  avg # of iterations =  1.3

     total cpu time spent up to now is       69.9 secs

     total energy              =    -360.84872650 Ry
     estimated scf accuracy    <       0.07864362 Ry

     iteration # 10     ecut=    50.00 Ry     beta= 0.30
     Davidson diagonalization with overlap
     ethr =  2.18E-04,  avg # of iterations =  4.6

     total cpu time spent up to now is       77.1 secs

     total energy              =    -360.86797700 Ry
     estimated scf accuracy    <       0.00085686 Ry

     iteration # 11     ecut=    50.00 Ry     beta= 0.30
     Davidson diagonalization with overlap
     c_bands:  1 eigenvalues not converged
     c_bands:  1 eigenvalues not converged
     c_bands:  2 eigenvalues not converged
     c_bands:  3 eigenvalues not converged
     c_bands:  5 eigenvalues not converged
     c_bands:  2 eigenvalues not converged
     c_bands:  3 eigenvalues not converged
     c_bands:  3 eigenvalues not converged
     c_bands:  4 eigenvalues not converged
     c_bands:  3 eigenvalues not converged
     c_bands:  3 eigenvalues not converged
     c_bands:  3 eigenvalues not converged
     c_bands:  3 eigenvalues not converged
     c_bands:  3 eigenvalues not converged
     c_bands:  1 eigenvalues not converged
     c_bands:  3 eigenvalues not converged
     c_bands:  2 eigenvalues not converged
     c_bands:  1 eigenvalues not converged
     c_bands:  1 eigenvalues not converged
     c_bands:  1 eigenvalues not converged
     c_bands:  1 eigenvalues not converged
     c_bands:  3 eigenvalues not converged
     c_bands:  1 eigenvalues not converged
     c_bands:  3 eigenvalues not converged
     c_bands:  3 eigenvalues not converged
     c_bands:  1 eigenvalues not converged
     c_bands:  2 eigenvalues not converged
     c_bands:  1 eigenvalues not converged
     c_bands:  2 eigenvalues not converged
     c_bands:  3 eigenvalues not converged
     c_bands:  3 eigenvalues not converged
     c_bands:  3 eigenvalues not converged
     c_bands:  3 eigenvalues not converged
     c_bands:  2 eigenvalues not converged
     c_bands:  2 eigenvalues not converged
     c_bands:  3 eigenvalues not converged
     c_bands:  2 eigenvalues not converged
     c_bands:  1 eigenvalues not converged
     c_bands:  2 eigenvalues not converged
     c_bands:  2 eigenvalues not converged
     c_bands:  4 eigenvalues not converged
     c_bands:  4 eigenvalues not converged
     c_bands:  3 eigenvalues not converged
     c_bands:  2 eigenvalues not converged
     c_bands:  2 eigenvalues not converged
     c_bands:  4 eigenvalues not converged
     c_bands:  2 eigenvalues not converged
     c_bands:  2 eigenvalues not converged
     c_bands:  2 eigenvalues not converged
     c_bands:  2 eigenvalues not converged
     c_bands:  3 eigenvalues not converged
     c_bands:  3 eigenvalues not converged
     c_bands:  2 eigenvalues not converged
     c_bands:  3 eigenvalues not converged
     c_bands:  4 eigenvalues not converged
     c_bands:  3 eigenvalues not converged
     c_bands:  5 eigenvalues not converged
     c_bands:  3 eigenvalues not converged
     c_bands:  4 eigenvalues not converged
     c_bands:  3 eigenvalues not converged
     c_bands:  3 eigenvalues not converged
     ethr =  2.38E-06,  avg # of iterations = 18.5

     total cpu time spent up to now is       99.9 secs

     total energy              =    -360.88792359 Ry
     estimated scf accuracy    <       0.16569649 Ry

     iteration # 12     ecut=    50.00 Ry     beta= 0.30
     Davidson diagonalization with overlap
     c_bands:  1 eigenvalues not converged
     c_bands:  1 eigenvalues not converged
     c_bands:  1 eigenvalues not converged
     c_bands:  1 eigenvalues not converged
     c_bands:  1 eigenvalues not converged
     c_bands:  1 eigenvalues not converged
     ethr =  2.38E-06,  avg # of iterations = 10.2

     total cpu time spent up to now is      111.2 secs

     total energy              =    -360.89657648 Ry
     estimated scf accuracy    <       0.13090582 Ry

     iteration # 13     ecut=    50.00 Ry     beta= 0.30
     Davidson diagonalization with overlap
     c_bands:  1 eigenvalues not converged
     c_bands:  1 eigenvalues not converged
     c_bands:  1 eigenvalues not converged
     c_bands:  1 eigenvalues not converged
     ethr =  2.38E-06,  avg # of iterations =  9.5

     total cpu time spent up to now is      121.2 secs

     total energy              =    -360.91506598 Ry
     estimated scf accuracy    <       0.18301535 Ry

     iteration # 14     ecut=    50.00 Ry     beta= 0.30
     Davidson diagonalization with overlap
     c_bands:  1 eigenvalues not converged
     c_bands:  1 eigenvalues not converged
     c_bands:  2 eigenvalues not converged
     c_bands:  1 eigenvalues not converged
     c_bands:  2 eigenvalues not converged
     c_bands:  1 eigenvalues not converged
     c_bands:  1 eigenvalues not converged
     c_bands:  1 eigenvalues not converged
     c_bands:  1 eigenvalues not converged
     c_bands:  1 eigenvalues not converged
     c_bands:  2 eigenvalues not converged
     c_bands:  1 eigenvalues not converged
     c_bands:  2 eigenvalues not converged
     c_bands:  1 eigenvalues not converged
     c_bands:  1 eigenvalues not converged
     c_bands:  2 eigenvalues not converged
     c_bands:  2 eigenvalues not converged
     c_bands:  1 eigenvalues not converged
     c_bands:  1 eigenvalues not converged
     c_bands:  1 eigenvalues not converged
     c_bands:  1 eigenvalues not converged
     c_bands:  1 eigenvalues not converged
     c_bands:  3 eigenvalues not converged
     c_bands:  3 eigenvalues not converged
     ethr =  2.38E-06,  avg # of iterations = 15.0

     total cpu time spent up to now is      136.4 secs

     total energy              =    -360.89054756 Ry
     estimated scf accuracy    <       0.33869950 Ry

     iteration # 15     ecut=    50.00 Ry     beta= 0.30
     Davidson diagonalization with overlap
     c_bands:  1 eigenvalues not converged
     c_bands:  1 eigenvalues not converged
     c_bands:  2 eigenvalues not converged
     c_bands:  1 eigenvalues not converged
     c_bands:  1 eigenvalues not converged
     c_bands:  1 eigenvalues not converged
     c_bands:  1 eigenvalues not converged
     c_bands:  1 eigenvalues not converged
     c_bands:  1 eigenvalues not converged
     c_bands:  1 eigenvalues not converged
     c_bands:  1 eigenvalues not converged
     c_bands:  2 eigenvalues not converged
     c_bands:  1 eigenvalues not converged
     c_bands:  1 eigenvalues not converged
     c_bands:  1 eigenvalues not converged
     c_bands:  1 eigenvalues not converged
     c_bands:  1 eigenvalues not converged
     c_bands:  1 eigenvalues not converged
     c_bands:  1 eigenvalues not converged
     c_bands:  1 eigenvalues not converged
     ethr =  2.38E-06,  avg # of iterations = 14.7

     total cpu time spent up to now is      151.4 secs

     total energy              =    -360.89238270 Ry
     estimated scf accuracy    <       0.17468592 Ry

     iteration # 16     ecut=    50.00 Ry     beta= 0.30
     Davidson diagonalization with overlap
     ethr =  2.38E-06,  avg # of iterations =  2.5

     total cpu time spent up to now is      157.4 secs

     total energy              =    -360.87265823 Ry
     estimated scf accuracy    <       0.16687062 Ry

     iteration # 17     ecut=    50.00 Ry     beta= 0.30
     Davidson diagonalization with overlap
     c_bands:  2 eigenvalues not converged
     c_bands:  2 eigenvalues not converged
     c_bands:  2 eigenvalues not converged
     c_bands:  2 eigenvalues not converged
     c_bands:  2 eigenvalues not converged
     c_bands:  1 eigenvalues not converged
     c_bands:  1 eigenvalues not converged
     c_bands:  1 eigenvalues not converged
     c_bands:  1 eigenvalues not converged
     c_bands:  1 eigenvalues not converged
     c_bands:  1 eigenvalues not converged
     c_bands:  3 eigenvalues not converged
     c_bands:  1 eigenvalues not converged
     c_bands:  1 eigenvalues not converged
     c_bands:  1 eigenvalues not converged
     c_bands:  1 eigenvalues not converged
     c_bands:  2 eigenvalues not converged
     c_bands:  1 eigenvalues not converged
     c_bands:  2 eigenvalues not converged
     c_bands:  1 eigenvalues not converged
     c_bands:  1 eigenvalues not converged
     c_bands:  1 eigenvalues not converged
     c_bands:  2 eigenvalues not converged
     c_bands:  1 eigenvalues not converged
     c_bands:  1 eigenvalues not converged
     c_bands:  2 eigenvalues not converged
     c_bands:  2 eigenvalues not converged
     c_bands:  2 eigenvalues not converged
     c_bands:  2 eigenvalues not converged
     c_bands:  2 eigenvalues not converged
     c_bands:  2 eigenvalues not converged
     c_bands:  2 eigenvalues not converged
     c_bands:  1 eigenvalues not converged
     c_bands:  1 eigenvalues not converged
     c_bands:  2 eigenvalues not converged
     c_bands:  2 eigenvalues not converged
     c_bands:  3 eigenvalues not converged
     c_bands:  3 eigenvalues not converged
     ethr =  2.38E-06,  avg # of iterations = 16.2

     total cpu time spent up to now is      173.7 secs

     total energy              =    -360.87506458 Ry
     estimated scf accuracy    <       0.03968399 Ry

     iteration # 18     ecut=    50.00 Ry     beta= 0.30
     Davidson diagonalization with overlap
     c_bands:  1 eigenvalues not converged
     c_bands:  1 eigenvalues not converged
     c_bands:  1 eigenvalues not converged
     c_bands:  1 eigenvalues not converged
     c_bands:  2 eigenvalues not converged
     c_bands:  2 eigenvalues not converged
     c_bands:  1 eigenvalues not converged
     ethr =  2.38E-06,  avg # of iterations =  9.2

     total cpu time spent up to now is      183.6 secs

     total energy              =    -360.87628329 Ry
     estimated scf accuracy    <       0.01669617 Ry

     iteration # 19     ecut=    50.00 Ry     beta= 0.30
     Davidson diagonalization with overlap
     ethr =  2.38E-06,  avg # of iterations =  1.4

     total cpu time spent up to now is      189.3 secs

     total energy              =    -360.87329464 Ry
     estimated scf accuracy    <       0.01730288 Ry

     iteration # 20     ecut=    50.00 Ry     beta= 0.30
     Davidson diagonalization with overlap
     c_bands:  1 eigenvalues not converged
     c_bands:  2 eigenvalues not converged
     c_bands:  1 eigenvalues not converged
     c_bands:  1 eigenvalues not converged
     c_bands:  2 eigenvalues not converged
     c_bands:  1 eigenvalues not converged
     c_bands:  1 eigenvalues not converged
     c_bands:  2 eigenvalues not converged
     c_bands:  1 eigenvalues not converged
     ethr =  2.38E-06,  avg # of iterations = 11.5

     total cpu time spent up to now is      201.3 secs

     total energy              =    -360.87442192 Ry
     estimated scf accuracy    <       0.00074035 Ry

     iteration # 21     ecut=    50.00 Ry     beta= 0.30
     Davidson diagonalization with overlap
     ethr =  2.06E-06,  avg # of iterations =  4.2

     total cpu time spent up to now is      208.1 secs

     total energy              =    -360.87451086 Ry
     estimated scf accuracy    <       0.00048103 Ry

     iteration # 22     ecut=    50.00 Ry     beta= 0.30
     Davidson diagonalization with overlap
     ethr =  1.34E-06,  avg # of iterations =  1.2

     total cpu time spent up to now is      213.6 secs

     total energy              =    -360.87445208 Ry
     estimated scf accuracy    <       0.00045448 Ry

     iteration # 23     ecut=    50.00 Ry     beta= 0.30
     Davidson diagonalization with overlap
     ethr =  1.26E-06,  avg # of iterations =  1.6

     total cpu time spent up to now is      219.3 secs

     total energy              =    -360.87437373 Ry
     estimated scf accuracy    <       0.00029544 Ry

     iteration # 24     ecut=    50.00 Ry     beta= 0.30
     Davidson diagonalization with overlap
     c_bands:  1 eigenvalues not converged
     c_bands:  2 eigenvalues not converged
     c_bands:  1 eigenvalues not converged
     ethr =  8.21E-07,  avg # of iterations =  9.6

     total cpu time spent up to now is      229.6 secs

     total energy              =    -360.87454130 Ry
     estimated scf accuracy    <       0.00039795 Ry

     iteration # 25     ecut=    50.00 Ry     beta= 0.30
     Davidson diagonalization with overlap
     ethr =  8.21E-07,  avg # of iterations =  1.1

     total cpu time spent up to now is      235.1 secs

     total energy              =    -360.87448157 Ry
     estimated scf accuracy    <       0.00037839 Ry

     iteration # 26     ecut=    50.00 Ry     beta= 0.30
     Davidson diagonalization with overlap
     ethr =  8.21E-07,  avg # of iterations =  1.5

     total cpu time spent up to now is      240.7 secs

     total energy              =    -360.87445398 Ry
     estimated scf accuracy    <       0.00023022 Ry

     iteration # 27     ecut=    50.00 Ry     beta= 0.30
     Davidson diagonalization with overlap
     ethr =  6.39E-07,  avg # of iterations =  5.8

     total cpu time spent up to now is      248.0 secs

     total energy              =    -360.87449071 Ry
     estimated scf accuracy    <       0.00000529 Ry

     iteration # 28     ecut=    50.00 Ry     beta= 0.30
     Davidson diagonalization with overlap
     c_bands:  1 eigenvalues not converged
     c_bands:  1 eigenvalues not converged
     c_bands:  5 eigenvalues not converged
     c_bands:  2 eigenvalues not converged
     c_bands:  2 eigenvalues not converged
     c_bands:  1 eigenvalues not converged
     c_bands:  1 eigenvalues not converged
     c_bands:  1 eigenvalues not converged
     c_bands:  1 eigenvalues not converged
     c_bands:  1 eigenvalues not converged
     c_bands:  1 eigenvalues not converged
     c_bands:  1 eigenvalues not converged
     c_bands:  2 eigenvalues not converged
     c_bands:  4 eigenvalues not converged
     c_bands:  1 eigenvalues not converged
     c_bands:  4 eigenvalues not converged
     c_bands:  2 eigenvalues not converged
     c_bands:  1 eigenvalues not converged
     c_bands:  3 eigenvalues not converged
     c_bands:  1 eigenvalues not converged
     c_bands:  2 eigenvalues not converged
     c_bands:  1 eigenvalues not converged
     c_bands:  2 eigenvalues not converged
     ethr =  1.47E-08,  avg # of iterations = 14.4

     total cpu time spent up to now is      263.5 secs

     total energy              =    -360.87452086 Ry
     estimated scf accuracy    <       0.00017223 Ry

     iteration # 29     ecut=    50.00 Ry     beta= 0.30
     Davidson diagonalization with overlap
     c_bands:  1 eigenvalues not converged
     ethr =  1.47E-08,  avg # of iterations =  2.1

     total cpu time spent up to now is      269.3 secs

     total energy              =    -360.87447334 Ry
     estimated scf accuracy    <       0.00016905 Ry

     iteration # 30     ecut=    50.00 Ry     beta= 0.30
     Davidson diagonalization with overlap
     c_bands:  1 eigenvalues not converged
     c_bands:  2 eigenvalues not converged
     c_bands:  2 eigenvalues not converged
     c_bands:  1 eigenvalues not converged
     c_bands:  1 eigenvalues not converged
     c_bands:  2 eigenvalues not converged
     c_bands:  2 eigenvalues not converged
     c_bands:  1 eigenvalues not converged
     c_bands:  2 eigenvalues not converged
     c_bands:  1 eigenvalues not converged
     c_bands:  1 eigenvalues not converged
     c_bands:  2 eigenvalues not converged
     c_bands:  1 eigenvalues not converged
     c_bands:  1 eigenvalues not converged
     c_bands:  2 eigenvalues not converged
     c_bands:  1 eigenvalues not converged
     c_bands:  2 eigenvalues not converged
     c_bands:  1 eigenvalues not converged
     c_bands:  2 eigenvalues not converged
     c_bands:  1 eigenvalues not converged
     c_bands:  1 eigenvalues not converged
     c_bands:  2 eigenvalues not converged
     c_bands:  2 eigenvalues not converged
     c_bands:  1 eigenvalues not converged
     c_bands:  1 eigenvalues not converged
     ethr =  1.47E-08,  avg # of iterations = 16.0

     total cpu time spent up to now is      285.9 secs

     total energy              =    -360.87449693 Ry
     estimated scf accuracy    <       0.00010455 Ry

     iteration # 31     ecut=    50.00 Ry     beta= 0.30
     Davidson diagonalization with overlap
     c_bands:  1 eigenvalues not converged
     c_bands:  2 eigenvalues not converged
     c_bands:  1 eigenvalues not converged
     c_bands:  2 eigenvalues not converged
     c_bands:  1 eigenvalues not converged
     c_bands:  1 eigenvalues not converged
     c_bands:  2 eigenvalues not converged
     c_bands:  2 eigenvalues not converged
     ethr =  1.47E-08,  avg # of iterations = 12.1

     total cpu time spent up to now is      299.2 secs

     total energy              =    -360.87450936 Ry
     estimated scf accuracy    <       0.00000481 Ry

     iteration # 32     ecut=    50.00 Ry     beta= 0.30
     Davidson diagonalization with overlap
     ethr =  1.34E-08,  avg # of iterations =  1.9

     total cpu time spent up to now is      304.9 secs

     total energy              =    -360.87450799 Ry
     estimated scf accuracy    <       0.00000274 Ry

     iteration # 33     ecut=    50.00 Ry     beta= 0.30
     Davidson diagonalization with overlap
     c_bands:  1 eigenvalues not converged
     c_bands:  1 eigenvalues not converged
     c_bands:  2 eigenvalues not converged
     c_bands:  1 eigenvalues not converged
     ethr =  7.60E-09,  avg # of iterations = 11.9

     total cpu time spent up to now is      317.9 secs

     total energy              =    -360.87451235 Ry
     estimated scf accuracy    <       0.00002479 Ry

     iteration # 34     ecut=    50.00 Ry     beta= 0.30
     Davidson diagonalization with overlap
     ethr =  7.60E-09,  avg # of iterations =  1.9

     total cpu time spent up to now is      323.7 secs

     total energy              =    -360.87451116 Ry
     estimated scf accuracy    <       0.00002512 Ry

     iteration # 35     ecut=    50.00 Ry     beta= 0.30
     Davidson diagonalization with overlap
     ethr =  7.60E-09,  avg # of iterations =  1.8

     total cpu time spent up to now is      329.5 secs

     total energy              =    -360.87450944 Ry
     estimated scf accuracy    <       0.00002079 Ry

     iteration # 36     ecut=    50.00 Ry     beta= 0.30
     Davidson diagonalization with overlap
     ethr =  7.60E-09,  avg # of iterations =  3.3

     total cpu time spent up to now is      336.0 secs

     total energy              =    -360.87450988 Ry
     estimated scf accuracy    <       0.00001296 Ry

     iteration # 37     ecut=    50.00 Ry     beta= 0.30
     Davidson diagonalization with overlap
     ethr =  7.60E-09,  avg # of iterations =  1.4

     total cpu time spent up to now is      341.5 secs

     total energy              =    -360.87451047 Ry
     estimated scf accuracy    <       0.00001241 Ry

     iteration # 38     ecut=    50.00 Ry     beta= 0.30
     Davidson diagonalization with overlap
     ethr =  7.60E-09,  avg # of iterations =  3.4

     total cpu time spent up to now is      348.0 secs

     total energy              =    -360.87451070 Ry
     estimated scf accuracy    <       0.00001292 Ry

     iteration # 39     ecut=    50.00 Ry     beta= 0.30
     Davidson diagonalization with overlap
     ethr =  7.60E-09,  avg # of iterations =  1.1

     total cpu time spent up to now is      353.3 secs

     total energy              =    -360.87450628 Ry
     estimated scf accuracy    <       0.00001276 Ry

     iteration # 40     ecut=    50.00 Ry     beta= 0.30
     Davidson diagonalization with overlap
     c_bands:  1 eigenvalues not converged
     c_bands:  2 eigenvalues not converged
     c_bands:  1 eigenvalues not converged
     c_bands:  1 eigenvalues not converged
     c_bands:  2 eigenvalues not converged
     ethr =  7.60E-09,  avg # of iterations = 11.9

     total cpu time spent up to now is      366.5 secs

     total energy              =    -360.87450801 Ry
     estimated scf accuracy    <       0.00001394 Ry

     iteration # 41     ecut=    50.00 Ry     beta= 0.30
     Davidson diagonalization with overlap
     ethr =  7.60E-09,  avg # of iterations =  7.3

     total cpu time spent up to now is      376.0 secs

     total energy              =    -360.87450993 Ry
     estimated scf accuracy    <       0.00000032 Ry

     iteration # 42     ecut=    50.00 Ry     beta= 0.30
     Davidson diagonalization with overlap
     c_bands:  1 eigenvalues not converged
     c_bands:  2 eigenvalues not converged
     ethr =  8.93E-10,  avg # of iterations =  6.1

     total cpu time spent up to now is      383.7 secs

     total energy              =    -360.87450988 Ry
     estimated scf accuracy    <       0.00000114 Ry

     iteration # 43     ecut=    50.00 Ry     beta= 0.30
     Davidson diagonalization with overlap
     ethr =  8.93E-10,  avg # of iterations =  1.5

     total cpu time spent up to now is      388.9 secs

     total energy              =    -360.87450956 Ry
     estimated scf accuracy    <       0.00000083 Ry

     iteration # 44     ecut=    50.00 Ry     beta= 0.30
     Davidson diagonalization with overlap
     c_bands:  1 eigenvalues not converged
     c_bands:  2 eigenvalues not converged
     c_bands:  1 eigenvalues not converged
     c_bands:  1 eigenvalues not converged
     c_bands:  1 eigenvalues not converged
     c_bands:  2 eigenvalues not converged
     c_bands:  1 eigenvalues not converged
     ethr =  8.93E-10,  avg # of iterations = 11.4

     total cpu time spent up to now is      401.0 secs

     total energy              =    -360.87450976 Ry
     estimated scf accuracy    <       0.00000271 Ry

     iteration # 45     ecut=    50.00 Ry     beta= 0.30
     Davidson diagonalization with overlap
     ethr =  8.93E-10,  avg # of iterations =  7.1

     total cpu time spent up to now is      409.3 secs

     total energy              =    -360.87450988 Ry
     estimated scf accuracy    <       0.00000037 Ry

     iteration # 46     ecut=    50.00 Ry     beta= 0.30
     Davidson diagonalization with overlap
     ethr =  8.93E-10,  avg # of iterations =  1.8

     total cpu time spent up to now is      414.8 secs

     total energy              =    -360.87450988 Ry
     estimated scf accuracy    <       0.00000029 Ry

     iteration # 47     ecut=    50.00 Ry     beta= 0.30
     Davidson diagonalization with overlap
     ethr =  8.07E-10,  avg # of iterations =  1.9

     total cpu time spent up to now is      420.5 secs

     total energy              =    -360.87450987 Ry
     estimated scf accuracy    <       0.00000019 Ry

     iteration # 48     ecut=    50.00 Ry     beta= 0.30
     Davidson diagonalization with overlap
     ethr =  5.39E-10,  avg # of iterations =  2.4

     total cpu time spent up to now is      426.5 secs

     total energy              =    -360.87450988 Ry
     estimated scf accuracy    <       0.00000010 Ry

     iteration # 49     ecut=    50.00 Ry     beta= 0.30
     Davidson diagonalization with overlap
     c_bands:  1 eigenvalues not converged
     ethr =  2.72E-10,  avg # of iterations =  4.9

     total cpu time spent up to now is      433.9 secs

     total energy              =    -360.87450990 Ry
     estimated scf accuracy    <       0.00000001 Ry

     iteration # 50     ecut=    50.00 Ry     beta= 0.30
     Davidson diagonalization with overlap
     c_bands:  1 eigenvalues not converged
     c_bands:  1 eigenvalues not converged
     ethr =  2.93E-11,  avg # of iterations = 11.1

     total cpu time spent up to now is      445.1 secs

     total energy              =    -360.87450991 Ry
     estimated scf accuracy    <       0.00000005 Ry

     iteration # 51     ecut=    50.00 Ry     beta= 0.30
     Davidson diagonalization with overlap
     ethr =  2.93E-11,  avg # of iterations =  1.2

     total cpu time spent up to now is      450.5 secs

     total energy              =    -360.87450991 Ry
     estimated scf accuracy    <       0.00000005 Ry

     iteration # 52     ecut=    50.00 Ry     beta= 0.30
     Davidson diagonalization with overlap
     ethr =  2.93E-11,  avg # of iterations =  2.0

     total cpu time spent up to now is      456.4 secs

     total energy              =    -360.87450991 Ry
     estimated scf accuracy    <       0.00000006 Ry

     iteration # 53     ecut=    50.00 Ry     beta= 0.30
     Davidson diagonalization with overlap
     ethr =  2.93E-11,  avg # of iterations =  1.0

     total cpu time spent up to now is      461.7 secs

     total energy              =    -360.87450990 Ry
     estimated scf accuracy    <       0.00000006 Ry

     iteration # 54     ecut=    50.00 Ry     beta= 0.30
     Davidson diagonalization with overlap
     ethr =  2.93E-11,  avg # of iterations =  4.3

     total cpu time spent up to now is      468.7 secs

     total energy              =    -360.87450990 Ry
     estimated scf accuracy    <       0.00000003 Ry

     iteration # 55     ecut=    50.00 Ry     beta= 0.30
     Davidson diagonalization with overlap
     ethr =  2.93E-11,  avg # of iterations =  4.0

     total cpu time spent up to now is      475.4 secs

     total energy              =    -360.87450990 Ry
     estimated scf accuracy    <       0.00000001 Ry

     iteration # 56     ecut=    50.00 Ry     beta= 0.30
     Davidson diagonalization with overlap
     ethr =  2.93E-11,  avg # of iterations =  5.4

     total cpu time spent up to now is      482.8 secs

     End of self-consistent calculation

     Number of k-points >= 100: set verbosity='high' to print the bands.

     highest occupied level (ev):     4.2323

!    total energy              =    -360.87450990 Ry
     estimated scf accuracy    <          2.0E-09 Ry

     The total energy is the sum of the following terms:
     one-electron contribution =    -212.99134447 Ry
     hartree contribution      =     141.33378982 Ry
     xc contribution           =    -108.58624884 Ry
     ewald contribution        =    -180.63070642 Ry

     convergence has been achieved in  56 iterations

     Forces acting on atoms (cartesian axes, Ry/au):

     atom    1 type  1   force =     0.13306950    0.08431268    0.15763250
     atom    2 type  1   force =    -0.13546928   -0.08961486   -0.12261411
     atom    3 type  2   force =     0.01327873    0.02623420   -0.06173622
     atom    4 type  2   force =    -0.01087895   -0.02093203    0.02671783
     The non-local contrib.  to forces
     atom    1 type  1   force =    -0.02759311    0.01045945    0.31127549
     atom    2 type  1   force =     0.06681450   -0.01132722   -0.24792516
     atom    3 type  2   force =     0.05586623    0.16138858   -0.36073186
     atom    4 type  2   force =    -0.02742659   -0.15005708   -0.07371039
     The ionic contribution  to forces
     atom    1 type  1   force =     3.81927430    2.24937022    4.80691418
     atom    2 type  1   force =    -3.75223460   -1.76692146  -14.11472747
     atom    3 type  2   force =    -0.15142606   -0.30439798    3.01359184
     atom    4 type  2   force =     0.08438636   -0.17805078    6.29422145
     The local contribution  to forces
     atom    1 type  1   force =    -3.64917184   -2.16882182   -4.94568904
     atom    2 type  1   force =     3.54179938    1.68303109   14.22021545
     atom    3 type  2   force =     0.10949456    0.17107355   -2.71837423
     atom    4 type  2   force =    -0.06820923    0.30539714   -6.19392469
     The core correction contribution to forces
     atom    1 type  1   force =    -0.00943275   -0.00669762   -0.01496566
     atom    2 type  1   force =     0.00814183    0.00560275    0.01982770
     atom    3 type  2   force =    -0.00065250   -0.00183285    0.00384728
     atom    4 type  2   force =     0.00037282    0.00177819    0.00011404
     The Hubbard contrib.    to forces
     atom    1 type  1   force =     0.00000000    0.00000000    0.00000000
     atom    2 type  1   force =     0.00000000    0.00000000    0.00000000
     atom    3 type  2   force =     0.00000000    0.00000000    0.00000000
     atom    4 type  2   force =     0.00000000    0.00000000    0.00000000
     The SCF correction term to forces
     atom    1 type  1   force =    -0.00000666    0.00000333    0.00011170
     atom    2 type  1   force =     0.00001004    0.00000087    0.00000954
     atom    3 type  2   force =    -0.00000308    0.00000379   -0.00005510
     atom    4 type  2   force =    -0.00000188    0.00000139    0.00003158

     Total force =     0.311492     Total SCF correction =     0.000130

     Writing all to output data dir ./ZnO_ANN.save/

     init_run     :      3.91s CPU      4.02s WALL (       1 calls)
     electrons    :    470.21s CPU    478.36s WALL (       1 calls)
     forces       :      1.37s CPU      1.39s WALL (       1 calls)

     Called by init_run:
     wfcinit      :      2.97s CPU      3.04s WALL (       1 calls)
     potinit      :      0.30s CPU      0.31s WALL (       1 calls)
     hinit0       :      0.53s CPU      0.54s WALL (       1 calls)

     Called by electrons:
     c_bands      :    417.94s CPU    424.92s WALL (      56 calls)
     sum_band     :     46.53s CPU     47.54s WALL (      56 calls)
     v_of_rho     :      1.14s CPU      1.22s WALL (      57 calls)
     newd         :      4.37s CPU      4.42s WALL (      57 calls)
     mix_rho      :      0.20s CPU      0.22s WALL (      56 calls)

     Called by c_bands:
     init_us_2    :      3.86s CPU      3.93s WALL (   12768 calls)
     init_us_2:cp :      3.82s CPU      3.89s WALL (   12768 calls)
     cegterg      :    405.70s CPU    412.51s WALL (    6273 calls)

     Called by *egterg:
     cdiaghg      :     46.89s CPU     47.32s WALL (   43602 calls)
     h_psi        :    224.37s CPU    229.50s WALL (   43714 calls)
     s_psi        :     32.66s CPU     32.92s WALL (   43714 calls)
     g_psi        :      0.89s CPU      0.90s WALL (   37329 calls)

     Called by h_psi:
     h_psi:calbec :     35.33s CPU     36.42s WALL (   43714 calls)
     vloc_psi     :    155.33s CPU    159.03s WALL (   43714 calls)
     add_vuspsi   :     32.80s CPU     33.14s WALL (   43714 calls)

     General routines
     calbec       :     47.33s CPU     48.73s WALL (   50434 calls)
     fft          :      1.13s CPU      1.24s WALL (     750 calls)
     ffts         :      0.15s CPU      0.16s WALL (     113 calls)
     fftw         :    154.67s CPU    158.35s WALL (  787976 calls)
     interpolate  :      0.19s CPU      0.20s WALL (      57 calls)

     Parallel routines

     PWSCF        :   7m56.28s CPU   8m 4.86s WALL


   This run was terminated on:  18:41:58  23Jun2025            

=------------------------------------------------------------------------------=
   JOB DONE.
=------------------------------------------------------------------------------=
Note: The following floating-point exceptions are signalling: IEEE_INVALID_FLAG
