
     Program PWSCF v.7.2 starts on 23Jun2025 at 14:29:24 

     This program is part of the open-source Quantum ESPRESSO suite
     for quantum simulation of materials; please cite
         "P. Giannozzi et al., J. Phys.:Condens. Matter 21 395502 (2009);
         "P. Giannozzi et al., J. Phys.:Condens. Matter 29 465901 (2017);
         "P. Giannozzi et al., J. Chem. Phys. 152 154105 (2020);
          URL http://www.quantum-espresso.org", 
     in publications or presentations arising from this work. More details at
     http://www.quantum-espresso.org/quote

     Parallel version (MPI), running on     8 processors

     MPI processes distributed on     1 nodes
     91095 MiB available memory on the printing compute node when the environment starts

     Reading input from /home/jvc/QEspresso7.2/ZnO_DataBase/scfs_rnd025.in/scf-6.18-1.58-4.in

     Current dimensions of program PWSCF are:
     Max number of different atomic species (ntypx) = 10
     Max number of k-points (npk) =  40000
     Max angular momentum in pseudopotentials (lmaxx) =  4
     file Zn.upf: wavefunction(s)  3D renormalized

     R & G space division:  proc/nbgrp/npool/nimage =       8
     Subspace diagonalization in iterative solution of the eigenvalue problem:
     a serial algorithm will be used


     Parallelization info
     --------------------
     sticks:   dense  smooth     PW     G-vecs:    dense   smooth      PW
     Min         130      64     20                 5447     1916     330
     Max         131      65     21                 5449     1919     333
     Sum        1045     517    163                43587    15345    2647

     Using Slab Decomposition



     bravais-lattice index     =            4
     lattice parameter (alat)  =       6.1788  a.u.
     unit-cell volume          =     323.2017 (a.u.)^3
     number of atoms/cell      =            4
     number of atomic types    =            2
     number of electrons       =        36.00
     number of Kohn-Sham states=           18
     kinetic-energy cutoff     =      50.0000  Ry
     charge density cutoff     =     400.0000  Ry
     scf convergence threshold =      1.0E-08
     mixing beta               =       0.3000
     number of iterations used =            8  plain     mixing
     Exchange-correlation= PBE
                           (   1   4   3   4   0   0   0)

     celldm(1)=   6.178821  celldm(2)=   0.000000  celldm(3)=   1.582071
     celldm(4)=   0.000000  celldm(5)=   0.000000  celldm(6)=   0.000000

     crystal axes: (cart. coord. in units of alat)
               a(1) = (   1.000000   0.000000   0.000000 )  
               a(2) = (  -0.500000   0.866025   0.000000 )  
               a(3) = (   0.000000   0.000000   1.582071 )  

     reciprocal axes: (cart. coord. in units 2 pi/alat)
               b(1) = (  1.000000  0.577350 -0.000000 )  
               b(2) = (  0.000000  1.154701  0.000000 )  
               b(3) = (  0.000000 -0.000000  0.632083 )  


     PseudoPot. # 1 for Zn read from file:
     ./pseudos/Zn.upf
     MD5 check sum: 7f56cabf9682ed8c977c2f7d0c5985c5
     Pseudo is Ultrasoft + core correction, Zval = 12.0
     Generated using &quot;atomic&quot; code by A. Dal Corso  v.6.2.2
     Using radial grid of 1201 points,  6 beta functions with: 
                l(1) =   0
                l(2) =   0
                l(3) =   1
                l(4) =   1
                l(5) =   2
                l(6) =   2
     Q(r) pseudized with 0 coefficients 


     PseudoPot. # 2 for O  read from file:
     ./pseudos/O.upf
     MD5 check sum: 91400c9766925bcf19f520983a725ff0
     Pseudo is Ultrasoft + core correction, Zval =  6.0
     Generated using &quot;atomic&quot; code by A. Dal Corso  v.6.3MaX
     Using radial grid of 1095 points,  4 beta functions with: 
                l(1) =   0
                l(2) =   0
                l(3) =   1
                l(4) =   1
     Q(r) pseudized with 0 coefficients 


     atomic species   valence    mass     pseudopotential
        Zn            12.00    63.38000     Zn( 1.00)
        O              6.00    15.99900     O ( 1.00)

     No symmetry found



   Cartesian axes

     site n.     atom                  positions (alat units)
         1           Zn  tau(   1) = (   0.6042146   0.1135269   0.7858446  )
         2           Zn  tau(   2) = (  -0.0367292   0.4738173   0.0471986  )
         3           O   tau(   3) = (   0.6354096   0.0939690   1.0327527  )
         4           O   tau(   4) = (  -0.0668633   0.5372457   0.6011259  )

     number of k points=   112

     Number of k-points >= 100: set verbosity='high' to print them.

     Dense  grid:    43587 G-vectors     FFT dimensions: (  40,  40,  64)

     Smooth grid:    15345 G-vectors     FFT dimensions: (  27,  27,  45)

     Estimated max dynamical RAM per process >      30.01 MB

     Estimated total dynamical RAM >     240.07 MB

     Check: negative core charge=   -0.000002

     Initial potential from superposition of free atoms

     starting charge      35.9925, renormalised to      36.0000
     Starting wfcs are   26 randomized atomic wfcs

     total cpu time spent up to now is        3.9 secs

     Self-consistent Calculation

     iteration #  1     ecut=    50.00 Ry     beta= 0.30
     Davidson diagonalization with overlap
     ethr =  1.00E-02,  avg # of iterations =  4.1

     total cpu time spent up to now is       11.5 secs

     total energy              =    -353.78573836 Ry
     estimated scf accuracy    <       0.97486797 Ry

     iteration #  2     ecut=    50.00 Ry     beta= 0.30
     Davidson diagonalization with overlap
     ethr =  2.71E-03,  avg # of iterations =  2.8

     total cpu time spent up to now is       17.4 secs

     total energy              =    -353.77448148 Ry
     estimated scf accuracy    <       0.25664458 Ry

     iteration #  3     ecut=    50.00 Ry     beta= 0.30
     Davidson diagonalization with overlap
     ethr =  7.13E-04,  avg # of iterations =  8.3

     total cpu time spent up to now is       27.9 secs

     total energy              =    -353.90801488 Ry
     estimated scf accuracy    <       0.12953326 Ry

     iteration #  4     ecut=    50.00 Ry     beta= 0.30
     Davidson diagonalization with overlap
     ethr =  3.60E-04,  avg # of iterations =  5.8

     total cpu time spent up to now is       35.1 secs

     total energy              =    -353.93651747 Ry
     estimated scf accuracy    <       0.02458612 Ry

     iteration #  5     ecut=    50.00 Ry     beta= 0.30
     Davidson diagonalization with overlap
     ethr =  6.83E-05,  avg # of iterations =  7.0

     total cpu time spent up to now is       43.0 secs

     total energy              =    -353.93517317 Ry
     estimated scf accuracy    <       0.02298041 Ry

     iteration #  6     ecut=    50.00 Ry     beta= 0.30
     Davidson diagonalization with overlap
     ethr =  6.38E-05,  avg # of iterations =  5.5

     total cpu time spent up to now is       50.6 secs

     total energy              =    -353.94027219 Ry
     estimated scf accuracy    <       0.00701866 Ry

     iteration #  7     ecut=    50.00 Ry     beta= 0.30
     Davidson diagonalization with overlap
     ethr =  1.95E-05,  avg # of iterations =  2.6

     total cpu time spent up to now is       56.2 secs

     total energy              =    -353.93982411 Ry
     estimated scf accuracy    <       0.00233900 Ry

     iteration #  8     ecut=    50.00 Ry     beta= 0.30
     Davidson diagonalization with overlap
     ethr =  6.50E-06,  avg # of iterations =  5.6

     total cpu time spent up to now is       64.7 secs

     total energy              =    -353.94109705 Ry
     estimated scf accuracy    <       0.00051937 Ry

     iteration #  9     ecut=    50.00 Ry     beta= 0.30
     Davidson diagonalization with overlap
     ethr =  1.44E-06,  avg # of iterations =  4.0

     total cpu time spent up to now is       70.4 secs

     total energy              =    -353.94095981 Ry
     estimated scf accuracy    <       0.00051452 Ry

     iteration # 10     ecut=    50.00 Ry     beta= 0.30
     Davidson diagonalization with overlap
     ethr =  1.43E-06,  avg # of iterations =  4.9

     total cpu time spent up to now is       76.5 secs

     total energy              =    -353.94096296 Ry
     estimated scf accuracy    <       0.00015416 Ry

     iteration # 11     ecut=    50.00 Ry     beta= 0.30
     Davidson diagonalization with overlap
     ethr =  4.28E-07,  avg # of iterations =  7.0

     total cpu time spent up to now is       86.1 secs

     total energy              =    -353.94105788 Ry
     estimated scf accuracy    <       0.00026786 Ry

     iteration # 12     ecut=    50.00 Ry     beta= 0.30
     Davidson diagonalization with overlap
     ethr =  4.28E-07,  avg # of iterations =  1.3

     total cpu time spent up to now is       90.9 secs

     total energy              =    -353.94102852 Ry
     estimated scf accuracy    <       0.00017418 Ry

     iteration # 13     ecut=    50.00 Ry     beta= 0.30
     Davidson diagonalization with overlap
     ethr =  4.28E-07,  avg # of iterations =  2.1

     total cpu time spent up to now is       96.2 secs

     total energy              =    -353.94100249 Ry
     estimated scf accuracy    <       0.00008027 Ry

     iteration # 14     ecut=    50.00 Ry     beta= 0.30
     Davidson diagonalization with overlap
     ethr =  2.23E-07,  avg # of iterations =  8.4

     total cpu time spent up to now is      105.6 secs

     total energy              =    -353.94103729 Ry
     estimated scf accuracy    <       0.00008104 Ry

     iteration # 15     ecut=    50.00 Ry     beta= 0.30
     Davidson diagonalization with overlap
     ethr =  2.23E-07,  avg # of iterations =  2.0

     total cpu time spent up to now is      110.7 secs

     total energy              =    -353.94102932 Ry
     estimated scf accuracy    <       0.00003386 Ry

     iteration # 16     ecut=    50.00 Ry     beta= 0.30
     Davidson diagonalization with overlap
     ethr =  9.41E-08,  avg # of iterations =  5.8

     total cpu time spent up to now is      118.4 secs

     total energy              =    -353.94104487 Ry
     estimated scf accuracy    <       0.00000883 Ry

     iteration # 17     ecut=    50.00 Ry     beta= 0.30
     Davidson diagonalization with overlap
     ethr =  2.45E-08,  avg # of iterations =  6.5

     total cpu time spent up to now is      125.0 secs

     total energy              =    -353.94104361 Ry
     estimated scf accuracy    <       0.00001426 Ry

     iteration # 18     ecut=    50.00 Ry     beta= 0.30
     Davidson diagonalization with overlap
     ethr =  2.45E-08,  avg # of iterations =  1.9

     total cpu time spent up to now is      129.9 secs

     total energy              =    -353.94104108 Ry
     estimated scf accuracy    <       0.00000734 Ry

     iteration # 19     ecut=    50.00 Ry     beta= 0.30
     Davidson diagonalization with overlap
     ethr =  2.04E-08,  avg # of iterations =  8.6

     total cpu time spent up to now is      138.5 secs

     total energy              =    -353.94104567 Ry
     estimated scf accuracy    <       0.00000913 Ry

     iteration # 20     ecut=    50.00 Ry     beta= 0.30
     Davidson diagonalization with overlap
     ethr =  2.04E-08,  avg # of iterations =  2.0

     total cpu time spent up to now is      143.7 secs

     total energy              =    -353.94104361 Ry
     estimated scf accuracy    <       0.00001023 Ry

     iteration # 21     ecut=    50.00 Ry     beta= 0.30
     Davidson diagonalization with overlap
     ethr =  2.04E-08,  avg # of iterations =  2.6

     total cpu time spent up to now is      148.9 secs

     total energy              =    -353.94104350 Ry
     estimated scf accuracy    <       0.00000443 Ry

     iteration # 22     ecut=    50.00 Ry     beta= 0.30
     Davidson diagonalization with overlap
     ethr =  1.23E-08,  avg # of iterations =  2.8

     total cpu time spent up to now is      154.1 secs

     total energy              =    -353.94104325 Ry
     estimated scf accuracy    <       0.00000226 Ry

     iteration # 23     ecut=    50.00 Ry     beta= 0.30
     Davidson diagonalization with overlap
     ethr =  6.27E-09,  avg # of iterations =  6.3

     total cpu time spent up to now is      160.6 secs

     total energy              =    -353.94104369 Ry
     estimated scf accuracy    <       0.00000024 Ry

     iteration # 24     ecut=    50.00 Ry     beta= 0.30
     Davidson diagonalization with overlap
     c_bands:  1 eigenvalues not converged
     ethr =  6.65E-10,  avg # of iterations =  8.2

     total cpu time spent up to now is      169.2 secs

     total energy              =    -353.94104386 Ry
     estimated scf accuracy    <       0.00000001 Ry

     iteration # 25     ecut=    50.00 Ry     beta= 0.30
     Davidson diagonalization with overlap
     c_bands:  1 eigenvalues not converged
     c_bands:  1 eigenvalues not converged
     c_bands:  1 eigenvalues not converged
     c_bands:  1 eigenvalues not converged
     c_bands:  1 eigenvalues not converged
     c_bands:  1 eigenvalues not converged
     ethr =  2.82E-11,  avg # of iterations = 12.3

     total cpu time spent up to now is      184.3 secs

     total energy              =    -353.94104386 Ry
     estimated scf accuracy    <       0.00000020 Ry

     iteration # 26     ecut=    50.00 Ry     beta= 0.30
     Davidson diagonalization with overlap
     ethr =  2.82E-11,  avg # of iterations =  8.5

     total cpu time spent up to now is      195.3 secs

     total energy              =    -353.94104386 Ry
     estimated scf accuracy    <       0.00000009 Ry

     iteration # 27     ecut=    50.00 Ry     beta= 0.30
     Davidson diagonalization with overlap
     ethr =  2.82E-11,  avg # of iterations =  6.5

     total cpu time spent up to now is      203.8 secs

     total energy              =    -353.94104386 Ry
     estimated scf accuracy    <       0.00000003 Ry

     iteration # 28     ecut=    50.00 Ry     beta= 0.30
     Davidson diagonalization with overlap
     ethr =  2.82E-11,  avg # of iterations =  7.4

     total cpu time spent up to now is      210.9 secs

     End of self-consistent calculation

     Number of k-points >= 100: set verbosity='high' to print the bands.

     highest occupied level (ev):    10.5097

!    total energy              =    -353.94104386 Ry
     estimated scf accuracy    <          3.1E-09 Ry

     The total energy is the sum of the following terms:
     one-electron contribution =    -216.52979802 Ry
     hartree contribution      =     146.08720891 Ry
     xc contribution           =    -111.29075959 Ry
     ewald contribution        =    -172.20769515 Ry

     convergence has been achieved in  28 iterations

     Forces acting on atoms (cartesian axes, Ry/au):

     atom    1 type  1   force =    -2.45391854    1.66071732  -19.31385015
     atom    2 type  1   force =     0.00346670   -0.00936151   -0.08558323
     atom    3 type  2   force =     2.46664850   -1.53799744   19.53260554
     atom    4 type  2   force =    -0.01619667   -0.11335838   -0.13317216
     The non-local contrib.  to forces
     atom    1 type  1   force =     0.65423720   -0.51095535    5.32548986
     atom    2 type  1   force =     0.04586746    0.10574008   -0.15943296
     atom    3 type  2   force =    -0.14640784    0.12404587   -0.79840990
     atom    4 type  2   force =     0.09842960    0.39042098   -0.17472205
     The ionic contribution  to forces
     atom    1 type  1   force =    -7.20493532    7.36491769  -48.36899148
     atom    2 type  1   force =     0.80678805   -0.88721939   -8.36080113
     atom    3 type  2   force =     6.89969751   -3.96772457   60.14815738
     atom    4 type  2   force =    -0.50155024   -2.50997373   -3.41836477
     The local contribution  to forces
     atom    1 type  1   force =     4.00244628   -5.11671157   22.97170922
     atom    2 type  1   force =    -0.84563489    0.77093994    8.40203087
     atom    3 type  2   force =    -4.28235184    2.30437726  -39.78016004
     atom    4 type  2   force =     0.38776930    2.00897681    3.45756106
     The core correction contribution to forces
     atom    1 type  1   force =     0.09434824   -0.07656540    0.75795764
     atom    2 type  1   force =    -0.00357035    0.00119349    0.03263494
     atom    3 type  2   force =    -0.00429539    0.00130479   -0.03714953
     atom    4 type  2   force =    -0.00084837   -0.00276775    0.00236445
     The Hubbard contrib.    to forces
     atom    1 type  1   force =     0.00000000    0.00000000    0.00000000
     atom    2 type  1   force =     0.00000000    0.00000000    0.00000000
     atom    3 type  2   force =     0.00000000    0.00000000    0.00000000
     atom    4 type  2   force =     0.00000000    0.00000000    0.00000000
     The SCF correction term to forces
     atom    1 type  1   force =    -0.00001773    0.00003801   -0.00007659
     atom    2 type  1   force =     0.00001364   -0.00000957   -0.00007617
     atom    3 type  2   force =     0.00000326    0.00000527    0.00010642
     atom    4 type  2   force =     0.00000024   -0.00000864   -0.00007208

     Total force =    27.781563     Total SCF correction =     0.000174

     Writing all to output data dir ./ZnO_ANN.save/

     init_run     :      3.33s CPU      3.43s WALL (       1 calls)
     electrons    :    202.91s CPU    207.02s WALL (       1 calls)
     forces       :      1.04s CPU      1.06s WALL (       1 calls)

     Called by init_run:
     wfcinit      :      2.57s CPU      2.62s WALL (       1 calls)
     potinit      :      0.21s CPU      0.21s WALL (       1 calls)
     hinit0       :      0.48s CPU      0.50s WALL (       1 calls)

     Called by electrons:
     c_bands      :    180.68s CPU    184.21s WALL (      28 calls)
     sum_band     :     20.11s CPU     20.64s WALL (      28 calls)
     v_of_rho     :      0.41s CPU      0.43s WALL (      29 calls)
     newd         :      1.65s CPU      1.69s WALL (      29 calls)
     mix_rho      :      0.08s CPU      0.08s WALL (      28 calls)

     Called by c_bands:
     init_us_2    :      1.44s CPU      1.47s WALL (    6496 calls)
     init_us_2:cp :      1.42s CPU      1.45s WALL (    6496 calls)
     cegterg      :    176.14s CPU    179.59s WALL (    3136 calls)

     Called by *egterg:
     cdiaghg      :     22.31s CPU     22.55s WALL (   20029 calls)
     h_psi        :    103.14s CPU    105.71s WALL (   20141 calls)
     s_psi        :     12.73s CPU     12.85s WALL (   20141 calls)
     g_psi        :      0.33s CPU      0.34s WALL (   16893 calls)

     Called by h_psi:
     h_psi:calbec :     13.58s CPU     14.06s WALL (   20141 calls)
     vloc_psi     :     76.37s CPU     78.32s WALL (   20141 calls)
     add_vuspsi   :     12.83s CPU     12.97s WALL (   20141 calls)

     General routines
     calbec       :     18.44s CPU     19.07s WALL (   23725 calls)
     fft          :      0.57s CPU      0.60s WALL (     386 calls)
     ffts         :      0.08s CPU      0.08s WALL (      57 calls)
     fftw         :     79.34s CPU     81.40s WALL (  399674 calls)
     interpolate  :      0.09s CPU      0.10s WALL (      29 calls)

     Parallel routines

     PWSCF        :   3m28.00s CPU   3m32.43s WALL


   This run was terminated on:  14:32:56  23Jun2025            

=------------------------------------------------------------------------------=
   JOB DONE.
=------------------------------------------------------------------------------=
Note: The following floating-point exceptions are signalling: IEEE_INVALID_FLAG
