
     Program PWSCF v.7.2 starts on 23Jun2025 at 18: 3:14 

     This program is part of the open-source Quantum ESPRESSO suite
     for quantum simulation of materials; please cite
         "P. Giannozzi et al., J. Phys.:Condens. Matter 21 395502 (2009);
         "P. Giannozzi et al., J. Phys.:Condens. Matter 29 465901 (2017);
         "P. Giannozzi et al., J. Chem. Phys. 152 154105 (2020);
          URL http://www.quantum-espresso.org", 
     in publications or presentations arising from this work. More details at
     http://www.quantum-espresso.org/quote

     Parallel version (MPI), running on     8 processors

     MPI processes distributed on     1 nodes
     90598 MiB available memory on the printing compute node when the environment starts

     Reading input from /home/jvc/QEspresso7.2/ZnO_DataBase/scfs_rnd025.in/scf-6.67-1.74-5.in

     Current dimensions of program PWSCF are:
     Max number of different atomic species (ntypx) = 10
     Max number of k-points (npk) =  40000
     Max angular momentum in pseudopotentials (lmaxx) =  4
     file Zn.upf: wavefunction(s)  3D renormalized

     R & G space division:  proc/nbgrp/npool/nimage =       8
     Subspace diagonalization in iterative solution of the eigenvalue problem:
     a serial algorithm will be used


     Parallelization info
     --------------------
     sticks:   dense  smooth     PW     G-vecs:    dense   smooth      PW
     Min         154      75     23                 7574     2671     437
     Max         155      78     24                 7579     2679     442
     Sum        1237     613    187                60615    21389    3515

     Using Slab Decomposition



     bravais-lattice index     =            4
     lattice parameter (alat)  =       6.6731  a.u.
     unit-cell volume          =     448.6860 (a.u.)^3
     number of atoms/cell      =            4
     number of atomic types    =            2
     number of electrons       =        36.00
     number of Kohn-Sham states=           18
     kinetic-energy cutoff     =      50.0000  Ry
     charge density cutoff     =     400.0000  Ry
     scf convergence threshold =      1.0E-08
     mixing beta               =       0.3000
     number of iterations used =            8  plain     mixing
     Exchange-correlation= PBE
                           (   1   4   3   4   0   0   0)

     celldm(1)=   6.673127  celldm(2)=   0.000000  celldm(3)=   1.743507
     celldm(4)=   0.000000  celldm(5)=   0.000000  celldm(6)=   0.000000

     crystal axes: (cart. coord. in units of alat)
               a(1) = (   1.000000   0.000000   0.000000 )  
               a(2) = (  -0.500000   0.866025   0.000000 )  
               a(3) = (   0.000000   0.000000   1.743507 )  

     reciprocal axes: (cart. coord. in units 2 pi/alat)
               b(1) = (  1.000000  0.577350 -0.000000 )  
               b(2) = (  0.000000  1.154701  0.000000 )  
               b(3) = (  0.000000 -0.000000  0.573557 )  


     PseudoPot. # 1 for Zn read from file:
     ./pseudos/Zn.upf
     MD5 check sum: 7f56cabf9682ed8c977c2f7d0c5985c5
     Pseudo is Ultrasoft + core correction, Zval = 12.0
     Generated using &quot;atomic&quot; code by A. Dal Corso  v.6.2.2
     Using radial grid of 1201 points,  6 beta functions with: 
                l(1) =   0
                l(2) =   0
                l(3) =   1
                l(4) =   1
                l(5) =   2
                l(6) =   2
     Q(r) pseudized with 0 coefficients 


     PseudoPot. # 2 for O  read from file:
     ./pseudos/O.upf
     MD5 check sum: 91400c9766925bcf19f520983a725ff0
     Pseudo is Ultrasoft + core correction, Zval =  6.0
     Generated using &quot;atomic&quot; code by A. Dal Corso  v.6.3MaX
     Using radial grid of 1095 points,  4 beta functions with: 
                l(1) =   0
                l(2) =   0
                l(3) =   1
                l(4) =   1
     Q(r) pseudized with 0 coefficients 


     atomic species   valence    mass     pseudopotential
        Zn            12.00    63.38000     Zn( 1.00)
        O              6.00    15.99900     O ( 1.00)

     No symmetry found



   Cartesian axes

     site n.     atom                  positions (alat units)
         1           Zn  tau(   1) = (   0.5408584   0.4277323   0.8297029  )
         2           Zn  tau(   2) = (  -0.0739480   0.6561185   0.3359375  )
         3           O   tau(   3) = (   0.4176491   0.3166350   1.2804422  )
         4           O   tau(   4) = (   0.0896771   0.3857374   0.8654939  )

     number of k points=   112

     Number of k-points >= 100: set verbosity='high' to print them.

     Dense  grid:    60615 G-vectors     FFT dimensions: (  45,  45,  75)

     Smooth grid:    21389 G-vectors     FFT dimensions: (  32,  32,  54)

     Estimated max dynamical RAM per process >      40.62 MB

     Estimated total dynamical RAM >     324.93 MB

     Check: negative core charge=   -0.000002

     Initial potential from superposition of free atoms

     starting charge      35.9925, renormalised to      36.0000
     Starting wfcs are   26 randomized atomic wfcs

     total cpu time spent up to now is        4.3 secs

     Self-consistent Calculation

     iteration #  1     ecut=    50.00 Ry     beta= 0.30
     Davidson diagonalization with overlap
     ethr =  1.00E-02,  avg # of iterations =  2.0

     total cpu time spent up to now is       10.4 secs

     total energy              =    -360.43166212 Ry
     estimated scf accuracy    <       1.68151611 Ry

     iteration #  2     ecut=    50.00 Ry     beta= 0.30
     Davidson diagonalization with overlap
     ethr =  4.67E-03,  avg # of iterations =  8.1

     total cpu time spent up to now is       19.7 secs

     total energy              =    -360.87914954 Ry
     estimated scf accuracy    <       1.30220338 Ry

     iteration #  3     ecut=    50.00 Ry     beta= 0.30
     Davidson diagonalization with overlap
     ethr =  3.62E-03,  avg # of iterations =  1.4

     total cpu time spent up to now is       25.4 secs

     total energy              =    -360.51782112 Ry
     estimated scf accuracy    <       0.71373472 Ry

     iteration #  4     ecut=    50.00 Ry     beta= 0.30
     Davidson diagonalization with overlap
     ethr =  1.98E-03,  avg # of iterations = 11.7

     total cpu time spent up to now is       42.0 secs

     total energy              =    -361.12979838 Ry
     estimated scf accuracy    <       2.31165905 Ry

     iteration #  5     ecut=    50.00 Ry     beta= 0.30
     Davidson diagonalization with overlap
     ethr =  1.98E-03,  avg # of iterations =  1.8

     total cpu time spent up to now is       48.0 secs

     total energy              =    -361.04718253 Ry
     estimated scf accuracy    <       1.50515020 Ry

     iteration #  6     ecut=    50.00 Ry     beta= 0.30
     Davidson diagonalization with overlap
     ethr =  1.98E-03,  avg # of iterations =  1.6

     total cpu time spent up to now is       53.9 secs

     total energy              =    -361.01904272 Ry
     estimated scf accuracy    <       1.17979518 Ry

     iteration #  7     ecut=    50.00 Ry     beta= 0.30
     Davidson diagonalization with overlap
     ethr =  1.98E-03,  avg # of iterations =  1.3

     total cpu time spent up to now is       59.7 secs

     total energy              =    -361.10828079 Ry
     estimated scf accuracy    <       0.99699857 Ry

     iteration #  8     ecut=    50.00 Ry     beta= 0.30
     Davidson diagonalization with overlap
     ethr =  1.98E-03,  avg # of iterations =  1.1

     total cpu time spent up to now is       65.2 secs

     total energy              =    -360.69934573 Ry
     estimated scf accuracy    <       1.06497021 Ry

     iteration #  9     ecut=    50.00 Ry     beta= 0.30
     Davidson diagonalization with overlap
     ethr =  1.98E-03,  avg # of iterations =  8.6

     total cpu time spent up to now is       74.9 secs

     total energy              =    -361.24497055 Ry
     estimated scf accuracy    <       1.59100904 Ry

     iteration # 10     ecut=    50.00 Ry     beta= 0.30
     Davidson diagonalization with overlap
     ethr =  1.98E-03,  avg # of iterations =  1.0

     total cpu time spent up to now is       80.6 secs

     total energy              =    -361.38757872 Ry
     estimated scf accuracy    <       1.63799889 Ry

     iteration # 11     ecut=    50.00 Ry     beta= 0.30
     Davidson diagonalization with overlap
     ethr =  1.98E-03,  avg # of iterations =  2.0

     total cpu time spent up to now is       86.7 secs

     total energy              =    -361.53439207 Ry
     estimated scf accuracy    <       2.28922016 Ry

     iteration # 12     ecut=    50.00 Ry     beta= 0.30
     Davidson diagonalization with overlap
     ethr =  1.98E-03,  avg # of iterations =  2.4

     total cpu time spent up to now is       92.9 secs

     total energy              =    -361.27457544 Ry
     estimated scf accuracy    <       3.06363174 Ry

     iteration # 13     ecut=    50.00 Ry     beta= 0.30
     Davidson diagonalization with overlap
     ethr =  1.98E-03,  avg # of iterations =  1.1

     total cpu time spent up to now is       98.4 secs

     total energy              =    -360.33751987 Ry
     estimated scf accuracy    <       2.59368175 Ry

     iteration # 14     ecut=    50.00 Ry     beta= 0.30
     Davidson diagonalization with overlap
     ethr =  1.98E-03,  avg # of iterations = 10.7

     total cpu time spent up to now is      111.9 secs

     total energy              =    -361.18116831 Ry
     estimated scf accuracy    <       0.75325747 Ry

     iteration # 15     ecut=    50.00 Ry     beta= 0.30
     Davidson diagonalization with overlap
     ethr =  1.98E-03,  avg # of iterations =  1.0

     total cpu time spent up to now is      117.4 secs

     total energy              =    -361.18028558 Ry
     estimated scf accuracy    <       0.74753567 Ry

     iteration # 16     ecut=    50.00 Ry     beta= 0.30
     Davidson diagonalization with overlap
     ethr =  1.98E-03,  avg # of iterations =  1.1

     total cpu time spent up to now is      123.1 secs

     total energy              =    -361.18741856 Ry
     estimated scf accuracy    <       0.76271479 Ry

     iteration # 17     ecut=    50.00 Ry     beta= 0.30
     Davidson diagonalization with overlap
     ethr =  1.98E-03,  avg # of iterations =  1.1

     total cpu time spent up to now is      128.7 secs

     total energy              =    -361.16471888 Ry
     estimated scf accuracy    <       0.79405921 Ry

     iteration # 18     ecut=    50.00 Ry     beta= 0.30
     Davidson diagonalization with overlap
     ethr =  1.98E-03,  avg # of iterations =  1.1

     total cpu time spent up to now is      134.2 secs

     total energy              =    -361.03412036 Ry
     estimated scf accuracy    <       0.75947232 Ry

     iteration # 19     ecut=    50.00 Ry     beta= 0.30
     Davidson diagonalization with overlap
     ethr =  1.98E-03,  avg # of iterations =  1.1

     total cpu time spent up to now is      139.7 secs

     total energy              =    -361.00899308 Ry
     estimated scf accuracy    <       0.46350928 Ry

     iteration # 20     ecut=    50.00 Ry     beta= 0.30
     Davidson diagonalization with overlap
     ethr =  1.29E-03,  avg # of iterations =  1.2

     total cpu time spent up to now is      145.3 secs

     total energy              =    -360.98781657 Ry
     estimated scf accuracy    <       0.35129055 Ry

     iteration # 21     ecut=    50.00 Ry     beta= 0.30
     Davidson diagonalization with overlap
     ethr =  9.76E-04,  avg # of iterations =  2.0

     total cpu time spent up to now is      151.3 secs

     total energy              =    -360.95734884 Ry
     estimated scf accuracy    <       0.20899811 Ry

     iteration # 22     ecut=    50.00 Ry     beta= 0.30
     Davidson diagonalization with overlap
     ethr =  5.81E-04,  avg # of iterations =  7.7

     total cpu time spent up to now is      160.2 secs

     total energy              =    -361.04264880 Ry
     estimated scf accuracy    <       0.09322465 Ry

     iteration # 23     ecut=    50.00 Ry     beta= 0.30
     Davidson diagonalization with overlap
     ethr =  2.59E-04,  avg # of iterations =  2.5

     total cpu time spent up to now is      166.5 secs

     total energy              =    -361.06800007 Ry
     estimated scf accuracy    <       0.11625882 Ry

     iteration # 24     ecut=    50.00 Ry     beta= 0.30
     Davidson diagonalization with overlap
     ethr =  2.59E-04,  avg # of iterations =  4.0

     total cpu time spent up to now is      173.4 secs

     total energy              =    -361.08282215 Ry
     estimated scf accuracy    <       0.24971436 Ry

     iteration # 25     ecut=    50.00 Ry     beta= 0.30
     Davidson diagonalization with overlap
     ethr =  2.59E-04,  avg # of iterations =  1.7

     total cpu time spent up to now is      179.3 secs

     total energy              =    -361.09067499 Ry
     estimated scf accuracy    <       0.29045186 Ry

     iteration # 26     ecut=    50.00 Ry     beta= 0.30
     Davidson diagonalization with overlap
     ethr =  2.59E-04,  avg # of iterations =  1.7

     total cpu time spent up to now is      185.3 secs

     total energy              =    -361.08564061 Ry
     estimated scf accuracy    <       0.33497246 Ry

     iteration # 27     ecut=    50.00 Ry     beta= 0.30
     Davidson diagonalization with overlap
     ethr =  2.59E-04,  avg # of iterations =  1.1

     total cpu time spent up to now is      190.7 secs

     total energy              =    -361.05552379 Ry
     estimated scf accuracy    <       0.33449896 Ry

     iteration # 28     ecut=    50.00 Ry     beta= 0.30
     Davidson diagonalization with overlap
     ethr =  2.59E-04,  avg # of iterations =  1.2

     total cpu time spent up to now is      196.3 secs

     total energy              =    -361.05337125 Ry
     estimated scf accuracy    <       0.27472773 Ry

     iteration # 29     ecut=    50.00 Ry     beta= 0.30
     Davidson diagonalization with overlap
     ethr =  2.59E-04,  avg # of iterations =  1.0

     total cpu time spent up to now is      201.7 secs

     total energy              =    -361.04913409 Ry
     estimated scf accuracy    <       0.26266027 Ry

     iteration # 30     ecut=    50.00 Ry     beta= 0.30
     Davidson diagonalization with overlap
     ethr =  2.59E-04,  avg # of iterations =  1.1

     total cpu time spent up to now is      207.2 secs

     total energy              =    -360.92270785 Ry
     estimated scf accuracy    <       0.24419377 Ry

     iteration # 31     ecut=    50.00 Ry     beta= 0.30
     Davidson diagonalization with overlap
     ethr =  2.59E-04,  avg # of iterations = 11.9

     total cpu time spent up to now is      222.6 secs

     total energy              =    -360.99624500 Ry
     estimated scf accuracy    <       0.62280587 Ry

     iteration # 32     ecut=    50.00 Ry     beta= 0.30
     Davidson diagonalization with overlap
     ethr =  2.59E-04,  avg # of iterations =  6.5

     total cpu time spent up to now is      231.5 secs

     total energy              =    -361.02171269 Ry
     estimated scf accuracy    <       0.08399721 Ry

     iteration # 33     ecut=    50.00 Ry     beta= 0.30
     Davidson diagonalization with overlap
     ethr =  2.33E-04,  avg # of iterations =  1.7

     total cpu time spent up to now is      237.4 secs

     total energy              =    -361.01719831 Ry
     estimated scf accuracy    <       0.05417826 Ry

     iteration # 34     ecut=    50.00 Ry     beta= 0.30
     Davidson diagonalization with overlap
     ethr =  1.50E-04,  avg # of iterations =  5.7

     total cpu time spent up to now is      245.1 secs

     total energy              =    -361.02914177 Ry
     estimated scf accuracy    <       0.00041517 Ry

     iteration # 35     ecut=    50.00 Ry     beta= 0.30
     Davidson diagonalization with overlap
     c_bands:  3 eigenvalues not converged
     c_bands:  1 eigenvalues not converged
     c_bands:  2 eigenvalues not converged
     c_bands:  3 eigenvalues not converged
     c_bands:  1 eigenvalues not converged
     c_bands:  1 eigenvalues not converged
     c_bands:  1 eigenvalues not converged
     c_bands:  1 eigenvalues not converged
     c_bands:  1 eigenvalues not converged
     c_bands:  1 eigenvalues not converged
     c_bands:  1 eigenvalues not converged
     c_bands:  1 eigenvalues not converged
     c_bands:  2 eigenvalues not converged
     c_bands:  1 eigenvalues not converged
     c_bands:  2 eigenvalues not converged
     c_bands:  2 eigenvalues not converged
     c_bands:  3 eigenvalues not converged
     c_bands:  3 eigenvalues not converged
     c_bands:  1 eigenvalues not converged
     c_bands:  2 eigenvalues not converged
     c_bands:  3 eigenvalues not converged
     c_bands:  3 eigenvalues not converged
     c_bands:  2 eigenvalues not converged
     c_bands:  2 eigenvalues not converged
     c_bands:  1 eigenvalues not converged
     c_bands:  2 eigenvalues not converged
     c_bands:  3 eigenvalues not converged
     c_bands:  3 eigenvalues not converged
     c_bands:  2 eigenvalues not converged
     c_bands:  2 eigenvalues not converged
     c_bands:  1 eigenvalues not converged
     c_bands:  1 eigenvalues not converged
     c_bands:  3 eigenvalues not converged
     c_bands:  3 eigenvalues not converged
     c_bands:  1 eigenvalues not converged
     c_bands:  1 eigenvalues not converged
     c_bands:  1 eigenvalues not converged
     c_bands:  1 eigenvalues not converged
     c_bands:  2 eigenvalues not converged
     c_bands:  3 eigenvalues not converged
     c_bands:  2 eigenvalues not converged
     c_bands:  3 eigenvalues not converged
     c_bands:  3 eigenvalues not converged
     c_bands:  3 eigenvalues not converged
     c_bands:  2 eigenvalues not converged
     c_bands:  3 eigenvalues not converged
     ethr =  1.15E-06,  avg # of iterations = 16.5

     total cpu time spent up to now is      264.4 secs

     total energy              =    -361.02989765 Ry
     estimated scf accuracy    <       0.02259342 Ry

     iteration # 36     ecut=    50.00 Ry     beta= 0.30
     Davidson diagonalization with overlap
     c_bands:  1 eigenvalues not converged
     c_bands:  2 eigenvalues not converged
     c_bands:  3 eigenvalues not converged
     c_bands:  3 eigenvalues not converged
     c_bands:  1 eigenvalues not converged
     c_bands:  3 eigenvalues not converged
     c_bands:  1 eigenvalues not converged
     c_bands:  2 eigenvalues not converged
     c_bands:  1 eigenvalues not converged
     c_bands:  3 eigenvalues not converged
     c_bands:  3 eigenvalues not converged
     c_bands:  3 eigenvalues not converged
     c_bands:  2 eigenvalues not converged
     c_bands:  2 eigenvalues not converged
     c_bands:  1 eigenvalues not converged
     c_bands:  3 eigenvalues not converged
     ethr =  1.15E-06,  avg # of iterations = 16.2

     total cpu time spent up to now is      283.9 secs

     total energy              =    -361.03201482 Ry
     estimated scf accuracy    <       0.00040403 Ry

     iteration # 37     ecut=    50.00 Ry     beta= 0.30
     Davidson diagonalization with overlap
     ethr =  1.12E-06,  avg # of iterations =  5.9

     total cpu time spent up to now is      293.0 secs

     total energy              =    -361.03216765 Ry
     estimated scf accuracy    <       0.00025313 Ry

     iteration # 38     ecut=    50.00 Ry     beta= 0.30
     Davidson diagonalization with overlap
     ethr =  7.03E-07,  avg # of iterations =  2.7

     total cpu time spent up to now is      299.5 secs

     total energy              =    -361.03230840 Ry
     estimated scf accuracy    <       0.00037903 Ry

     iteration # 39     ecut=    50.00 Ry     beta= 0.30
     Davidson diagonalization with overlap
     ethr =  7.03E-07,  avg # of iterations =  8.2

     total cpu time spent up to now is      309.4 secs

     total energy              =    -361.03208891 Ry
     estimated scf accuracy    <       0.00281994 Ry

     iteration # 40     ecut=    50.00 Ry     beta= 0.30
     Davidson diagonalization with overlap
     ethr =  7.03E-07,  avg # of iterations =  6.7

     total cpu time spent up to now is      317.5 secs

     total energy              =    -361.03192278 Ry
     estimated scf accuracy    <       0.00098842 Ry

     iteration # 41     ecut=    50.00 Ry     beta= 0.30
     Davidson diagonalization with overlap
     ethr =  7.03E-07,  avg # of iterations =  8.1

     total cpu time spent up to now is      327.9 secs

     total energy              =    -361.03209063 Ry
     estimated scf accuracy    <       0.00009278 Ry

     iteration # 42     ecut=    50.00 Ry     beta= 0.30
     Davidson diagonalization with overlap
     ethr =  2.58E-07,  avg # of iterations =  5.7

     total cpu time spent up to now is      335.7 secs

     total energy              =    -361.03211041 Ry
     estimated scf accuracy    <       0.00000263 Ry

     iteration # 43     ecut=    50.00 Ry     beta= 0.30
     Davidson diagonalization with overlap
     c_bands:  1 eigenvalues not converged
     c_bands:  1 eigenvalues not converged
     c_bands:  3 eigenvalues not converged
     c_bands:  1 eigenvalues not converged
     c_bands:  2 eigenvalues not converged
     c_bands:  1 eigenvalues not converged
     c_bands:  1 eigenvalues not converged
     ethr =  7.29E-09,  avg # of iterations = 11.9

     total cpu time spent up to now is      350.8 secs

     total energy              =    -361.03211538 Ry
     estimated scf accuracy    <       0.00003019 Ry

     iteration # 44     ecut=    50.00 Ry     beta= 0.30
     Davidson diagonalization with overlap
     ethr =  7.29E-09,  avg # of iterations =  1.9

     total cpu time spent up to now is      356.8 secs

     total energy              =    -361.03210813 Ry
     estimated scf accuracy    <       0.00002494 Ry

     iteration # 45     ecut=    50.00 Ry     beta= 0.30
     Davidson diagonalization with overlap
     c_bands:  1 eigenvalues not converged
     c_bands:  1 eigenvalues not converged
     c_bands:  2 eigenvalues not converged
     c_bands:  1 eigenvalues not converged
     c_bands:  1 eigenvalues not converged
     c_bands:  1 eigenvalues not converged
     ethr =  7.29E-09,  avg # of iterations = 14.1

     total cpu time spent up to now is      372.1 secs

     total energy              =    -361.03211335 Ry
     estimated scf accuracy    <       0.00001065 Ry

     iteration # 46     ecut=    50.00 Ry     beta= 0.30
     Davidson diagonalization with overlap
     ethr =  7.29E-09,  avg # of iterations =  5.0

     total cpu time spent up to now is      379.5 secs

     total energy              =    -361.03211355 Ry
     estimated scf accuracy    <       0.00000290 Ry

     iteration # 47     ecut=    50.00 Ry     beta= 0.30
     Davidson diagonalization with overlap
     ethr =  7.29E-09,  avg # of iterations =  3.4

     total cpu time spent up to now is      386.2 secs

     total energy              =    -361.03211379 Ry
     estimated scf accuracy    <       0.00000077 Ry

     iteration # 48     ecut=    50.00 Ry     beta= 0.30
     Davidson diagonalization with overlap
     ethr =  2.15E-09,  avg # of iterations =  6.6

     total cpu time spent up to now is      395.2 secs

     total energy              =    -361.03211419 Ry
     estimated scf accuracy    <       0.00000010 Ry

     iteration # 49     ecut=    50.00 Ry     beta= 0.30
     Davidson diagonalization with overlap
     ethr =  2.89E-10,  avg # of iterations =  8.6

     total cpu time spent up to now is      405.0 secs

     total energy              =    -361.03211419 Ry
     estimated scf accuracy    <       0.00000045 Ry

     iteration # 50     ecut=    50.00 Ry     beta= 0.30
     Davidson diagonalization with overlap
     ethr =  2.89E-10,  avg # of iterations =  1.3

     total cpu time spent up to now is      410.7 secs

     total energy              =    -361.03211413 Ry
     estimated scf accuracy    <       0.00000033 Ry

     iteration # 51     ecut=    50.00 Ry     beta= 0.30
     Davidson diagonalization with overlap
     ethr =  2.89E-10,  avg # of iterations =  7.7

     total cpu time spent up to now is      421.0 secs

     total energy              =    -361.03211419 Ry
     estimated scf accuracy    <       0.00000001 Ry

     iteration # 52     ecut=    50.00 Ry     beta= 0.30
     Davidson diagonalization with overlap
     ethr =  3.76E-11,  avg # of iterations =  6.8

     total cpu time spent up to now is      429.6 secs

     total energy              =    -361.03211418 Ry
     estimated scf accuracy    <       0.00000004 Ry

     iteration # 53     ecut=    50.00 Ry     beta= 0.30
     Davidson diagonalization with overlap
     ethr =  3.76E-11,  avg # of iterations = 10.6

     total cpu time spent up to now is      442.5 secs

     total energy              =    -361.03211418 Ry
     estimated scf accuracy    <       0.00000003 Ry

     iteration # 54     ecut=    50.00 Ry     beta= 0.30
     Davidson diagonalization with overlap
     ethr =  3.76E-11,  avg # of iterations =  7.5

     total cpu time spent up to now is      452.2 secs

     End of self-consistent calculation

     Number of k-points >= 100: set verbosity='high' to print the bands.

     highest occupied level (ev):     4.0230

!    total energy              =    -361.03211419 Ry
     estimated scf accuracy    <          3.8E-09 Ry

     The total energy is the sum of the following terms:
     one-electron contribution =    -253.10058955 Ry
     hartree contribution      =     161.77791289 Ry
     xc contribution           =    -109.14121441 Ry
     ewald contribution        =    -160.56822311 Ry

     convergence has been achieved in  54 iterations

     Forces acting on atoms (cartesian axes, Ry/au):

     atom    1 type  1   force =     0.34196586    0.05546529   -0.10849433
     atom    2 type  1   force =     0.01638995    0.00561000   -0.05765160
     atom    3 type  2   force =    -0.04974508   -0.04165694    0.17518141
     atom    4 type  2   force =    -0.30861073   -0.01941835   -0.00903548
     The non-local contrib.  to forces
     atom    1 type  1   force =     0.41995356    0.20941147   -0.68383901
     atom    2 type  1   force =     0.20879762    0.17004283   -0.25303822
     atom    3 type  2   force =     0.00560850    0.25359410   -1.00224006
     atom    4 type  2   force =     0.42240548    0.16882338   -0.34128540
     The ionic contribution  to forces
     atom    1 type  1   force =     5.62566731    2.10720514    0.60843004
     atom    2 type  1   force =     0.93199341    2.31347312  -25.14627525
     atom    3 type  2   force =    -0.66420676   -2.37374262   19.07545532
     atom    4 type  2   force =    -5.89345396   -2.04693564    5.46238989
     The local contribution  to forces
     atom    1 type  1   force =    -5.64335346   -2.23940423   -0.08865092
     atom    2 type  1   force =    -1.11888943   -2.46848289   25.32167569
     atom    3 type  2   force =     0.60772883    2.08053339  -17.90588441
     atom    4 type  2   force =     5.16459386    1.85973326   -5.13240724
     The core correction contribution to forces
     atom    1 type  1   force =    -0.06031782   -0.02175956    0.05573400
     atom    2 type  1   force =    -0.00551004   -0.00942161    0.01991246
     atom    3 type  2   force =     0.00113026   -0.00203995    0.00785197
     atom    4 type  2   force =    -0.00213268   -0.00104336    0.00234955
     The Hubbard contrib.    to forces
     atom    1 type  1   force =     0.00000000    0.00000000    0.00000000
     atom    2 type  1   force =     0.00000000    0.00000000    0.00000000
     atom    3 type  2   force =     0.00000000    0.00000000    0.00000000
     atom    4 type  2   force =     0.00000000    0.00000000    0.00000000
     The SCF correction term to forces
     atom    1 type  1   force =     0.00001738    0.00001503   -0.00018833
     atom    2 type  1   force =    -0.00000049    0.00000110    0.00005383
     atom    3 type  2   force =    -0.00000481    0.00000069   -0.00002130
     atom    4 type  2   force =    -0.00002232    0.00000658   -0.00010216

     Total force =     0.515761     Total SCF correction =     0.000224

     Writing all to output data dir ./ZnO_ANN.save/

     init_run     :      3.87s CPU      3.95s WALL (       1 calls)
     electrons    :    440.59s CPU    447.91s WALL (       1 calls)
     forces       :      1.38s CPU      1.40s WALL (       1 calls)

     Called by init_run:
     wfcinit      :      2.98s CPU      3.03s WALL (       1 calls)
     potinit      :      0.33s CPU      0.33s WALL (       1 calls)
     hinit0       :      0.44s CPU      0.45s WALL (       1 calls)

     Called by electrons:
     c_bands      :    387.52s CPU    393.78s WALL (      54 calls)
     sum_band     :     47.13s CPU     48.06s WALL (      54 calls)
     v_of_rho     :      1.21s CPU      1.29s WALL (      55 calls)
     newd         :      4.50s CPU      4.54s WALL (      55 calls)
     mix_rho      :      0.21s CPU      0.23s WALL (      54 calls)

     Called by c_bands:
     init_us_2    :      3.76s CPU      3.82s WALL (   12320 calls)
     init_us_2:cp :      3.72s CPU      3.79s WALL (   12320 calls)
     cegterg      :    375.13s CPU    381.25s WALL (    6048 calls)

     Called by *egterg:
     cdiaghg      :     38.59s CPU     38.88s WALL (   35864 calls)
     h_psi        :    214.06s CPU    218.64s WALL (   35976 calls)
     s_psi        :     30.67s CPU     30.90s WALL (   35976 calls)
     g_psi        :      0.80s CPU      0.81s WALL (   29816 calls)

     Called by h_psi:
     h_psi:calbec :     32.95s CPU     33.87s WALL (   35976 calls)
     vloc_psi     :    149.61s CPU    153.07s WALL (   35976 calls)
     add_vuspsi   :     30.71s CPU     30.93s WALL (   35976 calls)

     General routines
     calbec       :     44.91s CPU     46.09s WALL (   42472 calls)
     fft          :      1.22s CPU      1.34s WALL (     724 calls)
     ffts         :      0.16s CPU      0.17s WALL (     109 calls)
     fftw         :    149.69s CPU    153.10s WALL (  730642 calls)
     interpolate  :      0.20s CPU      0.22s WALL (      55 calls)

     Parallel routines

     PWSCF        :   7m26.45s CPU   7m34.16s WALL


   This run was terminated on:  18:10:48  23Jun2025            

=------------------------------------------------------------------------------=
   JOB DONE.
=------------------------------------------------------------------------------=
Note: The following floating-point exceptions are signalling: IEEE_INVALID_FLAG
