
     Program PWSCF v.7.2 starts on 23Jun2025 at 13:40:23 

     This program is part of the open-source Quantum ESPRESSO suite
     for quantum simulation of materials; please cite
         "P. Giannozzi et al., J. Phys.:Condens. Matter 21 395502 (2009);
         "P. Giannozzi et al., J. Phys.:Condens. Matter 29 465901 (2017);
         "P. Giannozzi et al., J. Chem. Phys. 152 154105 (2020);
          URL http://www.quantum-espresso.org", 
     in publications or presentations arising from this work. More details at
     http://www.quantum-espresso.org/quote

     Parallel version (MPI), running on     8 processors

     MPI processes distributed on     1 nodes
     91207 MiB available memory on the printing compute node when the environment starts

     Reading input from /home/jvc/QEspresso7.2/ZnO_DataBase/scfs_rnd025.in/scf-6.06-1.45-5.in

     Current dimensions of program PWSCF are:
     Max number of different atomic species (ntypx) = 10
     Max number of k-points (npk) =  40000
     Max angular momentum in pseudopotentials (lmaxx) =  4
     file Zn.upf: wavefunction(s)  3D renormalized

     R & G space division:  proc/nbgrp/npool/nimage =       8
     Subspace diagonalization in iterative solution of the eigenvalue problem:
     a serial algorithm will be used


     Parallelization info
     --------------------
     sticks:   dense  smooth     PW     G-vecs:    dense   smooth      PW
     Min         126      63     18                 4702     1660     282
     Max         127      65     19                 4707     1667     289
     Sum        1015     511    151                37647    13305    2295

     Using Slab Decomposition



     bravais-lattice index     =            4
     lattice parameter (alat)  =       6.0552  a.u.
     unit-cell volume          =     279.3626 (a.u.)^3
     number of atoms/cell      =            4
     number of atomic types    =            2
     number of electrons       =        36.00
     number of Kohn-Sham states=           18
     kinetic-energy cutoff     =      50.0000  Ry
     charge density cutoff     =     400.0000  Ry
     scf convergence threshold =      1.0E-08
     mixing beta               =       0.3000
     number of iterations used =            8  plain     mixing
     Exchange-correlation= PBE
                           (   1   4   3   4   0   0   0)

     celldm(1)=   6.055245  celldm(2)=   0.000000  celldm(3)=   1.452923
     celldm(4)=   0.000000  celldm(5)=   0.000000  celldm(6)=   0.000000

     crystal axes: (cart. coord. in units of alat)
               a(1) = (   1.000000   0.000000   0.000000 )  
               a(2) = (  -0.500000   0.866025   0.000000 )  
               a(3) = (   0.000000   0.000000   1.452923 )  

     reciprocal axes: (cart. coord. in units 2 pi/alat)
               b(1) = (  1.000000  0.577350 -0.000000 )  
               b(2) = (  0.000000  1.154701  0.000000 )  
               b(3) = (  0.000000 -0.000000  0.688268 )  


     PseudoPot. # 1 for Zn read from file:
     ./pseudos/Zn.upf
     MD5 check sum: 7f56cabf9682ed8c977c2f7d0c5985c5
     Pseudo is Ultrasoft + core correction, Zval = 12.0
     Generated using &quot;atomic&quot; code by A. Dal Corso  v.6.2.2
     Using radial grid of 1201 points,  6 beta functions with: 
                l(1) =   0
                l(2) =   0
                l(3) =   1
                l(4) =   1
                l(5) =   2
                l(6) =   2
     Q(r) pseudized with 0 coefficients 


     PseudoPot. # 2 for O  read from file:
     ./pseudos/O.upf
     MD5 check sum: 91400c9766925bcf19f520983a725ff0
     Pseudo is Ultrasoft + core correction, Zval =  6.0
     Generated using &quot;atomic&quot; code by A. Dal Corso  v.6.3MaX
     Using radial grid of 1095 points,  4 beta functions with: 
                l(1) =   0
                l(2) =   0
                l(3) =   1
                l(4) =   1
     Q(r) pseudized with 0 coefficients 


     atomic species   valence    mass     pseudopotential
        Zn            12.00    63.38000     Zn( 1.00)
        O              6.00    15.99900     O ( 1.00)

     No symmetry found



   Cartesian axes

     site n.     atom                  positions (alat units)
         1           Zn  tau(   1) = (   0.6992477   0.2364162   0.8075672  )
         2           Zn  tau(   2) = (   0.0249153   0.6950633   0.0686725  )
         3           O   tau(   3) = (   0.6026603   0.4643484   1.1546094  )
         4           O   tau(   4) = (   0.0659659   0.5476474   0.5346398  )

     number of k points=   112

     Number of k-points >= 100: set verbosity='high' to print them.

     Dense  grid:    37647 G-vectors     FFT dimensions: (  40,  40,  60)

     Smooth grid:    13305 G-vectors     FFT dimensions: (  27,  27,  40)

     Estimated max dynamical RAM per process >      26.48 MB

     Estimated total dynamical RAM >     211.82 MB

     Check: negative core charge=   -0.000002

     Initial potential from superposition of free atoms

     starting charge      35.9925, renormalised to      36.0000
     Starting wfcs are   26 randomized atomic wfcs

     total cpu time spent up to now is        3.6 secs

     Self-consistent Calculation

     iteration #  1     ecut=    50.00 Ry     beta= 0.30
     Davidson diagonalization with overlap
     ethr =  1.00E-02,  avg # of iterations =  2.0

     total cpu time spent up to now is        8.3 secs

     total energy              =    -360.82670375 Ry
     estimated scf accuracy    <       0.98556943 Ry

     iteration #  2     ecut=    50.00 Ry     beta= 0.30
     Davidson diagonalization with overlap
     ethr =  2.74E-03,  avg # of iterations =  2.0

     total cpu time spent up to now is       13.5 secs

     total energy              =    -360.88594378 Ry
     estimated scf accuracy    <       0.17141776 Ry

     iteration #  3     ecut=    50.00 Ry     beta= 0.30
     Davidson diagonalization with overlap
     ethr =  4.76E-04,  avg # of iterations =  6.9

     total cpu time spent up to now is       23.7 secs

     total energy              =    -361.00056791 Ry
     estimated scf accuracy    <       0.19991751 Ry

     iteration #  4     ecut=    50.00 Ry     beta= 0.30
     Davidson diagonalization with overlap
     ethr =  4.76E-04,  avg # of iterations =  2.0

     total cpu time spent up to now is       28.4 secs

     total energy              =    -360.98149053 Ry
     estimated scf accuracy    <       0.05034983 Ry

     iteration #  5     ecut=    50.00 Ry     beta= 0.30
     Davidson diagonalization with overlap
     ethr =  1.40E-04,  avg # of iterations =  9.0

     total cpu time spent up to now is       43.1 secs

     total energy              =    -360.94734506 Ry
     estimated scf accuracy    <       0.74209578 Ry

     iteration #  6     ecut=    50.00 Ry     beta= 0.30
     Davidson diagonalization with overlap
     ethr =  1.40E-04,  avg # of iterations =  7.8

     total cpu time spent up to now is       54.7 secs

     total energy              =    -361.02651269 Ry
     estimated scf accuracy    <       0.03563183 Ry

     iteration #  7     ecut=    50.00 Ry     beta= 0.30
     Davidson diagonalization with overlap
     ethr =  9.90E-05,  avg # of iterations =  1.7

     total cpu time spent up to now is       59.0 secs

     total energy              =    -361.02365036 Ry
     estimated scf accuracy    <       0.01531991 Ry

     iteration #  8     ecut=    50.00 Ry     beta= 0.30
     Davidson diagonalization with overlap
     ethr =  4.26E-05,  avg # of iterations =  4.8

     total cpu time spent up to now is       65.8 secs

     total energy              =    -361.02949711 Ry
     estimated scf accuracy    <       0.00028159 Ry

     iteration #  9     ecut=    50.00 Ry     beta= 0.30
     Davidson diagonalization with overlap
     ethr =  7.82E-07,  avg # of iterations =  8.2

     total cpu time spent up to now is       76.4 secs

     total energy              =    -361.02982569 Ry
     estimated scf accuracy    <       0.00068145 Ry

     iteration # 10     ecut=    50.00 Ry     beta= 0.30
     Davidson diagonalization with overlap
     ethr =  7.82E-07,  avg # of iterations =  2.1

     total cpu time spent up to now is       81.4 secs

     total energy              =    -361.02979494 Ry
     estimated scf accuracy    <       0.00023571 Ry

     iteration # 11     ecut=    50.00 Ry     beta= 0.30
     Davidson diagonalization with overlap
     ethr =  6.55E-07,  avg # of iterations =  4.9

     total cpu time spent up to now is       88.4 secs

     total energy              =    -361.02986674 Ry
     estimated scf accuracy    <       0.00008906 Ry

     iteration # 12     ecut=    50.00 Ry     beta= 0.30
     Davidson diagonalization with overlap
     ethr =  2.47E-07,  avg # of iterations =  3.8

     total cpu time spent up to now is       93.9 secs

     total energy              =    -361.02986424 Ry
     estimated scf accuracy    <       0.00005119 Ry

     iteration # 13     ecut=    50.00 Ry     beta= 0.30
     Davidson diagonalization with overlap
     ethr =  1.42E-07,  avg # of iterations =  4.2

     total cpu time spent up to now is       99.6 secs

     total energy              =    -361.02986748 Ry
     estimated scf accuracy    <       0.00001904 Ry

     iteration # 14     ecut=    50.00 Ry     beta= 0.30
     Davidson diagonalization with overlap
     ethr =  5.29E-08,  avg # of iterations =  4.0

     total cpu time spent up to now is      105.9 secs

     total energy              =    -361.02987247 Ry
     estimated scf accuracy    <       0.00000297 Ry

     iteration # 15     ecut=    50.00 Ry     beta= 0.30
     Davidson diagonalization with overlap
     ethr =  8.24E-09,  avg # of iterations =  3.7

     total cpu time spent up to now is      111.7 secs

     total energy              =    -361.02987225 Ry
     estimated scf accuracy    <       0.00000141 Ry

     iteration # 16     ecut=    50.00 Ry     beta= 0.30
     Davidson diagonalization with overlap
     ethr =  3.92E-09,  avg # of iterations =  6.8

     total cpu time spent up to now is      121.1 secs

     total energy              =    -361.02987341 Ry
     estimated scf accuracy    <       0.00000170 Ry

     iteration # 17     ecut=    50.00 Ry     beta= 0.30
     Davidson diagonalization with overlap
     ethr =  3.92E-09,  avg # of iterations =  3.2

     total cpu time spent up to now is      126.5 secs

     total energy              =    -361.02987415 Ry
     estimated scf accuracy    <       0.00000189 Ry

     iteration # 18     ecut=    50.00 Ry     beta= 0.30
     Davidson diagonalization with overlap
     ethr =  3.92E-09,  avg # of iterations =  7.3

     total cpu time spent up to now is      137.3 secs

     total energy              =    -361.02987317 Ry
     estimated scf accuracy    <       0.00001067 Ry

     iteration # 19     ecut=    50.00 Ry     beta= 0.30
     Davidson diagonalization with overlap
     ethr =  3.92E-09,  avg # of iterations =  4.6

     total cpu time spent up to now is      144.1 secs

     total energy              =    -361.02987229 Ry
     estimated scf accuracy    <       0.00000331 Ry

     iteration # 20     ecut=    50.00 Ry     beta= 0.30
     Davidson diagonalization with overlap
     ethr =  3.92E-09,  avg # of iterations =  5.1

     total cpu time spent up to now is      152.0 secs

     total energy              =    -361.02987304 Ry
     estimated scf accuracy    <       0.00000006 Ry

     iteration # 21     ecut=    50.00 Ry     beta= 0.30
     Davidson diagonalization with overlap
     ethr =  1.61E-10,  avg # of iterations =  6.7

     total cpu time spent up to now is      161.4 secs

     total energy              =    -361.02987309 Ry
     estimated scf accuracy    <       0.00000008 Ry

     iteration # 22     ecut=    50.00 Ry     beta= 0.30
     Davidson diagonalization with overlap
     ethr =  1.61E-10,  avg # of iterations =  1.9

     total cpu time spent up to now is      165.7 secs

     total energy              =    -361.02987307 Ry
     estimated scf accuracy    <       0.00000003 Ry

     iteration # 23     ecut=    50.00 Ry     beta= 0.30
     Davidson diagonalization with overlap
     ethr =  8.58E-11,  avg # of iterations =  6.3

     total cpu time spent up to now is      175.2 secs

     total energy              =    -361.02987308 Ry
     estimated scf accuracy    <       0.00000003 Ry

     iteration # 24     ecut=    50.00 Ry     beta= 0.30
     Davidson diagonalization with overlap
     ethr =  8.58E-11,  avg # of iterations =  2.0

     total cpu time spent up to now is      179.8 secs

     End of self-consistent calculation

     Number of k-points >= 100: set verbosity='high' to print the bands.

     highest occupied level (ev):    10.1391

!    total energy              =    -361.02987308 Ry
     estimated scf accuracy    <          7.7E-09 Ry

     The total energy is the sum of the following terms:
     one-electron contribution =    -146.22581853 Ry
     hartree contribution      =     116.47017387 Ry
     xc contribution           =    -110.09534854 Ry
     ewald contribution        =    -221.17887989 Ry

     convergence has been achieved in  24 iterations

     Forces acting on atoms (cartesian axes, Ry/au):

     atom    1 type  1   force =     0.18146639   -0.72319909   -0.93231461
     atom    2 type  1   force =    -0.01992692    0.10251203   -0.36584786
     atom    3 type  2   force =    -0.30220777    0.63491089    1.06303982
     atom    4 type  2   force =     0.14066831   -0.01422384    0.23512265
     The non-local contrib.  to forces
     atom    1 type  1   force =     0.09059763   -0.77244007   -0.70333696
     atom    2 type  1   force =     0.10583364    0.51322294   -0.68527850
     atom    3 type  2   force =     0.41291782   -0.43118850    0.03559731
     atom    4 type  2   force =    -0.25091970    0.37949222   -0.60728758
     The ionic contribution  to forces
     atom    1 type  1   force =     0.98598940   -8.22430941   -9.01664863
     atom    2 type  1   force =     0.57148281    3.36245584   -3.71290032
     atom    3 type  2   force =    -5.09583542    6.86444716   10.41743138
     atom    4 type  2   force =     3.53836321   -2.00259360    2.31211757
     The local contribution  to forces
     atom    1 type  1   force =    -0.87638201    8.16902209    8.67246192
     atom    2 type  1   force =    -0.68845176   -3.72933078    3.96281238
     atom    3 type  2   force =     4.38278916   -5.79939588   -9.38475743
     atom    4 type  2   force =    -3.14798429    1.61221865   -1.47389739
     The core correction contribution to forces
     atom    1 type  1   force =    -0.01875493    0.10465534    0.11534744
     atom    2 type  1   force =    -0.00880329   -0.04389434    0.06949912
     atom    3 type  2   force =    -0.00207527    0.00103672   -0.00533006
     atom    4 type  2   force =     0.00120821   -0.00336076    0.00425602
     The Hubbard contrib.    to forces
     atom    1 type  1   force =     0.00000000    0.00000000    0.00000000
     atom    2 type  1   force =     0.00000000    0.00000000    0.00000000
     atom    3 type  2   force =     0.00000000    0.00000000    0.00000000
     atom    4 type  2   force =     0.00000000    0.00000000    0.00000000
     The SCF correction term to forces
     atom    1 type  1   force =     0.00001935   -0.00013715   -0.00015681
     atom    2 type  1   force =     0.00001473    0.00004827    0.00000103
     atom    3 type  2   force =    -0.00000101    0.00000128    0.00008019
     atom    4 type  2   force =     0.00000392    0.00000954   -0.00008439

     Total force =     1.808224     Total SCF correction =     0.000245

     Writing all to output data dir ./ZnO_ANN.save/

     init_run     :      3.08s CPU      3.15s WALL (       1 calls)
     electrons    :    172.63s CPU    176.17s WALL (       1 calls)
     forces       :      0.91s CPU      0.92s WALL (       1 calls)

     Called by init_run:
     wfcinit      :      2.21s CPU      2.26s WALL (       1 calls)
     potinit      :      0.24s CPU      0.24s WALL (       1 calls)
     hinit0       :      0.56s CPU      0.57s WALL (       1 calls)

     Called by electrons:
     c_bands      :    156.06s CPU    159.19s WALL (      24 calls)
     sum_band     :     14.90s CPU     15.27s WALL (      24 calls)
     v_of_rho     :      0.43s CPU      0.46s WALL (      25 calls)
     newd         :      1.20s CPU      1.22s WALL (      25 calls)
     mix_rho      :      0.06s CPU      0.06s WALL (      24 calls)

     Called by c_bands:
     init_us_2    :      1.01s CPU      1.02s WALL (    5600 calls)
     init_us_2:cp :      0.99s CPU      1.01s WALL (    5600 calls)
     cegterg      :    152.73s CPU    155.81s WALL (    2688 calls)

     Called by *egterg:
     cdiaghg      :     16.47s CPU     16.57s WALL (   15109 calls)
     h_psi        :     88.31s CPU     90.62s WALL (   15221 calls)
     s_psi        :      9.80s CPU      9.90s WALL (   15221 calls)
     g_psi        :      0.30s CPU      0.31s WALL (   12421 calls)

     Called by h_psi:
     h_psi:calbec :     11.94s CPU     12.37s WALL (   15221 calls)
     vloc_psi     :     66.25s CPU     68.04s WALL (   15221 calls)
     add_vuspsi   :      9.85s CPU      9.95s WALL (   15221 calls)

     General routines
     calbec       :     15.68s CPU     16.24s WALL (   18357 calls)
     fft          :      0.64s CPU      0.67s WALL (     334 calls)
     ffts         :      0.11s CPU      0.11s WALL (      49 calls)
     fftw         :     67.79s CPU     69.59s WALL (  397614 calls)
     interpolate  :      0.12s CPU      0.12s WALL (      25 calls)

     Parallel routines

     PWSCF        :   2m57.32s CPU   3m 1.07s WALL


   This run was terminated on:  13:43:24  23Jun2025            

=------------------------------------------------------------------------------=
   JOB DONE.
=------------------------------------------------------------------------------=
Note: The following floating-point exceptions are signalling: IEEE_INVALID_FLAG
