
     Program PWSCF v.7.2 starts on 23Jun2025 at 12:39:11 

     This program is part of the open-source Quantum ESPRESSO suite
     for quantum simulation of materials; please cite
         "P. Giannozzi et al., J. Phys.:Condens. Matter 21 395502 (2009);
         "P. Giannozzi et al., J. Phys.:Condens. Matter 29 465901 (2017);
         "P. Giannozzi et al., J. Chem. Phys. 152 154105 (2020);
          URL http://www.quantum-espresso.org", 
     in publications or presentations arising from this work. More details at
     http://www.quantum-espresso.org/quote

     Parallel version (MPI), running on     8 processors

     MPI processes distributed on     1 nodes
     91394 MiB available memory on the printing compute node when the environment starts

     Reading input from /home/jvc/QEspresso7.2/ZnO_DataBase/scfs_rnd025.in/scf-5.81-1.52-1.in

     Current dimensions of program PWSCF are:
     Max number of different atomic species (ntypx) = 10
     Max number of k-points (npk) =  40000
     Max angular momentum in pseudopotentials (lmaxx) =  4
     file Zn.upf: wavefunction(s)  3D renormalized

     R & G space division:  proc/nbgrp/npool/nimage =       8
     Subspace diagonalization in iterative solution of the eigenvalue problem:
     a serial algorithm will be used


     Parallelization info
     --------------------
     sticks:   dense  smooth     PW     G-vecs:    dense   smooth      PW
     Min         116      57     18                 4356     1532     268
     Max         118      58     19                 4358     1534     271
     Sum         931     463    151                34851    12261    2153

     Using Slab Decomposition



     bravais-lattice index     =            4
     lattice parameter (alat)  =       5.8081  a.u.
     unit-cell volume          =     257.4891 (a.u.)^3
     number of atoms/cell      =            4
     number of atomic types    =            2
     number of electrons       =        36.00
     number of Kohn-Sham states=           18
     kinetic-energy cutoff     =      50.0000  Ry
     charge density cutoff     =     400.0000  Ry
     scf convergence threshold =      1.0E-08
     mixing beta               =       0.3000
     number of iterations used =            8  plain     mixing
     Exchange-correlation= PBE
                           (   1   4   3   4   0   0   0)

     celldm(1)=   5.808092  celldm(2)=   0.000000  celldm(3)=   1.517497
     celldm(4)=   0.000000  celldm(5)=   0.000000  celldm(6)=   0.000000

     crystal axes: (cart. coord. in units of alat)
               a(1) = (   1.000000   0.000000   0.000000 )  
               a(2) = (  -0.500000   0.866025   0.000000 )  
               a(3) = (   0.000000   0.000000   1.517497 )  

     reciprocal axes: (cart. coord. in units 2 pi/alat)
               b(1) = (  1.000000  0.577350 -0.000000 )  
               b(2) = (  0.000000  1.154701  0.000000 )  
               b(3) = (  0.000000 -0.000000  0.658980 )  


     PseudoPot. # 1 for Zn read from file:
     ./pseudos/Zn.upf
     MD5 check sum: 7f56cabf9682ed8c977c2f7d0c5985c5
     Pseudo is Ultrasoft + core correction, Zval = 12.0
     Generated using &quot;atomic&quot; code by A. Dal Corso  v.6.2.2
     Using radial grid of 1201 points,  6 beta functions with: 
                l(1) =   0
                l(2) =   0
                l(3) =   1
                l(4) =   1
                l(5) =   2
                l(6) =   2
     Q(r) pseudized with 0 coefficients 


     PseudoPot. # 2 for O  read from file:
     ./pseudos/O.upf
     MD5 check sum: 91400c9766925bcf19f520983a725ff0
     Pseudo is Ultrasoft + core correction, Zval =  6.0
     Generated using &quot;atomic&quot; code by A. Dal Corso  v.6.3MaX
     Using radial grid of 1095 points,  4 beta functions with: 
                l(1) =   0
                l(2) =   0
                l(3) =   1
                l(4) =   1
     Q(r) pseudized with 0 coefficients 


     atomic species   valence    mass     pseudopotential
        Zn            12.00    63.38000     Zn( 1.00)
        O              6.00    15.99900     O ( 1.00)

     No symmetry found



   Cartesian axes

     site n.     atom                  positions (alat units)
         1           Zn  tau(   1) = (   0.6113849   0.4222373   0.5341488  )
         2           Zn  tau(   2) = (   0.0219448   0.7714212   0.0030391  )
         3           O   tau(   3) = (   0.3284718   0.4335047   1.3574041  )
         4           O   tau(   4) = (   0.0764892   0.6764377   0.3078801  )

     number of k points=   112

     Number of k-points >= 100: set verbosity='high' to print them.

     Dense  grid:    34851 G-vectors     FFT dimensions: (  40,  40,  60)

     Smooth grid:    12261 G-vectors     FFT dimensions: (  27,  27,  40)

     Estimated max dynamical RAM per process >      24.80 MB

     Estimated total dynamical RAM >     198.37 MB

     Check: negative core charge=   -0.000002

     Initial potential from superposition of free atoms

     starting charge      35.9925, renormalised to      36.0000
     Starting wfcs are   26 randomized atomic wfcs

     total cpu time spent up to now is        3.5 secs

     Self-consistent Calculation

     iteration #  1     ecut=    50.00 Ry     beta= 0.30
     Davidson diagonalization with overlap
     ethr =  1.00E-02,  avg # of iterations =  4.0

     total cpu time spent up to now is        9.1 secs

     total energy              =    -357.71998324 Ry
     estimated scf accuracy    <       1.26894349 Ry

     iteration #  2     ecut=    50.00 Ry     beta= 0.30
     Davidson diagonalization with overlap
     ethr =  3.52E-03,  avg # of iterations =  2.4

     total cpu time spent up to now is       14.0 secs

     total energy              =    -357.69410508 Ry
     estimated scf accuracy    <       0.29878485 Ry

     iteration #  3     ecut=    50.00 Ry     beta= 0.30
     Davidson diagonalization with overlap
     ethr =  8.30E-04,  avg # of iterations =  8.3

     total cpu time spent up to now is       23.8 secs

     total energy              =    -357.99039273 Ry
     estimated scf accuracy    <       0.47191516 Ry

     iteration #  4     ecut=    50.00 Ry     beta= 0.30
     Davidson diagonalization with overlap
     ethr =  8.30E-04,  avg # of iterations =  1.3

     total cpu time spent up to now is       27.8 secs

     total energy              =    -357.77684688 Ry
     estimated scf accuracy    <       0.29786020 Ry

     iteration #  5     ecut=    50.00 Ry     beta= 0.30
     Davidson diagonalization with overlap
     ethr =  8.27E-04,  avg # of iterations = 10.2

     total cpu time spent up to now is       38.3 secs

     total energy              =    -358.09801747 Ry
     estimated scf accuracy    <       0.65609598 Ry

     iteration #  6     ecut=    50.00 Ry     beta= 0.30
     Davidson diagonalization with overlap
     ethr =  8.27E-04,  avg # of iterations =  1.0

     total cpu time spent up to now is       42.1 secs

     total energy              =    -357.85009182 Ry
     estimated scf accuracy    <       0.60550649 Ry

     iteration #  7     ecut=    50.00 Ry     beta= 0.30
     Davidson diagonalization with overlap
     ethr =  8.27E-04,  avg # of iterations =  6.5

     total cpu time spent up to now is       48.1 secs

     total energy              =    -357.94810416 Ry
     estimated scf accuracy    <       0.00996245 Ry

     iteration #  8     ecut=    50.00 Ry     beta= 0.30
     Davidson diagonalization with overlap
     ethr =  2.77E-05,  avg # of iterations =  7.2

     total cpu time spent up to now is       56.3 secs

     total energy              =    -357.96042740 Ry
     estimated scf accuracy    <       0.00334346 Ry

     iteration #  9     ecut=    50.00 Ry     beta= 0.30
     Davidson diagonalization with overlap
     ethr =  9.29E-06,  avg # of iterations =  9.0

     total cpu time spent up to now is       63.9 secs

     total energy              =    -357.95838976 Ry
     estimated scf accuracy    <       0.02312181 Ry

     iteration # 10     ecut=    50.00 Ry     beta= 0.30
     Davidson diagonalization with overlap
     ethr =  9.29E-06,  avg # of iterations =  6.7

     total cpu time spent up to now is       69.5 secs

     total energy              =    -357.95596809 Ry
     estimated scf accuracy    <       0.00824736 Ry

     iteration # 11     ecut=    50.00 Ry     beta= 0.30
     Davidson diagonalization with overlap
     ethr =  9.29E-06,  avg # of iterations =  7.3

     total cpu time spent up to now is       76.7 secs

     total energy              =    -357.95784829 Ry
     estimated scf accuracy    <       0.00004970 Ry

     iteration # 12     ecut=    50.00 Ry     beta= 0.30
     Davidson diagonalization with overlap
     c_bands:  1 eigenvalues not converged
     c_bands:  1 eigenvalues not converged
     c_bands:  1 eigenvalues not converged
     c_bands:  1 eigenvalues not converged
     ethr =  1.38E-07,  avg # of iterations = 11.8

     total cpu time spent up to now is       87.8 secs

     total energy              =    -357.95795400 Ry
     estimated scf accuracy    <       0.00006712 Ry

     iteration # 13     ecut=    50.00 Ry     beta= 0.30
     Davidson diagonalization with overlap
     ethr =  1.38E-07,  avg # of iterations =  7.4

     total cpu time spent up to now is       93.7 secs

     total energy              =    -357.95796217 Ry
     estimated scf accuracy    <       0.00001945 Ry

     iteration # 14     ecut=    50.00 Ry     beta= 0.30
     Davidson diagonalization with overlap
     ethr =  5.40E-08,  avg # of iterations =  8.1

     total cpu time spent up to now is      101.5 secs

     total energy              =    -357.95797090 Ry
     estimated scf accuracy    <       0.00003312 Ry

     iteration # 15     ecut=    50.00 Ry     beta= 0.30
     Davidson diagonalization with overlap
     ethr =  5.40E-08,  avg # of iterations =  1.1

     total cpu time spent up to now is      105.4 secs

     total energy              =    -357.95795938 Ry
     estimated scf accuracy    <       0.00002509 Ry

     iteration # 16     ecut=    50.00 Ry     beta= 0.30
     Davidson diagonalization with overlap
     ethr =  5.40E-08,  avg # of iterations =  6.1

     total cpu time spent up to now is      112.4 secs

     total energy              =    -357.95796737 Ry
     estimated scf accuracy    <       0.00000360 Ry

     iteration # 17     ecut=    50.00 Ry     beta= 0.30
     Davidson diagonalization with overlap
     ethr =  1.00E-08,  avg # of iterations =  5.4

     total cpu time spent up to now is      117.5 secs

     total energy              =    -357.95796732 Ry
     estimated scf accuracy    <       0.00000298 Ry

     iteration # 18     ecut=    50.00 Ry     beta= 0.30
     Davidson diagonalization with overlap
     ethr =  8.27E-09,  avg # of iterations =  2.0

     total cpu time spent up to now is      121.9 secs

     total energy              =    -357.95796705 Ry
     estimated scf accuracy    <       0.00000129 Ry

     iteration # 19     ecut=    50.00 Ry     beta= 0.30
     Davidson diagonalization with overlap
     ethr =  3.59E-09,  avg # of iterations =  6.7

     total cpu time spent up to now is      128.2 secs

     total energy              =    -357.95796752 Ry
     estimated scf accuracy    <       0.00000005 Ry

     iteration # 20     ecut=    50.00 Ry     beta= 0.30
     Davidson diagonalization with overlap
     c_bands:  1 eigenvalues not converged
     ethr =  1.35E-10,  avg # of iterations =  7.7

     total cpu time spent up to now is      137.0 secs

     total energy              =    -357.95796751 Ry
     estimated scf accuracy    <       0.00000019 Ry

     iteration # 21     ecut=    50.00 Ry     beta= 0.30
     Davidson diagonalization with overlap
     ethr =  1.35E-10,  avg # of iterations =  6.6

     total cpu time spent up to now is      143.3 secs

     total energy              =    -357.95796752 Ry
     estimated scf accuracy    <       0.00000002 Ry

     iteration # 22     ecut=    50.00 Ry     beta= 0.30
     Davidson diagonalization with overlap
     ethr =  4.66E-11,  avg # of iterations =  8.6

     total cpu time spent up to now is      152.0 secs

     total energy              =    -357.95796753 Ry
     estimated scf accuracy    <       0.00000001 Ry

     iteration # 23     ecut=    50.00 Ry     beta= 0.30
     Davidson diagonalization with overlap
     ethr =  3.55E-11,  avg # of iterations =  2.3

     total cpu time spent up to now is      156.5 secs

     End of self-consistent calculation

     Number of k-points >= 100: set verbosity='high' to print the bands.

     highest occupied level (ev):    13.9761

!    total energy              =    -357.95796753 Ry
     estimated scf accuracy    <          2.7E-09 Ry

     The total energy is the sum of the following terms:
     one-electron contribution =    -201.74416626 Ry
     hartree contribution      =     143.99885701 Ry
     xc contribution           =    -111.17334074 Ry
     ewald contribution        =    -189.03931754 Ry

     convergence has been achieved in  23 iterations

     Forces acting on atoms (cartesian axes, Ry/au):

     atom    1 type  1   force =    -0.08144002   -0.03020561    0.30156391
     atom    2 type  1   force =    -1.75077681    2.80651232   -7.73761432
     atom    3 type  2   force =     0.48692656   -0.46375644   -0.53302184
     atom    4 type  2   force =     1.34529027   -2.31255028    7.96907225
     The non-local contrib.  to forces
     atom    1 type  1   force =    -0.05694754   -0.10647883   -0.37469766
     atom    2 type  1   force =    -0.10857683   -0.05646607    0.95130489
     atom    3 type  2   force =    -0.10608941   -0.06639541    0.29704516
     atom    4 type  2   force =    -0.50924361    0.30008268    0.36308569
     The ionic contribution  to forces
     atom    1 type  1   force =    -1.04495643   -0.57365309   28.44300751
     atom    2 type  1   force =    -9.79700611   12.94497548  -44.99332284
     atom    3 type  2   force =     4.69424973   -4.24334870  -18.11335591
     atom    4 type  2   force =     6.14771282   -8.12797369   34.66367124
     The local contribution  to forces
     atom    1 type  1   force =     1.00523075    0.64018519  -27.73737469
     atom    2 type  1   force =     8.03016980   -9.91101876   35.86997947
     atom    3 type  2   force =    -4.09959736    3.84282901   17.28238111
     atom    4 type  2   force =    -4.29412942    5.51247717  -27.03339992
     The core correction contribution to forces
     atom    1 type  1   force =     0.01523547    0.00972153   -0.02921169
     atom    2 type  1   force =     0.12458435   -0.17090876    0.43424729
     atom    3 type  2   force =    -0.00160643    0.00313376    0.00083827
     atom    4 type  2   force =     0.00095453    0.00285074   -0.02417536
     The Hubbard contrib.    to forces
     atom    1 type  1   force =     0.00000000    0.00000000    0.00000000
     atom    2 type  1   force =     0.00000000    0.00000000    0.00000000
     atom    3 type  2   force =     0.00000000    0.00000000    0.00000000
     atom    4 type  2   force =     0.00000000    0.00000000    0.00000000
     The SCF correction term to forces
     atom    1 type  1   force =     0.00000555    0.00000908   -0.00014818
     atom    2 type  1   force =     0.00005979   -0.00008008    0.00018824
     atom    3 type  2   force =    -0.00002215    0.00001437    0.00008090
     atom    4 type  2   force =     0.00000376    0.00000230   -0.00009802

     Total force =    11.929417     Total SCF correction =     0.000290

     Writing all to output data dir ./ZnO_ANN.save/

     init_run     :      2.98s CPU      3.06s WALL (       1 calls)
     electrons    :    149.92s CPU    152.95s WALL (       1 calls)
     forces       :      0.85s CPU      0.86s WALL (       1 calls)

     Called by init_run:
     wfcinit      :      2.17s CPU      2.21s WALL (       1 calls)
     potinit      :      0.22s CPU      0.22s WALL (       1 calls)
     hinit0       :      0.53s CPU      0.55s WALL (       1 calls)

     Called by electrons:
     c_bands      :    134.71s CPU    137.36s WALL (      23 calls)
     sum_band     :     13.79s CPU     14.13s WALL (      23 calls)
     v_of_rho     :      0.32s CPU      0.34s WALL (      24 calls)
     newd         :      1.07s CPU      1.10s WALL (      24 calls)
     mix_rho      :      0.05s CPU      0.06s WALL (      23 calls)

     Called by c_bands:
     init_us_2    :      0.88s CPU      0.90s WALL (    5376 calls)
     init_us_2:cp :      0.87s CPU      0.88s WALL (    5376 calls)
     cegterg      :    131.74s CPU    134.34s WALL (    2576 calls)

     Called by *egterg:
     cdiaghg      :     19.05s CPU     19.26s WALL (   18005 calls)
     h_psi        :     74.80s CPU     76.65s WALL (   18117 calls)
     s_psi        :      7.54s CPU      7.63s WALL (   18117 calls)
     g_psi        :      0.24s CPU      0.25s WALL (   15429 calls)

     Called by h_psi:
     h_psi:calbec :      9.82s CPU     10.19s WALL (   18117 calls)
     vloc_psi     :     57.19s CPU     58.58s WALL (   18117 calls)
     add_vuspsi   :      7.52s CPU      7.62s WALL (   18117 calls)

     General routines
     calbec       :     13.13s CPU     13.60s WALL (   21141 calls)
     fft          :      0.54s CPU      0.58s WALL (     321 calls)
     ffts         :      0.11s CPU      0.11s WALL (      47 calls)
     fftw         :     59.17s CPU     60.60s WALL (  353332 calls)
     interpolate  :      0.12s CPU      0.12s WALL (      24 calls)

     Parallel routines

     PWSCF        :   2m34.45s CPU   2m37.73s WALL


   This run was terminated on:  12:41:49  23Jun2025            

=------------------------------------------------------------------------------=
   JOB DONE.
=------------------------------------------------------------------------------=
Note: The following floating-point exceptions are signalling: IEEE_INVALID_FLAG
