
     Program PWSCF v.7.2 starts on 23Jun2025 at 13: 8:48 

     This program is part of the open-source Quantum ESPRESSO suite
     for quantum simulation of materials; please cite
         "P. Giannozzi et al., J. Phys.:Condens. Matter 21 395502 (2009);
         "P. Giannozzi et al., J. Phys.:Condens. Matter 29 465901 (2017);
         "P. Giannozzi et al., J. Chem. Phys. 152 154105 (2020);
          URL http://www.quantum-espresso.org", 
     in publications or presentations arising from this work. More details at
     http://www.quantum-espresso.org/quote

     Parallel version (MPI), running on     8 processors

     MPI processes distributed on     1 nodes
     91294 MiB available memory on the printing compute node when the environment starts

     Reading input from /home/jvc/QEspresso7.2/ZnO_DataBase/scfs_rnd025.in/scf-5.93-1.49-2.in

     Current dimensions of program PWSCF are:
     Max number of different atomic species (ntypx) = 10
     Max number of k-points (npk) =  40000
     Max angular momentum in pseudopotentials (lmaxx) =  4
     file Zn.upf: wavefunction(s)  3D renormalized

     R & G space division:  proc/nbgrp/npool/nimage =       8
     Subspace diagonalization in iterative solution of the eigenvalue problem:
     a serial algorithm will be used


     Parallelization info
     --------------------
     sticks:   dense  smooth     PW     G-vecs:    dense   smooth      PW
     Min         119      62     18                 4513     1608     276
     Max         120      63     19                 4522     1610     279
     Sum         955     499    151                36135    12873    2225

     Using Slab Decomposition



     bravais-lattice index     =            4
     lattice parameter (alat)  =       5.9317  a.u.
     unit-cell volume          =     268.4411 (a.u.)^3
     number of atoms/cell      =            4
     number of atomic types    =            2
     number of electrons       =        36.00
     number of Kohn-Sham states=           18
     kinetic-energy cutoff     =      50.0000  Ry
     charge density cutoff     =     400.0000  Ry
     scf convergence threshold =      1.0E-08
     mixing beta               =       0.3000
     number of iterations used =            8  plain     mixing
     Exchange-correlation= PBE
                           (   1   4   3   4   0   0   0)

     celldm(1)=   5.931669  celldm(2)=   0.000000  celldm(3)=   1.485210
     celldm(4)=   0.000000  celldm(5)=   0.000000  celldm(6)=   0.000000

     crystal axes: (cart. coord. in units of alat)
               a(1) = (   1.000000   0.000000   0.000000 )  
               a(2) = (  -0.500000   0.866025   0.000000 )  
               a(3) = (   0.000000   0.000000   1.485210 )  

     reciprocal axes: (cart. coord. in units 2 pi/alat)
               b(1) = (  1.000000  0.577350 -0.000000 )  
               b(2) = (  0.000000  1.154701  0.000000 )  
               b(3) = (  0.000000 -0.000000  0.673306 )  


     PseudoPot. # 1 for Zn read from file:
     ./pseudos/Zn.upf
     MD5 check sum: 7f56cabf9682ed8c977c2f7d0c5985c5
     Pseudo is Ultrasoft + core correction, Zval = 12.0
     Generated using &quot;atomic&quot; code by A. Dal Corso  v.6.2.2
     Using radial grid of 1201 points,  6 beta functions with: 
                l(1) =   0
                l(2) =   0
                l(3) =   1
                l(4) =   1
                l(5) =   2
                l(6) =   2
     Q(r) pseudized with 0 coefficients 


     PseudoPot. # 2 for O  read from file:
     ./pseudos/O.upf
     MD5 check sum: 91400c9766925bcf19f520983a725ff0
     Pseudo is Ultrasoft + core correction, Zval =  6.0
     Generated using &quot;atomic&quot; code by A. Dal Corso  v.6.3MaX
     Using radial grid of 1095 points,  4 beta functions with: 
                l(1) =   0
                l(2) =   0
                l(3) =   1
                l(4) =   1
     Q(r) pseudized with 0 coefficients 


     atomic species   valence    mass     pseudopotential
        Zn            12.00    63.38000     Zn( 1.00)
        O              6.00    15.99900     O ( 1.00)

     No symmetry found



   Cartesian axes

     site n.     atom                  positions (alat units)
         1           Zn  tau(   1) = (   0.4136281   0.5009827   0.5580493  )
         2           Zn  tau(   2) = (  -0.1720859   0.6319959  -0.3665216  )
         3           O   tau(   3) = (   0.4177190   0.3142528   1.0459320  )
         4           O   tau(   4) = (   0.1370036   0.7648111   0.2961578  )

     number of k points=   112

     Number of k-points >= 100: set verbosity='high' to print them.

     Dense  grid:    36135 G-vectors     FFT dimensions: (  40,  40,  60)

     Smooth grid:    12873 G-vectors     FFT dimensions: (  27,  27,  40)

     Estimated max dynamical RAM per process >      25.58 MB

     Estimated total dynamical RAM >     204.64 MB

     Check: negative core charge=   -0.000002

     Initial potential from superposition of free atoms

     starting charge      35.9925, renormalised to      36.0000
     Starting wfcs are   26 randomized atomic wfcs

     total cpu time spent up to now is        3.5 secs

     Self-consistent Calculation

     iteration #  1     ecut=    50.00 Ry     beta= 0.30
     Davidson diagonalization with overlap
     ethr =  1.00E-02,  avg # of iterations =  2.0

     total cpu time spent up to now is        8.0 secs

     total energy              =    -360.93382518 Ry
     estimated scf accuracy    <       0.89606406 Ry

     iteration #  2     ecut=    50.00 Ry     beta= 0.30
     Davidson diagonalization with overlap
     ethr =  2.49E-03,  avg # of iterations =  2.0

     total cpu time spent up to now is       13.3 secs

     total energy              =    -361.03076159 Ry
     estimated scf accuracy    <       0.13768397 Ry

     iteration #  3     ecut=    50.00 Ry     beta= 0.30
     Davidson diagonalization with overlap
     ethr =  3.82E-04,  avg # of iterations =  6.5

     total cpu time spent up to now is       22.6 secs

     total energy              =    -361.10991864 Ry
     estimated scf accuracy    <       0.08964610 Ry

     iteration #  4     ecut=    50.00 Ry     beta= 0.30
     Davidson diagonalization with overlap
     ethr =  2.49E-04,  avg # of iterations =  3.5

     total cpu time spent up to now is       27.9 secs

     total energy              =    -361.12293283 Ry
     estimated scf accuracy    <       0.00758247 Ry

     iteration #  5     ecut=    50.00 Ry     beta= 0.30
     Davidson diagonalization with overlap
     ethr =  2.11E-05,  avg # of iterations =  8.3

     total cpu time spent up to now is       41.5 secs

     total energy              =    -361.11790837 Ry
     estimated scf accuracy    <       0.07064010 Ry

     iteration #  6     ecut=    50.00 Ry     beta= 0.30
     Davidson diagonalization with overlap
     ethr =  2.11E-05,  avg # of iterations =  7.2

     total cpu time spent up to now is       53.0 secs

     total energy              =    -361.13159343 Ry
     estimated scf accuracy    <       0.00038100 Ry

     iteration #  7     ecut=    50.00 Ry     beta= 0.30
     Davidson diagonalization with overlap
     ethr =  1.06E-06,  avg # of iterations =  6.4

     total cpu time spent up to now is       60.6 secs

     total energy              =    -361.13165592 Ry
     estimated scf accuracy    <       0.00025281 Ry

     iteration #  8     ecut=    50.00 Ry     beta= 0.30
     Davidson diagonalization with overlap
     ethr =  7.02E-07,  avg # of iterations =  7.8

     total cpu time spent up to now is       72.6 secs

     total energy              =    -361.13128887 Ry
     estimated scf accuracy    <       0.00155780 Ry

     iteration #  9     ecut=    50.00 Ry     beta= 0.30
     Davidson diagonalization with overlap
     ethr =  7.02E-07,  avg # of iterations =  7.4

     total cpu time spent up to now is       84.6 secs

     total energy              =    -361.13170320 Ry
     estimated scf accuracy    <       0.00016540 Ry

     iteration # 10     ecut=    50.00 Ry     beta= 0.30
     Davidson diagonalization with overlap
     ethr =  4.59E-07,  avg # of iterations =  4.4

     total cpu time spent up to now is       90.9 secs

     total energy              =    -361.13175199 Ry
     estimated scf accuracy    <       0.00000552 Ry

     iteration # 11     ecut=    50.00 Ry     beta= 0.30
     Davidson diagonalization with overlap
     ethr =  1.53E-08,  avg # of iterations =  6.3

     total cpu time spent up to now is      100.0 secs

     total energy              =    -361.13175327 Ry
     estimated scf accuracy    <       0.00001522 Ry

     iteration # 12     ecut=    50.00 Ry     beta= 0.30
     Davidson diagonalization with overlap
     ethr =  1.53E-08,  avg # of iterations =  4.7

     total cpu time spent up to now is      106.2 secs

     total energy              =    -361.13175417 Ry
     estimated scf accuracy    <       0.00000172 Ry

     iteration # 13     ecut=    50.00 Ry     beta= 0.30
     Davidson diagonalization with overlap
     ethr =  4.77E-09,  avg # of iterations =  4.7

     total cpu time spent up to now is      112.8 secs

     total energy              =    -361.13175496 Ry
     estimated scf accuracy    <       0.00000002 Ry

     iteration # 14     ecut=    50.00 Ry     beta= 0.30
     Davidson diagonalization with overlap
     ethr =  5.08E-11,  avg # of iterations =  8.5

     total cpu time spent up to now is      124.8 secs

     total energy              =    -361.13175501 Ry
     estimated scf accuracy    <       0.00000007 Ry

     iteration # 15     ecut=    50.00 Ry     beta= 0.30
     Davidson diagonalization with overlap
     ethr =  5.08E-11,  avg # of iterations =  5.1

     total cpu time spent up to now is      132.6 secs

     End of self-consistent calculation

     Number of k-points >= 100: set verbosity='high' to print the bands.

     highest occupied level (ev):    10.6293

!    total energy              =    -361.13175502 Ry
     estimated scf accuracy    <          3.1E-09 Ry

     The total energy is the sum of the following terms:
     one-electron contribution =    -148.71611045 Ry
     hartree contribution      =     118.06930979 Ry
     xc contribution           =    -110.11384055 Ry
     ewald contribution        =    -220.37111381 Ry

     convergence has been achieved in  15 iterations

     Forces acting on atoms (cartesian axes, Ry/au):

     atom    1 type  1   force =     0.36201470   -0.34079549    0.02755802
     atom    2 type  1   force =     0.21658286    0.06981171    0.19964058
     atom    3 type  2   force =    -0.13761192   -0.14863870    0.20906182
     atom    4 type  2   force =    -0.44098563    0.41962249   -0.43626042
     The non-local contrib.  to forces
     atom    1 type  1   force =     0.72142064   -0.33501445    0.44113443
     atom    2 type  1   force =     0.25313917   -0.07168538   -0.09577788
     atom    3 type  2   force =     0.38073568    0.18293134   -0.58973165
     atom    4 type  2   force =     0.39941527   -0.44191481    0.55088645
     The ionic contribution  to forces
     atom    1 type  1   force =     4.54052340   -3.16296335  -12.33329283
     atom    2 type  1   force =     3.83872932    0.42341022   13.73239824
     atom    3 type  2   force =    -3.08955649   -3.04120600    8.92041252
     atom    4 type  2   force =    -5.28969623    5.78075913  -10.31951793
     The local contribution  to forces
     atom    1 type  1   force =    -4.81212105    3.11115434   11.92339250
     atom    2 type  1   force =    -3.83532013   -0.28125233  -13.41669845
     atom    3 type  2   force =     2.57388674    2.71043082   -8.12543203
     atom    4 type  2   force =     4.45058953   -4.92094375    9.33472620
     The core correction contribution to forces
     atom    1 type  1   force =    -0.08778808    0.04603320   -0.00363611
     atom    2 type  1   force =    -0.03994034   -0.00067122   -0.02032554
     atom    3 type  2   force =    -0.00268087   -0.00079349    0.00379223
     atom    4 type  2   force =    -0.00129962    0.00171955   -0.00233039
     The Hubbard contrib.    to forces
     atom    1 type  1   force =     0.00000000    0.00000000    0.00000000
     atom    2 type  1   force =     0.00000000    0.00000000    0.00000000
     atom    3 type  2   force =     0.00000000    0.00000000    0.00000000
     atom    4 type  2   force =     0.00000000    0.00000000    0.00000000
     The SCF correction term to forces
     atom    1 type  1   force =    -0.00002333   -0.00000511   -0.00003895
     atom    2 type  1   force =    -0.00002828    0.00001053    0.00004523
     atom    3 type  2   force =    -0.00000010   -0.00000125    0.00002178
     atom    4 type  2   force =     0.00000229    0.00000248   -0.00002373

     Total force =     0.992575     Total SCF correction =     0.000078

     Writing all to output data dir ./ZnO_ANN.save/

     init_run     :      2.98s CPU      3.05s WALL (       1 calls)
     electrons    :    126.32s CPU    129.14s WALL (       1 calls)
     forces       :      0.87s CPU      0.88s WALL (       1 calls)

     Called by init_run:
     wfcinit      :      2.18s CPU      2.22s WALL (       1 calls)
     potinit      :      0.22s CPU      0.22s WALL (       1 calls)
     hinit0       :      0.52s CPU      0.53s WALL (       1 calls)

     Called by electrons:
     c_bands      :    116.20s CPU    118.75s WALL (      15 calls)
     sum_band     :      9.18s CPU      9.43s WALL (      15 calls)
     v_of_rho     :      0.21s CPU      0.23s WALL (      16 calls)
     newd         :      0.72s CPU      0.74s WALL (      16 calls)
     mix_rho      :      0.03s CPU      0.04s WALL (      15 calls)

     Called by c_bands:
     init_us_2    :      0.68s CPU      0.69s WALL (    3584 calls)
     init_us_2:cp :      0.67s CPU      0.68s WALL (    3584 calls)
     cegterg      :    114.19s CPU    116.69s WALL (    1680 calls)

     Called by *egterg:
     cdiaghg      :     13.50s CPU     13.61s WALL (   11194 calls)
     h_psi        :     66.27s CPU     68.15s WALL (   11306 calls)
     s_psi        :      8.35s CPU      8.43s WALL (   11306 calls)
     g_psi        :      0.24s CPU      0.24s WALL (    9514 calls)

     Called by h_psi:
     h_psi:calbec :      8.59s CPU      8.96s WALL (   11306 calls)
     vloc_psi     :     49.10s CPU     50.51s WALL (   11306 calls)
     add_vuspsi   :      8.36s CPU      8.46s WALL (   11306 calls)

     General routines
     calbec       :     11.00s CPU     11.46s WALL (   13434 calls)
     fft          :      0.36s CPU      0.38s WALL (     217 calls)
     ffts         :      0.10s CPU      0.10s WALL (      31 calls)
     fftw         :     48.33s CPU     49.72s WALL (  291284 calls)
     interpolate  :      0.11s CPU      0.11s WALL (      16 calls)

     Parallel routines

     PWSCF        :   2m10.88s CPU   2m13.95s WALL


   This run was terminated on:  13:11: 2  23Jun2025            

=------------------------------------------------------------------------------=
   JOB DONE.
=------------------------------------------------------------------------------=
Note: The following floating-point exceptions are signalling: IEEE_INVALID_FLAG
