
     Program PWSCF v.7.2 starts on 23Jun2025 at 12:41: 4 

     This program is part of the open-source Quantum ESPRESSO suite
     for quantum simulation of materials; please cite
         "P. Giannozzi et al., J. Phys.:Condens. Matter 21 395502 (2009);
         "P. Giannozzi et al., J. Phys.:Condens. Matter 29 465901 (2017);
         "P. Giannozzi et al., J. Chem. Phys. 152 154105 (2020);
          URL http://www.quantum-espresso.org", 
     in publications or presentations arising from this work. More details at
     http://www.quantum-espresso.org/quote

     Parallel version (MPI), running on     8 processors

     MPI processes distributed on     1 nodes
     91273 MiB available memory on the printing compute node when the environment starts

     Reading input from /home/jvc/QEspresso7.2/ZnO_DataBase/scfs_rnd025.in/scf-5.81-1.55-1.in

     Current dimensions of program PWSCF are:
     Max number of different atomic species (ntypx) = 10
     Max number of k-points (npk) =  40000
     Max angular momentum in pseudopotentials (lmaxx) =  4
     file Zn.upf: wavefunction(s)  3D renormalized

     R & G space division:  proc/nbgrp/npool/nimage =       8
     Subspace diagonalization in iterative solution of the eigenvalue problem:
     a serial algorithm will be used


     Parallelization info
     --------------------
     sticks:   dense  smooth     PW     G-vecs:    dense   smooth      PW
     Min         116      57     18                 4446     1554     273
     Max         118      58     19                 4448     1556     275
     Sum         931     463    151                35571    12443    2189

     Using Slab Decomposition



     bravais-lattice index     =            4
     lattice parameter (alat)  =       5.8081  a.u.
     unit-cell volume          =     262.9676 (a.u.)^3
     number of atoms/cell      =            4
     number of atomic types    =            2
     number of electrons       =        36.00
     number of Kohn-Sham states=           18
     kinetic-energy cutoff     =      50.0000  Ry
     charge density cutoff     =     400.0000  Ry
     scf convergence threshold =      1.0E-08
     mixing beta               =       0.3000
     number of iterations used =            8  plain     mixing
     Exchange-correlation= PBE
                           (   1   4   3   4   0   0   0)

     celldm(1)=   5.808092  celldm(2)=   0.000000  celldm(3)=   1.549784
     celldm(4)=   0.000000  celldm(5)=   0.000000  celldm(6)=   0.000000

     crystal axes: (cart. coord. in units of alat)
               a(1) = (   1.000000   0.000000   0.000000 )  
               a(2) = (  -0.500000   0.866025   0.000000 )  
               a(3) = (   0.000000   0.000000   1.549784 )  

     reciprocal axes: (cart. coord. in units 2 pi/alat)
               b(1) = (  1.000000  0.577350 -0.000000 )  
               b(2) = (  0.000000  1.154701  0.000000 )  
               b(3) = (  0.000000 -0.000000  0.645251 )  


     PseudoPot. # 1 for Zn read from file:
     ./pseudos/Zn.upf
     MD5 check sum: 7f56cabf9682ed8c977c2f7d0c5985c5
     Pseudo is Ultrasoft + core correction, Zval = 12.0
     Generated using &quot;atomic&quot; code by A. Dal Corso  v.6.2.2
     Using radial grid of 1201 points,  6 beta functions with: 
                l(1) =   0
                l(2) =   0
                l(3) =   1
                l(4) =   1
                l(5) =   2
                l(6) =   2
     Q(r) pseudized with 0 coefficients 


     PseudoPot. # 2 for O  read from file:
     ./pseudos/O.upf
     MD5 check sum: 91400c9766925bcf19f520983a725ff0
     Pseudo is Ultrasoft + core correction, Zval =  6.0
     Generated using &quot;atomic&quot; code by A. Dal Corso  v.6.3MaX
     Using radial grid of 1095 points,  4 beta functions with: 
                l(1) =   0
                l(2) =   0
                l(3) =   1
                l(4) =   1
     Q(r) pseudized with 0 coefficients 


     atomic species   valence    mass     pseudopotential
        Zn            12.00    63.38000     Zn( 1.00)
        O              6.00    15.99900     O ( 1.00)

     No symmetry found



   Cartesian axes

     site n.     atom                  positions (alat units)
         1           Zn  tau(   1) = (   0.6798172   0.2520862   1.0882712  )
         2           Zn  tau(   2) = (   0.0789473   0.4103096  -0.2715337  )
         3           O   tau(   3) = (   0.4599466   0.3629898   1.6681287  )
         4           O   tau(   4) = (   0.1999106   0.5212418   0.3165168  )

     number of k points=   112

     Number of k-points >= 100: set verbosity='high' to print them.

     Dense  grid:    35571 G-vectors     FFT dimensions: (  40,  40,  60)

     Smooth grid:    12443 G-vectors     FFT dimensions: (  27,  27,  45)

     Estimated max dynamical RAM per process >      25.23 MB

     Estimated total dynamical RAM >     201.80 MB

     Check: negative core charge=   -0.000003

     Initial potential from superposition of free atoms

     starting charge      35.9925, renormalised to      36.0000
     Starting wfcs are   26 randomized atomic wfcs

     total cpu time spent up to now is        3.7 secs

     Self-consistent Calculation

     iteration #  1     ecut=    50.00 Ry     beta= 0.30
     Davidson diagonalization with overlap
     ethr =  1.00E-02,  avg # of iterations =  2.0

     total cpu time spent up to now is        9.0 secs

     total energy              =    -359.44390155 Ry
     estimated scf accuracy    <       0.55567007 Ry

     iteration #  2     ecut=    50.00 Ry     beta= 0.30
     Davidson diagonalization with overlap
     ethr =  1.54E-03,  avg # of iterations =  6.8

     total cpu time spent up to now is       16.4 secs

     total energy              =    -359.67487834 Ry
     estimated scf accuracy    <       0.14230799 Ry

     iteration #  3     ecut=    50.00 Ry     beta= 0.30
     Davidson diagonalization with overlap
     ethr =  3.95E-04,  avg # of iterations =  2.8

     total cpu time spent up to now is       21.6 secs

     total energy              =    -359.66355337 Ry
     estimated scf accuracy    <       0.05348062 Ry

     iteration #  4     ecut=    50.00 Ry     beta= 0.30
     Davidson diagonalization with overlap
     c_bands:  1 eigenvalues not converged
     c_bands:  1 eigenvalues not converged
     ethr =  1.49E-04,  avg # of iterations =  8.9

     total cpu time spent up to now is       30.2 secs

     total energy              =    -359.66678634 Ry
     estimated scf accuracy    <       0.10786703 Ry

     iteration #  5     ecut=    50.00 Ry     beta= 0.30
     Davidson diagonalization with overlap
     ethr =  1.49E-04,  avg # of iterations =  7.1

     total cpu time spent up to now is       36.9 secs

     total energy              =    -359.69173516 Ry
     estimated scf accuracy    <       0.01538671 Ry

     iteration #  6     ecut=    50.00 Ry     beta= 0.30
     Davidson diagonalization with overlap
     ethr =  4.27E-05,  avg # of iterations =  2.2

     total cpu time spent up to now is       41.6 secs

     total energy              =    -359.68713967 Ry
     estimated scf accuracy    <       0.00996290 Ry

     iteration #  7     ecut=    50.00 Ry     beta= 0.30
     Davidson diagonalization with overlap
     ethr =  2.77E-05,  avg # of iterations =  8.9

     total cpu time spent up to now is       49.1 secs

     total energy              =    -359.69990120 Ry
     estimated scf accuracy    <       0.02566863 Ry

     iteration #  8     ecut=    50.00 Ry     beta= 0.30
     Davidson diagonalization with overlap
     ethr =  2.77E-05,  avg # of iterations =  1.1

     total cpu time spent up to now is       53.1 secs

     total energy              =    -359.69948264 Ry
     estimated scf accuracy    <       0.02941914 Ry

     iteration #  9     ecut=    50.00 Ry     beta= 0.30
     Davidson diagonalization with overlap
     ethr =  2.77E-05,  avg # of iterations =  1.0

     total cpu time spent up to now is       57.3 secs

     total energy              =    -359.69927926 Ry
     estimated scf accuracy    <       0.02903388 Ry

     iteration # 10     ecut=    50.00 Ry     beta= 0.30
     Davidson diagonalization with overlap
     ethr =  2.77E-05,  avg # of iterations =  1.0

     total cpu time spent up to now is       61.4 secs

     total energy              =    -359.68407193 Ry
     estimated scf accuracy    <       0.02943647 Ry

     iteration # 11     ecut=    50.00 Ry     beta= 0.30
     Davidson diagonalization with overlap
     ethr =  2.77E-05,  avg # of iterations =  8.9

     total cpu time spent up to now is       69.7 secs

     total energy              =    -359.69567992 Ry
     estimated scf accuracy    <       0.01641209 Ry

     iteration # 12     ecut=    50.00 Ry     beta= 0.30
     Davidson diagonalization with overlap
     ethr =  2.77E-05,  avg # of iterations =  1.0

     total cpu time spent up to now is       73.9 secs

     total energy              =    -359.69222608 Ry
     estimated scf accuracy    <       0.01468880 Ry

     iteration # 13     ecut=    50.00 Ry     beta= 0.30
     Davidson diagonalization with overlap
     ethr =  2.77E-05,  avg # of iterations =  4.5

     total cpu time spent up to now is       79.2 secs

     total energy              =    -359.69347537 Ry
     estimated scf accuracy    <       0.00214213 Ry

     iteration # 14     ecut=    50.00 Ry     beta= 0.30
     Davidson diagonalization with overlap
     ethr =  5.95E-06,  avg # of iterations =  4.9

     total cpu time spent up to now is       84.6 secs

     total energy              =    -359.69384176 Ry
     estimated scf accuracy    <       0.00070891 Ry

     iteration # 15     ecut=    50.00 Ry     beta= 0.30
     Davidson diagonalization with overlap
     ethr =  1.97E-06,  avg # of iterations =  2.7

     total cpu time spent up to now is       89.4 secs

     total energy              =    -359.69372467 Ry
     estimated scf accuracy    <       0.00063101 Ry

     iteration # 16     ecut=    50.00 Ry     beta= 0.30
     Davidson diagonalization with overlap
     ethr =  1.75E-06,  avg # of iterations =  3.4

     total cpu time spent up to now is       94.3 secs

     total energy              =    -359.69361748 Ry
     estimated scf accuracy    <       0.00020355 Ry

     iteration # 17     ecut=    50.00 Ry     beta= 0.30
     Davidson diagonalization with overlap
     c_bands:  1 eigenvalues not converged
     c_bands:  1 eigenvalues not converged
     c_bands:  1 eigenvalues not converged
     c_bands:  1 eigenvalues not converged
     c_bands:  1 eigenvalues not converged
     c_bands:  1 eigenvalues not converged
     c_bands:  1 eigenvalues not converged
     ethr =  5.65E-07,  avg # of iterations = 12.8

     total cpu time spent up to now is      106.2 secs

     total energy              =    -359.69447822 Ry
     estimated scf accuracy    <       0.00353793 Ry

     iteration # 18     ecut=    50.00 Ry     beta= 0.30
     Davidson diagonalization with overlap
     ethr =  5.65E-07,  avg # of iterations =  1.3

     total cpu time spent up to now is      110.4 secs

     total energy              =    -359.69581522 Ry
     estimated scf accuracy    <       0.00377088 Ry

     iteration # 19     ecut=    50.00 Ry     beta= 0.30
     Davidson diagonalization with overlap
     c_bands:  1 eigenvalues not converged
     c_bands:  1 eigenvalues not converged
     c_bands:  1 eigenvalues not converged
     c_bands:  1 eigenvalues not converged
     c_bands:  1 eigenvalues not converged
     c_bands:  1 eigenvalues not converged
     c_bands:  1 eigenvalues not converged
     c_bands:  1 eigenvalues not converged
     ethr =  5.65E-07,  avg # of iterations = 12.2

     total cpu time spent up to now is      121.4 secs

     total energy              =    -359.69478440 Ry
     estimated scf accuracy    <       0.01589276 Ry

     iteration # 20     ecut=    50.00 Ry     beta= 0.30
     Davidson diagonalization with overlap
     ethr =  5.65E-07,  avg # of iterations =  8.7

     total cpu time spent up to now is      129.1 secs

     total energy              =    -359.69342549 Ry
     estimated scf accuracy    <       0.00816484 Ry

     iteration # 21     ecut=    50.00 Ry     beta= 0.30
     Davidson diagonalization with overlap
     c_bands:  1 eigenvalues not converged
     c_bands:  1 eigenvalues not converged
     c_bands:  1 eigenvalues not converged
     c_bands:  1 eigenvalues not converged
     c_bands:  1 eigenvalues not converged
     c_bands:  1 eigenvalues not converged
     c_bands:  1 eigenvalues not converged
     ethr =  5.65E-07,  avg # of iterations = 11.7

     total cpu time spent up to now is      139.8 secs

     total energy              =    -359.69375095 Ry
     estimated scf accuracy    <       0.00099918 Ry

     iteration # 22     ecut=    50.00 Ry     beta= 0.30
     Davidson diagonalization with overlap
     ethr =  5.65E-07,  avg # of iterations =  6.7

     total cpu time spent up to now is      145.8 secs

     total energy              =    -359.69381832 Ry
     estimated scf accuracy    <       0.00016006 Ry

     iteration # 23     ecut=    50.00 Ry     beta= 0.30
     Davidson diagonalization with overlap
     ethr =  4.45E-07,  avg # of iterations =  1.3

     total cpu time spent up to now is      150.1 secs

     total energy              =    -359.69378060 Ry
     estimated scf accuracy    <       0.00014809 Ry

     iteration # 24     ecut=    50.00 Ry     beta= 0.30
     Davidson diagonalization with overlap
     ethr =  4.11E-07,  avg # of iterations =  3.6

     total cpu time spent up to now is      155.2 secs

     total energy              =    -359.69379080 Ry
     estimated scf accuracy    <       0.00003732 Ry

     iteration # 25     ecut=    50.00 Ry     beta= 0.30
     Davidson diagonalization with overlap
     ethr =  1.04E-07,  avg # of iterations =  7.2

     total cpu time spent up to now is      162.0 secs

     total energy              =    -359.69380997 Ry
     estimated scf accuracy    <       0.00001783 Ry

     iteration # 26     ecut=    50.00 Ry     beta= 0.30
     Davidson diagonalization with overlap
     ethr =  4.95E-08,  avg # of iterations =  1.7

     total cpu time spent up to now is      166.4 secs

     total energy              =    -359.69380430 Ry
     estimated scf accuracy    <       0.00001072 Ry

     iteration # 27     ecut=    50.00 Ry     beta= 0.30
     Davidson diagonalization with overlap
     ethr =  2.98E-08,  avg # of iterations =  9.2

     total cpu time spent up to now is      174.6 secs

     total energy              =    -359.69382160 Ry
     estimated scf accuracy    <       0.00004976 Ry

     iteration # 28     ecut=    50.00 Ry     beta= 0.30
     Davidson diagonalization with overlap
     ethr =  2.98E-08,  avg # of iterations =  1.1

     total cpu time spent up to now is      178.8 secs

     total energy              =    -359.69382411 Ry
     estimated scf accuracy    <       0.00005408 Ry

     iteration # 29     ecut=    50.00 Ry     beta= 0.30
     Davidson diagonalization with overlap
     ethr =  2.98E-08,  avg # of iterations =  1.5

     total cpu time spent up to now is      183.2 secs

     total energy              =    -359.69382345 Ry
     estimated scf accuracy    <       0.00006343 Ry

     iteration # 30     ecut=    50.00 Ry     beta= 0.30
     Davidson diagonalization with overlap
     ethr =  2.98E-08,  avg # of iterations =  1.0

     total cpu time spent up to now is      187.3 secs

     total energy              =    -359.69381857 Ry
     estimated scf accuracy    <       0.00006332 Ry

     iteration # 31     ecut=    50.00 Ry     beta= 0.30
     Davidson diagonalization with overlap
     ethr =  2.98E-08,  avg # of iterations =  1.0

     total cpu time spent up to now is      191.5 secs

     total energy              =    -359.69379758 Ry
     estimated scf accuracy    <       0.00005427 Ry

     iteration # 32     ecut=    50.00 Ry     beta= 0.30
     Davidson diagonalization with overlap
     c_bands:  1 eigenvalues not converged
     ethr =  2.98E-08,  avg # of iterations =  9.4

     total cpu time spent up to now is      200.4 secs

     total energy              =    -359.69382198 Ry
     estimated scf accuracy    <       0.00000911 Ry

     iteration # 33     ecut=    50.00 Ry     beta= 0.30
     Davidson diagonalization with overlap
     ethr =  2.53E-08,  avg # of iterations =  9.2

     total cpu time spent up to now is      208.8 secs

     total energy              =    -359.69383232 Ry
     estimated scf accuracy    <       0.00012029 Ry

     iteration # 34     ecut=    50.00 Ry     beta= 0.30
     Davidson diagonalization with overlap
     ethr =  2.53E-08,  avg # of iterations =  1.0

     total cpu time spent up to now is      213.0 secs

     total energy              =    -359.69380394 Ry
     estimated scf accuracy    <       0.00012319 Ry

     iteration # 35     ecut=    50.00 Ry     beta= 0.30
     Davidson diagonalization with overlap
     c_bands:  1 eigenvalues not converged
     ethr =  2.53E-08,  avg # of iterations =  8.0

     total cpu time spent up to now is      220.5 secs

     total energy              =    -359.69380434 Ry
     estimated scf accuracy    <       0.00001379 Ry

     iteration # 36     ecut=    50.00 Ry     beta= 0.30
     Davidson diagonalization with overlap
     c_bands:  1 eigenvalues not converged
     ethr =  2.53E-08,  avg # of iterations =  9.8

     total cpu time spent up to now is      229.8 secs

     total energy              =    -359.69382147 Ry
     estimated scf accuracy    <       0.00003265 Ry

     iteration # 37     ecut=    50.00 Ry     beta= 0.30
     Davidson diagonalization with overlap
     ethr =  2.53E-08,  avg # of iterations =  2.9

     total cpu time spent up to now is      234.5 secs

     total energy              =    -359.69381066 Ry
     estimated scf accuracy    <       0.00005000 Ry

     iteration # 38     ecut=    50.00 Ry     beta= 0.30
     Davidson diagonalization with overlap
     ethr =  2.53E-08,  avg # of iterations =  3.7

     total cpu time spent up to now is      239.7 secs

     total energy              =    -359.69380526 Ry
     estimated scf accuracy    <       0.00002078 Ry

     iteration # 39     ecut=    50.00 Ry     beta= 0.30
     Davidson diagonalization with overlap
     ethr =  2.53E-08,  avg # of iterations =  6.7

     total cpu time spent up to now is      246.8 secs

     total energy              =    -359.69381116 Ry
     estimated scf accuracy    <       0.00000256 Ry

     iteration # 40     ecut=    50.00 Ry     beta= 0.30
     Davidson diagonalization with overlap
     ethr =  7.12E-09,  avg # of iterations =  2.1

     total cpu time spent up to now is      251.3 secs

     total energy              =    -359.69381069 Ry
     estimated scf accuracy    <       0.00000197 Ry

     iteration # 41     ecut=    50.00 Ry     beta= 0.30
     Davidson diagonalization with overlap
     ethr =  5.48E-09,  avg # of iterations =  6.0

     total cpu time spent up to now is      257.2 secs

     total energy              =    -359.69381118 Ry
     estimated scf accuracy    <       0.00000004 Ry

     iteration # 42     ecut=    50.00 Ry     beta= 0.30
     Davidson diagonalization with overlap
     c_bands:  1 eigenvalues not converged
     c_bands:  1 eigenvalues not converged
     c_bands:  1 eigenvalues not converged
     c_bands:  1 eigenvalues not converged
     ethr =  1.20E-10,  avg # of iterations = 10.3

     total cpu time spent up to now is      267.0 secs

     total energy              =    -359.69381123 Ry
     estimated scf accuracy    <       0.00000008 Ry

     iteration # 43     ecut=    50.00 Ry     beta= 0.30
     Davidson diagonalization with overlap
     ethr =  1.20E-10,  avg # of iterations =  5.6

     total cpu time spent up to now is      272.6 secs

     End of self-consistent calculation

     Number of k-points >= 100: set verbosity='high' to print the bands.

     highest occupied level (ev):    13.0288

!    total energy              =    -359.69381123 Ry
     estimated scf accuracy    <          6.4E-09 Ry

     The total energy is the sum of the following terms:
     one-electron contribution =    -197.79842527 Ry
     hartree contribution      =     141.41109385 Ry
     xc contribution           =    -110.64086952 Ry
     ewald contribution        =    -192.66561029 Ry

     convergence has been achieved in  43 iterations

     Forces acting on atoms (cartesian axes, Ry/au):

     atom    1 type  1   force =    -1.64831111   -0.74582865   -1.08470475
     atom    2 type  1   force =     1.48260613    0.74744394    0.67821061
     atom    3 type  2   force =     0.71845866   -0.39011220   -0.19248836
     atom    4 type  2   force =    -0.55275368    0.38849691    0.59898250
     The non-local contrib.  to forces
     atom    1 type  1   force =     0.76916012    0.52245576    0.69270618
     atom    2 type  1   force =    -1.12313677   -0.42402739   -0.11591712
     atom    3 type  2   force =    -2.12834665    1.27071041    0.58001414
     atom    4 type  2   force =     1.98067734   -1.26829458   -1.80947490
     The ionic contribution  to forces
     atom    1 type  1   force =   -13.13526766   -8.03106365  -31.21720908
     atom    2 type  1   force =     9.90447709    6.81480690    0.32817725
     atom    3 type  2   force =    10.97240954   -5.14530048   11.92735816
     atom    4 type  2   force =    -7.74161898    6.36155723   18.96167367
     The local contribution  to forces
     atom    1 type  1   force =    10.64025635    6.72494502   29.37099817
     atom    2 type  1   force =    -7.26044835   -5.60737025    0.48206511
     atom    3 type  2   force =    -8.13967649    3.49363230  -12.69493803
     atom    4 type  2   force =     5.22253322   -4.71353356  -16.56504256
     The core correction contribution to forces
     atom    1 type  1   force =     0.07756711    0.03782487    0.06881192
     atom    2 type  1   force =    -0.03834765   -0.03599599   -0.01628964
     atom    3 type  2   force =     0.01414290   -0.00917169   -0.00503901
     atom    4 type  2   force =    -0.01440137    0.00882967    0.01188484
     The Hubbard contrib.    to forces
     atom    1 type  1   force =     0.00000000    0.00000000    0.00000000
     atom    2 type  1   force =     0.00000000    0.00000000    0.00000000
     atom    3 type  2   force =     0.00000000    0.00000000    0.00000000
     atom    4 type  2   force =     0.00000000    0.00000000    0.00000000
     The SCF correction term to forces
     atom    1 type  1   force =    -0.00002286    0.00001673   -0.00000139
     atom    2 type  1   force =     0.00006598    0.00003803    0.00018556
     atom    3 type  2   force =    -0.00006646    0.00002463    0.00012692
     atom    4 type  2   force =     0.00006027   -0.00005449   -0.00004801

     Total force =     3.031040     Total SCF correction =     0.000267

     Writing all to output data dir ./ZnO_ANN.save/

     init_run     :      3.14s CPU      3.21s WALL (       1 calls)
     electrons    :    263.56s CPU    268.98s WALL (       1 calls)
     forces       :      0.86s CPU      0.87s WALL (       1 calls)

     Called by init_run:
     wfcinit      :      2.32s CPU      2.37s WALL (       1 calls)
     potinit      :      0.19s CPU      0.20s WALL (       1 calls)
     hinit0       :      0.56s CPU      0.57s WALL (       1 calls)

     Called by electrons:
     c_bands      :    232.64s CPU    237.25s WALL (      43 calls)
     sum_band     :     28.25s CPU     28.97s WALL (      43 calls)
     v_of_rho     :      0.58s CPU      0.63s WALL (      44 calls)
     newd         :      1.97s CPU      2.00s WALL (      44 calls)
     mix_rho      :      0.11s CPU      0.11s WALL (      43 calls)

     Called by c_bands:
     init_us_2    :      1.84s CPU      1.87s WALL (    9856 calls)
     init_us_2:cp :      1.81s CPU      1.84s WALL (    9856 calls)
     cegterg      :    226.94s CPU    231.44s WALL (    4816 calls)

     Called by *egterg:
     cdiaghg      :     32.60s CPU     32.96s WALL (   29757 calls)
     h_psi        :    136.51s CPU    139.76s WALL (   29869 calls)
     s_psi        :     15.74s CPU     15.90s WALL (   29869 calls)
     g_psi        :      0.39s CPU      0.40s WALL (   24941 calls)

     Called by h_psi:
     h_psi:calbec :     15.89s CPU     16.46s WALL (   29869 calls)
     vloc_psi     :    104.64s CPU    107.18s WALL (   29869 calls)
     add_vuspsi   :     15.47s CPU     15.63s WALL (   29869 calls)

     General routines
     calbec       :     21.75s CPU     22.52s WALL (   35133 calls)
     fft          :      0.75s CPU      0.81s WALL (     581 calls)
     ffts         :      0.09s CPU      0.09s WALL (      87 calls)
     fftw         :    109.38s CPU    112.09s WALL (  573650 calls)
     interpolate  :      0.10s CPU      0.11s WALL (      44 calls)

     Parallel routines

     PWSCF        :   4m28.28s CPU   4m33.93s WALL


   This run was terminated on:  12:45:38  23Jun2025            

=------------------------------------------------------------------------------=
   JOB DONE.
=------------------------------------------------------------------------------=
Note: The following floating-point exceptions are signalling: IEEE_INVALID_FLAG
