
     Program PWSCF v.7.2 starts on 23Jun2025 at 17:26:50 

     This program is part of the open-source Quantum ESPRESSO suite
     for quantum simulation of materials; please cite
         "P. Giannozzi et al., J. Phys.:Condens. Matter 21 395502 (2009);
         "P. Giannozzi et al., J. Phys.:Condens. Matter 29 465901 (2017);
         "P. Giannozzi et al., J. Chem. Phys. 152 154105 (2020);
          URL http://www.quantum-espresso.org", 
     in publications or presentations arising from this work. More details at
     http://www.quantum-espresso.org/quote

     Parallel version (MPI), running on     8 processors

     MPI processes distributed on     1 nodes
     90920 MiB available memory on the printing compute node when the environment starts

     Reading input from /home/jvc/QEspresso7.2/ZnO_DataBase/scfs_rnd025.in/scf-6.67-1.49-5.in

     Current dimensions of program PWSCF are:
     Max number of different atomic species (ntypx) = 10
     Max number of k-points (npk) =  40000
     Max angular momentum in pseudopotentials (lmaxx) =  4
     file Zn.upf: wavefunction(s)  3D renormalized

     R & G space division:  proc/nbgrp/npool/nimage =       8
     Subspace diagonalization in iterative solution of the eigenvalue problem:
     a serial algorithm will be used


     Parallelization info
     --------------------
     sticks:   dense  smooth     PW     G-vecs:    dense   smooth      PW
     Min         154      75     23                 6446     2271     375
     Max         155      78     24                 6451     2277     380
     Sum        1237     613    187                51591    18189    3019

     Using Slab Decomposition



     bravais-lattice index     =            4
     lattice parameter (alat)  =       6.6731  a.u.
     unit-cell volume          =     382.2140 (a.u.)^3
     number of atoms/cell      =            4
     number of atomic types    =            2
     number of electrons       =        36.00
     number of Kohn-Sham states=           18
     kinetic-energy cutoff     =      50.0000  Ry
     charge density cutoff     =     400.0000  Ry
     scf convergence threshold =      1.0E-08
     mixing beta               =       0.3000
     number of iterations used =            8  plain     mixing
     Exchange-correlation= PBE
                           (   1   4   3   4   0   0   0)

     celldm(1)=   6.673127  celldm(2)=   0.000000  celldm(3)=   1.485210
     celldm(4)=   0.000000  celldm(5)=   0.000000  celldm(6)=   0.000000

     crystal axes: (cart. coord. in units of alat)
               a(1) = (   1.000000   0.000000   0.000000 )  
               a(2) = (  -0.500000   0.866025   0.000000 )  
               a(3) = (   0.000000   0.000000   1.485210 )  

     reciprocal axes: (cart. coord. in units 2 pi/alat)
               b(1) = (  1.000000  0.577350 -0.000000 )  
               b(2) = (  0.000000  1.154701  0.000000 )  
               b(3) = (  0.000000 -0.000000  0.673306 )  


     PseudoPot. # 1 for Zn read from file:
     ./pseudos/Zn.upf
     MD5 check sum: 7f56cabf9682ed8c977c2f7d0c5985c5
     Pseudo is Ultrasoft + core correction, Zval = 12.0
     Generated using &quot;atomic&quot; code by A. Dal Corso  v.6.2.2
     Using radial grid of 1201 points,  6 beta functions with: 
                l(1) =   0
                l(2) =   0
                l(3) =   1
                l(4) =   1
                l(5) =   2
                l(6) =   2
     Q(r) pseudized with 0 coefficients 


     PseudoPot. # 2 for O  read from file:
     ./pseudos/O.upf
     MD5 check sum: 91400c9766925bcf19f520983a725ff0
     Pseudo is Ultrasoft + core correction, Zval =  6.0
     Generated using &quot;atomic&quot; code by A. Dal Corso  v.6.3MaX
     Using radial grid of 1095 points,  4 beta functions with: 
                l(1) =   0
                l(2) =   0
                l(3) =   1
                l(4) =   1
     Q(r) pseudized with 0 coefficients 


     atomic species   valence    mass     pseudopotential
        Zn            12.00    63.38000     Zn( 1.00)
        O              6.00    15.99900     O ( 1.00)

     No symmetry found



   Cartesian axes

     site n.     atom                  positions (alat units)
         1           Zn  tau(   1) = (   0.5488307   0.1443715   1.0246198  )
         2           Zn  tau(   2) = (  -0.1560214   0.7444022   0.1836467  )
         3           O   tau(   3) = (   0.4506329   0.2152606   1.1941784  )
         4           O   tau(   4) = (   0.0812999   0.7638559   0.5870208  )

     number of k points=   112

     Number of k-points >= 100: set verbosity='high' to print them.

     Dense  grid:    51591 G-vectors     FFT dimensions: (  45,  45,  64)

     Smooth grid:    18189 G-vectors     FFT dimensions: (  32,  32,  45)

     Estimated max dynamical RAM per process >      35.00 MB

     Estimated total dynamical RAM >     280.01 MB

     Check: negative core charge=   -0.000002

     Initial potential from superposition of free atoms

     starting charge      35.9925, renormalised to      36.0000
     Starting wfcs are   26 randomized atomic wfcs

     total cpu time spent up to now is        4.1 secs

     Self-consistent Calculation

     iteration #  1     ecut=    50.00 Ry     beta= 0.30
     Davidson diagonalization with overlap
     ethr =  1.00E-02,  avg # of iterations =  6.0

     total cpu time spent up to now is       12.6 secs

     total energy              =    -350.25813079 Ry
     estimated scf accuracy    <       1.18463933 Ry

     iteration #  2     ecut=    50.00 Ry     beta= 0.30
     Davidson diagonalization with overlap
     ethr =  3.29E-03,  avg # of iterations =  6.1

     total cpu time spent up to now is       20.0 secs

     total energy              =    -350.48883136 Ry
     estimated scf accuracy    <       0.34295310 Ry

     iteration #  3     ecut=    50.00 Ry     beta= 0.30
     Davidson diagonalization with overlap
     ethr =  9.53E-04,  avg # of iterations =  3.8

     total cpu time spent up to now is       26.9 secs

     total energy              =    -350.54265362 Ry
     estimated scf accuracy    <       0.08243034 Ry

     iteration #  4     ecut=    50.00 Ry     beta= 0.30
     Davidson diagonalization with overlap
     ethr =  2.29E-04,  avg # of iterations =  4.3

     total cpu time spent up to now is       34.4 secs

     total energy              =    -350.55933777 Ry
     estimated scf accuracy    <       0.02422643 Ry

     iteration #  5     ecut=    50.00 Ry     beta= 0.30
     Davidson diagonalization with overlap
     ethr =  6.73E-05,  avg # of iterations =  3.7

     total cpu time spent up to now is       40.5 secs

     total energy              =    -350.56000445 Ry
     estimated scf accuracy    <       0.00577703 Ry

     iteration #  6     ecut=    50.00 Ry     beta= 0.30
     Davidson diagonalization with overlap
     ethr =  1.60E-05,  avg # of iterations =  5.7

     total cpu time spent up to now is       48.2 secs

     total energy              =    -350.56154366 Ry
     estimated scf accuracy    <       0.00096861 Ry

     iteration #  7     ecut=    50.00 Ry     beta= 0.30
     Davidson diagonalization with overlap
     ethr =  2.69E-06,  avg # of iterations =  7.5

     total cpu time spent up to now is       57.5 secs

     total energy              =    -350.56147359 Ry
     estimated scf accuracy    <       0.00121754 Ry

     iteration #  8     ecut=    50.00 Ry     beta= 0.30
     Davidson diagonalization with overlap
     ethr =  2.69E-06,  avg # of iterations =  6.7

     total cpu time spent up to now is       66.9 secs

     total energy              =    -350.56204936 Ry
     estimated scf accuracy    <       0.00133182 Ry

     iteration #  9     ecut=    50.00 Ry     beta= 0.30
     Davidson diagonalization with overlap
     ethr =  2.69E-06,  avg # of iterations =  1.2

     total cpu time spent up to now is       71.7 secs

     total energy              =    -350.56153886 Ry
     estimated scf accuracy    <       0.00095539 Ry

     iteration # 10     ecut=    50.00 Ry     beta= 0.30
     Davidson diagonalization with overlap
     ethr =  2.65E-06,  avg # of iterations =  5.7

     total cpu time spent up to now is       80.2 secs

     total energy              =    -350.56181040 Ry
     estimated scf accuracy    <       0.00060745 Ry

     iteration # 11     ecut=    50.00 Ry     beta= 0.30
     Davidson diagonalization with overlap
     ethr =  1.69E-06,  avg # of iterations =  3.9

     total cpu time spent up to now is       86.5 secs

     total energy              =    -350.56186608 Ry
     estimated scf accuracy    <       0.00005827 Ry

     iteration # 12     ecut=    50.00 Ry     beta= 0.30
     Davidson diagonalization with overlap
     ethr =  1.62E-07,  avg # of iterations = 10.3

     total cpu time spent up to now is      100.0 secs

     total energy              =    -350.56186713 Ry
     estimated scf accuracy    <       0.00056848 Ry

     iteration # 13     ecut=    50.00 Ry     beta= 0.30
     Davidson diagonalization with overlap
     ethr =  1.62E-07,  avg # of iterations =  6.3

     total cpu time spent up to now is      109.4 secs

     total energy              =    -350.56192796 Ry
     estimated scf accuracy    <       0.00002930 Ry

     iteration # 14     ecut=    50.00 Ry     beta= 0.30
     Davidson diagonalization with overlap
     ethr =  8.14E-08,  avg # of iterations =  2.1

     total cpu time spent up to now is      114.8 secs

     total energy              =    -350.56192749 Ry
     estimated scf accuracy    <       0.00002044 Ry

     iteration # 15     ecut=    50.00 Ry     beta= 0.30
     Davidson diagonalization with overlap
     ethr =  5.68E-08,  avg # of iterations =  2.0

     total cpu time spent up to now is      120.0 secs

     total energy              =    -350.56192533 Ry
     estimated scf accuracy    <       0.00001347 Ry

     iteration # 16     ecut=    50.00 Ry     beta= 0.30
     Davidson diagonalization with overlap
     ethr =  3.74E-08,  avg # of iterations =  5.7

     total cpu time spent up to now is      127.1 secs

     total energy              =    -350.56192863 Ry
     estimated scf accuracy    <       0.00000053 Ry

     iteration # 17     ecut=    50.00 Ry     beta= 0.30
     Davidson diagonalization with overlap
     ethr =  1.48E-09,  avg # of iterations =  8.3

     total cpu time spent up to now is      136.8 secs

     total energy              =    -350.56192931 Ry
     estimated scf accuracy    <       0.00000037 Ry

     iteration # 18     ecut=    50.00 Ry     beta= 0.30
     Davidson diagonalization with overlap
     ethr =  1.03E-09,  avg # of iterations =  1.4

     total cpu time spent up to now is      141.8 secs

     total energy              =    -350.56192916 Ry
     estimated scf accuracy    <       0.00000033 Ry

     iteration # 19     ecut=    50.00 Ry     beta= 0.30
     Davidson diagonalization with overlap
     ethr =  9.25E-10,  avg # of iterations =  4.8

     total cpu time spent up to now is      150.1 secs

     total energy              =    -350.56192939 Ry
     estimated scf accuracy    <       0.00000018 Ry

     iteration # 20     ecut=    50.00 Ry     beta= 0.30
     Davidson diagonalization with overlap
     ethr =  5.03E-10,  avg # of iterations =  7.4

     total cpu time spent up to now is      159.2 secs

     total energy              =    -350.56192941 Ry
     estimated scf accuracy    <       0.00000119 Ry

     iteration # 21     ecut=    50.00 Ry     beta= 0.30
     Davidson diagonalization with overlap
     ethr =  5.03E-10,  avg # of iterations =  6.1

     total cpu time spent up to now is      168.4 secs

     total energy              =    -350.56192943 Ry
     estimated scf accuracy    <       0.00000141 Ry

     iteration # 22     ecut=    50.00 Ry     beta= 0.30
     Davidson diagonalization with overlap
     ethr =  5.03E-10,  avg # of iterations =  2.0

     total cpu time spent up to now is      173.6 secs

     total energy              =    -350.56192923 Ry
     estimated scf accuracy    <       0.00000116 Ry

     iteration # 23     ecut=    50.00 Ry     beta= 0.30
     Davidson diagonalization with overlap
     ethr =  5.03E-10,  avg # of iterations =  5.6

     total cpu time spent up to now is      181.0 secs

     total energy              =    -350.56192929 Ry
     estimated scf accuracy    <       0.00000031 Ry

     iteration # 24     ecut=    50.00 Ry     beta= 0.30
     Davidson diagonalization with overlap
     ethr =  5.03E-10,  avg # of iterations =  1.1

     total cpu time spent up to now is      185.7 secs

     total energy              =    -350.56192929 Ry
     estimated scf accuracy    <       0.00000029 Ry

     iteration # 25     ecut=    50.00 Ry     beta= 0.30
     Davidson diagonalization with overlap
     ethr =  5.03E-10,  avg # of iterations =  1.2

     total cpu time spent up to now is      190.6 secs

     total energy              =    -350.56192920 Ry
     estimated scf accuracy    <       0.00000025 Ry

     iteration # 26     ecut=    50.00 Ry     beta= 0.30
     Davidson diagonalization with overlap
     ethr =  5.03E-10,  avg # of iterations =  4.6

     total cpu time spent up to now is      197.4 secs

     total energy              =    -350.56192924 Ry
     estimated scf accuracy    <       0.00000004 Ry

     iteration # 27     ecut=    50.00 Ry     beta= 0.30
     Davidson diagonalization with overlap
     ethr =  1.19E-10,  avg # of iterations =  5.1

     total cpu time spent up to now is      205.1 secs

     total energy              =    -350.56192925 Ry
     estimated scf accuracy    <       0.00000002 Ry

     iteration # 28     ecut=    50.00 Ry     beta= 0.30
     Davidson diagonalization with overlap
     ethr =  5.84E-11,  avg # of iterations =  1.5

     total cpu time spent up to now is      210.1 secs

     total energy              =    -350.56192925 Ry
     estimated scf accuracy    <       0.00000002 Ry

     iteration # 29     ecut=    50.00 Ry     beta= 0.30
     Davidson diagonalization with overlap
     ethr =  5.84E-11,  avg # of iterations =  4.3

     total cpu time spent up to now is      216.6 secs

     total energy              =    -350.56192924 Ry
     estimated scf accuracy    <       0.00000002 Ry

     iteration # 30     ecut=    50.00 Ry     beta= 0.30
     Davidson diagonalization with overlap
     ethr =  5.84E-11,  avg # of iterations =  3.9

     total cpu time spent up to now is      222.8 secs

     End of self-consistent calculation

     Number of k-points >= 100: set verbosity='high' to print the bands.

     highest occupied level (ev):     6.9739

!    total energy              =    -350.56192925 Ry
     estimated scf accuracy    <          1.8E-09 Ry

     The total energy is the sum of the following terms:
     one-electron contribution =    -248.42292044 Ry
     hartree contribution      =     158.35705307 Ry
     xc contribution           =    -111.56970799 Ry
     ewald contribution        =    -148.92635389 Ry

     convergence has been achieved in  30 iterations

     Forces acting on atoms (cartesian axes, Ry/au):

     atom    1 type  1   force =    13.05587863   -9.42452367  -22.57699607
     atom    2 type  1   force =    -0.08195989   -0.01709814   -0.08705482
     atom    3 type  2   force =   -13.08962782    9.52754588   22.71735922
     atom    4 type  2   force =     0.11570908   -0.08592407   -0.05330832
     The non-local contrib.  to forces
     atom    1 type  1   force =    -4.90694780    3.37160584    8.91169983
     atom    2 type  1   force =    -0.66468027   -0.08157829   -1.03664980
     atom    3 type  2   force =     1.31929319   -1.24703304   -1.77165085
     atom    4 type  2   force =    -0.44188161    0.19501286   -0.64201000
     The ionic contribution  to forces
     atom    1 type  1   force =    34.01937010  -19.29260156  -56.09232126
     atom    2 type  1   force =    -6.26730915   -3.63463713    0.98185091
     atom    3 type  2   force =   -33.08158985   26.58501821   55.35538169
     atom    4 type  2   force =     5.32952890   -3.65777952   -0.24491134
     The local contribution  to forces
     atom    1 type  1   force =   -15.58056350    6.15907873   23.81270980
     atom    2 type  1   force =     6.80079197    3.68502900   -0.08615243
     atom    3 type  2   force =    18.65019562  -15.79649695  -30.82599674
     atom    4 type  2   force =    -4.77466706    3.37753363    0.82708732
     The core correction contribution to forces
     atom    1 type  1   force =    -0.47602144    0.33739147    0.79088024
     atom    2 type  1   force =     0.04928634    0.01409491    0.05393626
     atom    3 type  2   force =     0.02249227   -0.01396257   -0.04045810
     atom    4 type  2   force =     0.00274159   -0.00069671    0.00656975
     The Hubbard contrib.    to forces
     atom    1 type  1   force =     0.00000000    0.00000000    0.00000000
     atom    2 type  1   force =     0.00000000    0.00000000    0.00000000
     atom    3 type  2   force =     0.00000000    0.00000000    0.00000000
     atom    4 type  2   force =     0.00000000    0.00000000    0.00000000
     The SCF correction term to forces
     atom    1 type  1   force =     0.00005212   -0.00000761    0.00001894
     atom    2 type  1   force =    -0.00003793   -0.00001609   -0.00005614
     atom    3 type  2   force =    -0.00000820    0.00001078    0.00006683
     atom    4 type  2   force =    -0.00000190   -0.00000379   -0.00006043

     Total force =    39.334812     Total SCF correction =     0.000128

     Writing all to output data dir ./ZnO_ANN.save/

     init_run     :      3.52s CPU      3.60s WALL (       1 calls)
     electrons    :    214.74s CPU    218.77s WALL (       1 calls)
     forces       :      1.24s CPU      1.25s WALL (       1 calls)

     Called by init_run:
     wfcinit      :      2.64s CPU      2.69s WALL (       1 calls)
     potinit      :      0.27s CPU      0.27s WALL (       1 calls)
     hinit0       :      0.52s CPU      0.53s WALL (       1 calls)

     Called by electrons:
     c_bands      :    189.98s CPU    193.43s WALL (      30 calls)
     sum_band     :     22.09s CPU     22.61s WALL (      30 calls)
     v_of_rho     :      0.54s CPU      0.58s WALL (      31 calls)
     newd         :      2.05s CPU      2.09s WALL (      31 calls)
     mix_rho      :      0.09s CPU      0.10s WALL (      30 calls)

     Called by c_bands:
     init_us_2    :      1.82s CPU      1.85s WALL (    6944 calls)
     init_us_2:cp :      1.79s CPU      1.82s WALL (    6944 calls)
     cegterg      :    184.12s CPU    187.49s WALL (    3360 calls)

     Called by *egterg:
     cdiaghg      :     20.25s CPU     20.41s WALL (   18829 calls)
     h_psi        :    103.58s CPU    106.15s WALL (   18941 calls)
     s_psi        :     14.46s CPU     14.56s WALL (   18941 calls)
     g_psi        :      0.39s CPU      0.40s WALL (   15469 calls)

     Called by h_psi:
     h_psi:calbec :     16.20s CPU     16.75s WALL (   18941 calls)
     vloc_psi     :     72.50s CPU     74.39s WALL (   18941 calls)
     add_vuspsi   :     14.49s CPU     14.63s WALL (   18941 calls)

     General routines
     calbec       :     22.22s CPU     22.91s WALL (   22749 calls)
     fft          :      0.62s CPU      0.67s WALL (     412 calls)
     ffts         :      0.12s CPU      0.13s WALL (      61 calls)
     fftw         :     72.77s CPU     74.66s WALL (  416636 calls)
     interpolate  :      0.14s CPU      0.15s WALL (      31 calls)

     Parallel routines

     PWSCF        :   3m40.24s CPU   3m44.67s WALL


   This run was terminated on:  17:30:35  23Jun2025            

=------------------------------------------------------------------------------=
   JOB DONE.
=------------------------------------------------------------------------------=
Note: The following floating-point exceptions are signalling: IEEE_INVALID_FLAG
