
     Program PWSCF v.7.2 starts on 23Jun2025 at 12:32:24 

     This program is part of the open-source Quantum ESPRESSO suite
     for quantum simulation of materials; please cite
         "P. Giannozzi et al., J. Phys.:Condens. Matter 21 395502 (2009);
         "P. Giannozzi et al., J. Phys.:Condens. Matter 29 465901 (2017);
         "P. Giannozzi et al., J. Chem. Phys. 152 154105 (2020);
          URL http://www.quantum-espresso.org", 
     in publications or presentations arising from this work. More details at
     http://www.quantum-espresso.org/quote

     Parallel version (MPI), running on     8 processors

     MPI processes distributed on     1 nodes
     91319 MiB available memory on the printing compute node when the environment starts

     Reading input from /home/jvc/QEspresso7.2/ZnO_DataBase/scfs_rnd025.in/scf-5.81-1.45-1.in

     Current dimensions of program PWSCF are:
     Max number of different atomic species (ntypx) = 10
     Max number of k-points (npk) =  40000
     Max angular momentum in pseudopotentials (lmaxx) =  4
     file Zn.upf: wavefunction(s)  3D renormalized

     R & G space division:  proc/nbgrp/npool/nimage =       8
     Subspace diagonalization in iterative solution of the eigenvalue problem:
     a serial algorithm will be used


     Parallelization info
     --------------------
     sticks:   dense  smooth     PW     G-vecs:    dense   smooth      PW
     Min         116      57     18                 4167     1468     254
     Max         118      59     19                 4172     1471     257
     Sum         931     463    151                33359    11755    2043

     Using Slab Decomposition



     bravais-lattice index     =            4
     lattice parameter (alat)  =       5.8081  a.u.
     unit-cell volume          =     246.5322 (a.u.)^3
     number of atoms/cell      =            4
     number of atomic types    =            2
     number of electrons       =        36.00
     number of Kohn-Sham states=           18
     kinetic-energy cutoff     =      50.0000  Ry
     charge density cutoff     =     400.0000  Ry
     scf convergence threshold =      1.0E-08
     mixing beta               =       0.3000
     number of iterations used =            8  plain     mixing
     Exchange-correlation= PBE
                           (   1   4   3   4   0   0   0)

     celldm(1)=   5.808092  celldm(2)=   0.000000  celldm(3)=   1.452923
     celldm(4)=   0.000000  celldm(5)=   0.000000  celldm(6)=   0.000000

     crystal axes: (cart. coord. in units of alat)
               a(1) = (   1.000000   0.000000   0.000000 )  
               a(2) = (  -0.500000   0.866025   0.000000 )  
               a(3) = (   0.000000   0.000000   1.452923 )  

     reciprocal axes: (cart. coord. in units 2 pi/alat)
               b(1) = (  1.000000  0.577350 -0.000000 )  
               b(2) = (  0.000000  1.154701  0.000000 )  
               b(3) = (  0.000000 -0.000000  0.688268 )  


     PseudoPot. # 1 for Zn read from file:
     ./pseudos/Zn.upf
     MD5 check sum: 7f56cabf9682ed8c977c2f7d0c5985c5
     Pseudo is Ultrasoft + core correction, Zval = 12.0
     Generated using &quot;atomic&quot; code by A. Dal Corso  v.6.2.2
     Using radial grid of 1201 points,  6 beta functions with: 
                l(1) =   0
                l(2) =   0
                l(3) =   1
                l(4) =   1
                l(5) =   2
                l(6) =   2
     Q(r) pseudized with 0 coefficients 


     PseudoPot. # 2 for O  read from file:
     ./pseudos/O.upf
     MD5 check sum: 91400c9766925bcf19f520983a725ff0
     Pseudo is Ultrasoft + core correction, Zval =  6.0
     Generated using &quot;atomic&quot; code by A. Dal Corso  v.6.3MaX
     Using radial grid of 1095 points,  4 beta functions with: 
                l(1) =   0
                l(2) =   0
                l(3) =   1
                l(4) =   1
     Q(r) pseudized with 0 coefficients 


     atomic species   valence    mass     pseudopotential
        Zn            12.00    63.38000     Zn( 1.00)
        O              6.00    15.99900     O ( 1.00)

     No symmetry found



   Cartesian axes

     site n.     atom                  positions (alat units)
         1           Zn  tau(   1) = (   0.6240397   0.2120071   0.6092261  )
         2           Zn  tau(   2) = (   0.0410725   0.5323897   0.2951624  )
         3           O   tau(   3) = (   0.3525101   0.2099723   1.1748311  )
         4           O   tau(   4) = (  -0.0258611   0.4506589   0.8072138  )

     number of k points=   112

     Number of k-points >= 100: set verbosity='high' to print them.

     Dense  grid:    33359 G-vectors     FFT dimensions: (  40,  40,  54)

     Smooth grid:    11755 G-vectors     FFT dimensions: (  27,  27,  40)

     Estimated max dynamical RAM per process >      23.81 MB

     Estimated total dynamical RAM >     190.50 MB

     Check: negative core charge=   -0.000002

     Initial potential from superposition of free atoms

     starting charge      35.9925, renormalised to      36.0000
     Starting wfcs are   26 randomized atomic wfcs

     total cpu time spent up to now is        3.4 secs

     Self-consistent Calculation

     iteration #  1     ecut=    50.00 Ry     beta= 0.30
     Davidson diagonalization with overlap
     ethr =  1.00E-02,  avg # of iterations =  2.0

     total cpu time spent up to now is        7.8 secs

     total energy              =    -360.12774571 Ry
     estimated scf accuracy    <       1.03643318 Ry

     iteration #  2     ecut=    50.00 Ry     beta= 0.30
     Davidson diagonalization with overlap
     ethr =  2.88E-03,  avg # of iterations =  6.6

     total cpu time spent up to now is       14.0 secs

     total energy              =    -360.44021778 Ry
     estimated scf accuracy    <       0.26656514 Ry

     iteration #  3     ecut=    50.00 Ry     beta= 0.30
     Davidson diagonalization with overlap
     ethr =  7.40E-04,  avg # of iterations =  2.6

     total cpu time spent up to now is       18.5 secs

     total energy              =    -360.40336801 Ry
     estimated scf accuracy    <       0.11975193 Ry

     iteration #  4     ecut=    50.00 Ry     beta= 0.30
     Davidson diagonalization with overlap
     c_bands:  1 eigenvalues not converged
     ethr =  3.33E-04,  avg # of iterations = 11.8

     total cpu time spent up to now is       27.9 secs

     total energy              =    -360.50222264 Ry
     estimated scf accuracy    <       0.40699695 Ry

     iteration #  5     ecut=    50.00 Ry     beta= 0.30
     Davidson diagonalization with overlap
     ethr =  3.33E-04,  avg # of iterations =  1.4

     total cpu time spent up to now is       31.8 secs

     total energy              =    -360.39796351 Ry
     estimated scf accuracy    <       0.28642586 Ry

     iteration #  6     ecut=    50.00 Ry     beta= 0.30
     Davidson diagonalization with overlap
     ethr =  3.33E-04,  avg # of iterations =  9.3

     total cpu time spent up to now is       39.2 secs

     total energy              =    -360.51206320 Ry
     estimated scf accuracy    <       0.10554270 Ry

     iteration #  7     ecut=    50.00 Ry     beta= 0.30
     Davidson diagonalization with overlap
     ethr =  2.93E-04,  avg # of iterations =  1.2

     total cpu time spent up to now is       43.0 secs

     total energy              =    -360.46878054 Ry
     estimated scf accuracy    <       0.11703338 Ry

     iteration #  8     ecut=    50.00 Ry     beta= 0.30
     Davidson diagonalization with overlap
     ethr =  2.93E-04,  avg # of iterations =  3.3

     total cpu time spent up to now is       47.5 secs

     total energy              =    -360.47467908 Ry
     estimated scf accuracy    <       0.01750422 Ry

     iteration #  9     ecut=    50.00 Ry     beta= 0.30
     Davidson diagonalization with overlap
     c_bands:  1 eigenvalues not converged
     ethr =  4.86E-05,  avg # of iterations =  9.7

     total cpu time spent up to now is       55.5 secs

     total energy              =    -360.48838302 Ry
     estimated scf accuracy    <       0.03324091 Ry

     iteration # 10     ecut=    50.00 Ry     beta= 0.30
     Davidson diagonalization with overlap
     ethr =  4.86E-05,  avg # of iterations =  1.4

     total cpu time spent up to now is       59.4 secs

     total energy              =    -360.48266496 Ry
     estimated scf accuracy    <       0.01996866 Ry

     iteration # 11     ecut=    50.00 Ry     beta= 0.30
     Davidson diagonalization with overlap
     ethr =  4.86E-05,  avg # of iterations =  7.3

     total cpu time spent up to now is       65.8 secs

     total energy              =    -360.49795496 Ry
     estimated scf accuracy    <       0.00637520 Ry

     iteration # 12     ecut=    50.00 Ry     beta= 0.30
     Davidson diagonalization with overlap
     c_bands:  1 eigenvalues not converged
     c_bands:  1 eigenvalues not converged
     c_bands:  1 eigenvalues not converged
     c_bands:  1 eigenvalues not converged
     c_bands:  1 eigenvalues not converged
     c_bands:  1 eigenvalues not converged
     ethr =  1.77E-05,  avg # of iterations = 11.9

     total cpu time spent up to now is       74.6 secs

     total energy              =    -360.49766557 Ry
     estimated scf accuracy    <       0.13879939 Ry

     iteration # 13     ecut=    50.00 Ry     beta= 0.30
     Davidson diagonalization with overlap
     ethr =  1.77E-05,  avg # of iterations =  2.6

     total cpu time spent up to now is       78.9 secs

     total energy              =    -360.47112576 Ry
     estimated scf accuracy    <       0.11295304 Ry

     iteration # 14     ecut=    50.00 Ry     beta= 0.30
     Davidson diagonalization with overlap
     c_bands:  1 eigenvalues not converged
     c_bands:  2 eigenvalues not converged
     c_bands:  1 eigenvalues not converged
     c_bands:  1 eigenvalues not converged
     c_bands:  1 eigenvalues not converged
     c_bands:  1 eigenvalues not converged
     c_bands:  1 eigenvalues not converged
     c_bands:  1 eigenvalues not converged
     c_bands:  1 eigenvalues not converged
     c_bands:  1 eigenvalues not converged
     c_bands:  1 eigenvalues not converged
     c_bands:  1 eigenvalues not converged
     c_bands:  1 eigenvalues not converged
     c_bands:  1 eigenvalues not converged
     c_bands:  1 eigenvalues not converged
     c_bands:  1 eigenvalues not converged
     c_bands:  1 eigenvalues not converged
     c_bands:  1 eigenvalues not converged
     c_bands:  1 eigenvalues not converged
     c_bands:  1 eigenvalues not converged
     ethr =  1.77E-05,  avg # of iterations = 14.5

     total cpu time spent up to now is       90.1 secs

     total energy              =    -360.48852489 Ry
     estimated scf accuracy    <       0.00151808 Ry

     iteration # 15     ecut=    50.00 Ry     beta= 0.30
     Davidson diagonalization with overlap
     c_bands:  1 eigenvalues not converged
     c_bands:  1 eigenvalues not converged
     ethr =  4.22E-06,  avg # of iterations = 11.9

     total cpu time spent up to now is       98.8 secs

     total energy              =    -360.48928763 Ry
     estimated scf accuracy    <       0.00821209 Ry

     iteration # 16     ecut=    50.00 Ry     beta= 0.30
     Davidson diagonalization with overlap
     ethr =  4.22E-06,  avg # of iterations =  4.6

     total cpu time spent up to now is      103.6 secs

     total energy              =    -360.48939436 Ry
     estimated scf accuracy    <       0.00329382 Ry

     iteration # 17     ecut=    50.00 Ry     beta= 0.30
     Davidson diagonalization with overlap
     ethr =  4.22E-06,  avg # of iterations =  1.9

     total cpu time spent up to now is      107.5 secs

     total energy              =    -360.48910973 Ry
     estimated scf accuracy    <       0.00262629 Ry

     iteration # 18     ecut=    50.00 Ry     beta= 0.30
     Davidson diagonalization with overlap
     ethr =  4.22E-06,  avg # of iterations =  5.0

     total cpu time spent up to now is      112.6 secs

     total energy              =    -360.48945289 Ry
     estimated scf accuracy    <       0.00030785 Ry

     iteration # 19     ecut=    50.00 Ry     beta= 0.30
     Davidson diagonalization with overlap
     c_bands:  1 eigenvalues not converged
     ethr =  8.55E-07,  avg # of iterations =  6.1

     total cpu time spent up to now is      118.0 secs

     total energy              =    -360.48953707 Ry
     estimated scf accuracy    <       0.00002550 Ry

     iteration # 20     ecut=    50.00 Ry     beta= 0.30
     Davidson diagonalization with overlap
     c_bands:  1 eigenvalues not converged
     c_bands:  1 eigenvalues not converged
     c_bands:  1 eigenvalues not converged
     c_bands:  1 eigenvalues not converged
     c_bands:  1 eigenvalues not converged
     c_bands:  1 eigenvalues not converged
     c_bands:  1 eigenvalues not converged
     c_bands:  1 eigenvalues not converged
     c_bands:  1 eigenvalues not converged
     c_bands:  1 eigenvalues not converged
     c_bands:  1 eigenvalues not converged
     c_bands:  1 eigenvalues not converged
     c_bands:  1 eigenvalues not converged
     c_bands:  2 eigenvalues not converged
     c_bands:  2 eigenvalues not converged
     c_bands:  1 eigenvalues not converged
     c_bands:  2 eigenvalues not converged
     c_bands:  1 eigenvalues not converged
     c_bands:  1 eigenvalues not converged
     c_bands:  1 eigenvalues not converged
     c_bands:  1 eigenvalues not converged
     c_bands:  1 eigenvalues not converged
     c_bands:  1 eigenvalues not converged
     c_bands:  1 eigenvalues not converged
     c_bands:  1 eigenvalues not converged
     c_bands:  1 eigenvalues not converged
     c_bands:  1 eigenvalues not converged
     c_bands:  1 eigenvalues not converged
     c_bands:  1 eigenvalues not converged
     c_bands:  1 eigenvalues not converged
     c_bands:  1 eigenvalues not converged
     c_bands:  1 eigenvalues not converged
     c_bands:  1 eigenvalues not converged
     c_bands:  1 eigenvalues not converged
     ethr =  7.08E-08,  avg # of iterations = 16.5

     total cpu time spent up to now is      131.5 secs

     total energy              =    -360.48977604 Ry
     estimated scf accuracy    <       0.00105021 Ry

     iteration # 21     ecut=    50.00 Ry     beta= 0.30
     Davidson diagonalization with overlap
     ethr =  7.08E-08,  avg # of iterations =  6.5

     total cpu time spent up to now is      136.7 secs

     total energy              =    -360.48994999 Ry
     estimated scf accuracy    <       0.00148476 Ry

     iteration # 22     ecut=    50.00 Ry     beta= 0.30
     Davidson diagonalization with overlap
     c_bands:  1 eigenvalues not converged
     c_bands:  1 eigenvalues not converged
     c_bands:  2 eigenvalues not converged
     c_bands:  1 eigenvalues not converged
     ethr =  7.08E-08,  avg # of iterations = 12.0

     total cpu time spent up to now is      145.3 secs

     total energy              =    -360.48997185 Ry
     estimated scf accuracy    <       0.00308142 Ry

     iteration # 23     ecut=    50.00 Ry     beta= 0.30
     Davidson diagonalization with overlap
     ethr =  7.08E-08,  avg # of iterations =  1.2

     total cpu time spent up to now is      148.9 secs

     total energy              =    -360.49008839 Ry
     estimated scf accuracy    <       0.00304941 Ry

     iteration # 24     ecut=    50.00 Ry     beta= 0.30
     Davidson diagonalization with overlap
     ethr =  7.08E-08,  avg # of iterations =  4.2

     total cpu time spent up to now is      153.6 secs

     total energy              =    -360.49011989 Ry
     estimated scf accuracy    <       0.00351163 Ry

     iteration # 25     ecut=    50.00 Ry     beta= 0.30
     Davidson diagonalization with overlap
     ethr =  7.08E-08,  avg # of iterations =  2.7

     total cpu time spent up to now is      157.9 secs

     total energy              =    -360.49013146 Ry
     estimated scf accuracy    <       0.00372082 Ry

     iteration # 26     ecut=    50.00 Ry     beta= 0.30
     Davidson diagonalization with overlap
     ethr =  7.08E-08,  avg # of iterations =  3.3

     total cpu time spent up to now is      162.4 secs

     total energy              =    -360.49016891 Ry
     estimated scf accuracy    <       0.00399097 Ry

     iteration # 27     ecut=    50.00 Ry     beta= 0.30
     Davidson diagonalization with overlap
     ethr =  7.08E-08,  avg # of iterations =  1.9

     total cpu time spent up to now is      166.5 secs

     total energy              =    -360.48938187 Ry
     estimated scf accuracy    <       0.00414612 Ry

     iteration # 28     ecut=    50.00 Ry     beta= 0.30
     Davidson diagonalization with overlap
     c_bands:  2 eigenvalues not converged
     c_bands:  1 eigenvalues not converged
     c_bands:  1 eigenvalues not converged
     c_bands:  1 eigenvalues not converged
     c_bands:  1 eigenvalues not converged
     c_bands:  1 eigenvalues not converged
     c_bands:  1 eigenvalues not converged
     c_bands:  1 eigenvalues not converged
     c_bands:  1 eigenvalues not converged
     c_bands:  1 eigenvalues not converged
     c_bands:  1 eigenvalues not converged
     c_bands:  1 eigenvalues not converged
     c_bands:  1 eigenvalues not converged
     c_bands:  1 eigenvalues not converged
     c_bands:  1 eigenvalues not converged
     c_bands:  1 eigenvalues not converged
     c_bands:  1 eigenvalues not converged
     c_bands:  1 eigenvalues not converged
     c_bands:  3 eigenvalues not converged
     c_bands:  1 eigenvalues not converged
     c_bands:  1 eigenvalues not converged
     c_bands:  1 eigenvalues not converged
     c_bands:  1 eigenvalues not converged
     c_bands:  1 eigenvalues not converged
     c_bands:  1 eigenvalues not converged
     c_bands:  1 eigenvalues not converged
     c_bands:  1 eigenvalues not converged
     c_bands:  1 eigenvalues not converged
     c_bands:  2 eigenvalues not converged
     c_bands:  1 eigenvalues not converged
     c_bands:  2 eigenvalues not converged
     c_bands:  2 eigenvalues not converged
     c_bands:  1 eigenvalues not converged
     c_bands:  1 eigenvalues not converged
     c_bands:  1 eigenvalues not converged
     c_bands:  1 eigenvalues not converged
     c_bands:  1 eigenvalues not converged
     c_bands:  1 eigenvalues not converged
     c_bands:  1 eigenvalues not converged
     c_bands:  1 eigenvalues not converged
     c_bands:  1 eigenvalues not converged
     ethr =  7.08E-08,  avg # of iterations = 17.5

     total cpu time spent up to now is      181.8 secs

     total energy              =    -360.48955896 Ry
     estimated scf accuracy    <       0.00045173 Ry

     iteration # 29     ecut=    50.00 Ry     beta= 0.30
     Davidson diagonalization with overlap
     c_bands:  1 eigenvalues not converged
     ethr =  7.08E-08,  avg # of iterations =  8.2

     total cpu time spent up to now is      187.8 secs

     total energy              =    -360.48955089 Ry
     estimated scf accuracy    <       0.00015080 Ry

     iteration # 30     ecut=    50.00 Ry     beta= 0.30
     Davidson diagonalization with overlap
     c_bands:  1 eigenvalues not converged
     ethr =  7.08E-08,  avg # of iterations =  4.8

     total cpu time spent up to now is      192.9 secs

     total energy              =    -360.48955573 Ry
     estimated scf accuracy    <       0.00005154 Ry

     iteration # 31     ecut=    50.00 Ry     beta= 0.30
     Davidson diagonalization with overlap
     ethr =  7.08E-08,  avg # of iterations =  3.5

     total cpu time spent up to now is      197.4 secs

     total energy              =    -360.48955454 Ry
     estimated scf accuracy    <       0.00002478 Ry

     iteration # 32     ecut=    50.00 Ry     beta= 0.30
     Davidson diagonalization with overlap
     ethr =  6.88E-08,  avg # of iterations =  4.7

     total cpu time spent up to now is      202.4 secs

     total energy              =    -360.48955978 Ry
     estimated scf accuracy    <       0.00000066 Ry

     iteration # 33     ecut=    50.00 Ry     beta= 0.30
     Davidson diagonalization with overlap
     c_bands:  1 eigenvalues not converged
     c_bands:  1 eigenvalues not converged
     c_bands:  1 eigenvalues not converged
     c_bands:  1 eigenvalues not converged
     c_bands:  1 eigenvalues not converged
     c_bands:  2 eigenvalues not converged
     c_bands:  1 eigenvalues not converged
     c_bands:  1 eigenvalues not converged
     c_bands:  1 eigenvalues not converged
     c_bands:  1 eigenvalues not converged
     c_bands:  1 eigenvalues not converged
     ethr =  1.85E-09,  avg # of iterations = 12.0

     total cpu time spent up to now is      210.9 secs

     total energy              =    -360.48956157 Ry
     estimated scf accuracy    <       0.00000165 Ry

     iteration # 34     ecut=    50.00 Ry     beta= 0.30
     Davidson diagonalization with overlap
     ethr =  1.85E-09,  avg # of iterations =  3.6

     total cpu time spent up to now is      215.3 secs

     total energy              =    -360.48956139 Ry
     estimated scf accuracy    <       0.00000315 Ry

     iteration # 35     ecut=    50.00 Ry     beta= 0.30
     Davidson diagonalization with overlap
     ethr =  1.85E-09,  avg # of iterations =  1.0

     total cpu time spent up to now is      219.0 secs

     total energy              =    -360.48956127 Ry
     estimated scf accuracy    <       0.00000280 Ry

     iteration # 36     ecut=    50.00 Ry     beta= 0.30
     Davidson diagonalization with overlap
     ethr =  1.85E-09,  avg # of iterations =  1.2

     total cpu time spent up to now is      222.7 secs

     total energy              =    -360.48956083 Ry
     estimated scf accuracy    <       0.00000251 Ry

     iteration # 37     ecut=    50.00 Ry     beta= 0.30
     Davidson diagonalization with overlap
     c_bands:  1 eigenvalues not converged
     ethr =  1.85E-09,  avg # of iterations =  3.5

     total cpu time spent up to now is      227.3 secs

     total energy              =    -360.48956092 Ry
     estimated scf accuracy    <       0.00000103 Ry

     iteration # 38     ecut=    50.00 Ry     beta= 0.30
     Davidson diagonalization with overlap
     ethr =  1.85E-09,  avg # of iterations =  1.4

     total cpu time spent up to now is      231.1 secs

     total energy              =    -360.48956068 Ry
     estimated scf accuracy    <       0.00000086 Ry

     iteration # 39     ecut=    50.00 Ry     beta= 0.30
     Davidson diagonalization with overlap
     c_bands:  1 eigenvalues not converged
     ethr =  1.85E-09,  avg # of iterations =  7.8

     total cpu time spent up to now is      237.2 secs

     total energy              =    -360.48956083 Ry
     estimated scf accuracy    <       0.00000021 Ry

     iteration # 40     ecut=    50.00 Ry     beta= 0.30
     Davidson diagonalization with overlap
     c_bands:  2 eigenvalues not converged
     c_bands:  1 eigenvalues not converged
     c_bands:  1 eigenvalues not converged
     c_bands:  1 eigenvalues not converged
     c_bands:  1 eigenvalues not converged
     c_bands:  1 eigenvalues not converged
     c_bands:  1 eigenvalues not converged
     c_bands:  1 eigenvalues not converged
     c_bands:  1 eigenvalues not converged
     ethr =  5.89E-10,  avg # of iterations = 12.6

     total cpu time spent up to now is      247.2 secs

     total energy              =    -360.48956092 Ry
     estimated scf accuracy    <       0.00000239 Ry

     iteration # 41     ecut=    50.00 Ry     beta= 0.30
     Davidson diagonalization with overlap
     ethr =  5.89E-10,  avg # of iterations =  7.3

     total cpu time spent up to now is      253.4 secs

     total energy              =    -360.48956087 Ry
     estimated scf accuracy    <       0.00000056 Ry

     iteration # 42     ecut=    50.00 Ry     beta= 0.30
     Davidson diagonalization with overlap
     ethr =  5.89E-10,  avg # of iterations =  5.9

     total cpu time spent up to now is      258.6 secs

     total energy              =    -360.48956093 Ry
     estimated scf accuracy    <       0.00000003 Ry

     iteration # 43     ecut=    50.00 Ry     beta= 0.30
     Davidson diagonalization with overlap
     c_bands:  1 eigenvalues not converged
     c_bands:  2 eigenvalues not converged
     c_bands:  1 eigenvalues not converged
     c_bands:  1 eigenvalues not converged
     c_bands:  1 eigenvalues not converged
     c_bands:  1 eigenvalues not converged
     c_bands:  1 eigenvalues not converged
     ethr =  7.02E-11,  avg # of iterations = 10.2

     total cpu time spent up to now is      266.7 secs

     total energy              =    -360.48956096 Ry
     estimated scf accuracy    <       0.00000007 Ry

     iteration # 44     ecut=    50.00 Ry     beta= 0.30
     Davidson diagonalization with overlap
     ethr =  7.02E-11,  avg # of iterations =  4.3

     total cpu time spent up to now is      271.3 secs

     total energy              =    -360.48956097 Ry
     estimated scf accuracy    <       0.00000002 Ry

     iteration # 45     ecut=    50.00 Ry     beta= 0.30
     Davidson diagonalization with overlap
     ethr =  5.43E-11,  avg # of iterations =  1.6

     total cpu time spent up to now is      275.1 secs

     total energy              =    -360.48956097 Ry
     estimated scf accuracy    <       0.00000002 Ry

     iteration # 46     ecut=    50.00 Ry     beta= 0.30
     Davidson diagonalization with overlap
     ethr =  4.89E-11,  avg # of iterations =  3.2

     total cpu time spent up to now is      279.3 secs

     End of self-consistent calculation

     Number of k-points >= 100: set verbosity='high' to print the bands.

     highest occupied level (ev):    12.7036

!    total energy              =    -360.48956096 Ry
     estimated scf accuracy    <          6.4E-09 Ry

     The total energy is the sum of the following terms:
     one-electron contribution =    -153.73362950 Ry
     hartree contribution      =     121.28125160 Ry
     xc contribution           =    -110.06838809 Ry
     ewald contribution        =    -217.96879498 Ry

     convergence has been achieved in  46 iterations

     Forces acting on atoms (cartesian axes, Ry/au):

     atom    1 type  1   force =    -0.76531553   -0.42877949   -0.00837306
     atom    2 type  1   force =     0.20736286    0.04118672   -0.80209852
     atom    3 type  2   force =    -0.02942077    0.00146742    0.24269437
     atom    4 type  2   force =     0.58737345    0.38612534    0.56777721
     The non-local contrib.  to forces
     atom    1 type  1   force =    -0.36699352   -0.30384799   -0.56747202
     atom    2 type  1   force =    -0.03563900   -0.04987264   -0.01671067
     atom    3 type  2   force =    -0.03447913    0.18793644    0.06126063
     atom    4 type  2   force =    -0.09474709   -0.27769025   -1.43305510
     The ionic contribution  to forces
     atom    1 type  1   force =    -7.95151835   -4.15794093    2.90449866
     atom    2 type  1   force =     3.23490684    1.47641789  -28.96929157
     atom    3 type  2   force =    -0.07812201   -1.13324376    7.32917692
     atom    4 type  2   force =     4.79473352    3.81476679   18.73561599
     The local contribution  to forces
     atom    1 type  1   force =     7.46015443    3.97818668   -2.39164659
     atom    2 type  1   force =    -2.97581007   -1.37473440   28.09259574
     atom    3 type  2   force =     0.08277578    0.94838895   -7.14575446
     atom    4 type  2   force =    -4.11070433   -3.15154921  -16.74292807
     The core correction contribution to forces
     atom    1 type  1   force =     0.09300298    0.05481475    0.04637772
     atom    2 type  1   force =    -0.01608366   -0.01063834    0.09115900
     atom    3 type  2   force =     0.00041412   -0.00161642   -0.00198049
     atom    4 type  2   force =    -0.00187606    0.00058043    0.00827496
     The Hubbard contrib.    to forces
     atom    1 type  1   force =     0.00000000    0.00000000    0.00000000
     atom    2 type  1   force =     0.00000000    0.00000000    0.00000000
     atom    3 type  2   force =     0.00000000    0.00000000    0.00000000
     atom    4 type  2   force =     0.00000000    0.00000000    0.00000000
     The SCF correction term to forces
     atom    1 type  1   force =     0.00004460    0.00001016   -0.00013158
     atom    2 type  1   force =    -0.00000559    0.00001637    0.00014825
     atom    3 type  2   force =    -0.00000386    0.00000437   -0.00000896
     atom    4 type  2   force =    -0.00002691    0.00001973   -0.00013129

     Total force =     1.527720     Total SCF correction =     0.000245

     Writing all to output data dir ./ZnO_ANN.save/

     init_run     :      2.87s CPU      2.94s WALL (       1 calls)
     electrons    :    270.65s CPU    275.94s WALL (       1 calls)
     forces       :      0.78s CPU      0.79s WALL (       1 calls)

     Called by init_run:
     wfcinit      :      2.10s CPU      2.14s WALL (       1 calls)
     potinit      :      0.21s CPU      0.21s WALL (       1 calls)
     hinit0       :      0.51s CPU      0.52s WALL (       1 calls)

     Called by electrons:
     c_bands      :    241.31s CPU    245.92s WALL (      46 calls)
     sum_band     :     26.72s CPU     27.31s WALL (      46 calls)
     v_of_rho     :      0.54s CPU      0.58s WALL (      47 calls)
     newd         :      1.98s CPU      2.01s WALL (      47 calls)
     mix_rho      :      0.10s CPU      0.10s WALL (      46 calls)

     Called by c_bands:
     init_us_2    :      1.56s CPU      1.58s WALL (   10528 calls)
     init_us_2:cp :      1.53s CPU      1.55s WALL (   10528 calls)
     cegterg      :    235.72s CPU    240.25s WALL (    5152 calls)

     Called by *egterg:
     cdiaghg      :     34.21s CPU     34.59s WALL (   36256 calls)
     h_psi        :    133.13s CPU    136.28s WALL (   36368 calls)
     s_psi        :     11.21s CPU     11.38s WALL (   36368 calls)
     g_psi        :      0.43s CPU      0.44s WALL (   31104 calls)

     Called by h_psi:
     h_psi:calbec :     17.13s CPU     17.72s WALL (   36368 calls)
     vloc_psi     :    104.34s CPU    106.75s WALL (   36368 calls)
     add_vuspsi   :     11.22s CPU     11.37s WALL (   36368 calls)

     General routines
     calbec       :     22.96s CPU     23.75s WALL (   41968 calls)
     fft          :      0.83s CPU      0.90s WALL (     620 calls)
     ffts         :      0.12s CPU      0.12s WALL (      93 calls)
     fftw         :    111.64s CPU    114.21s WALL (  658306 calls)
     interpolate  :      0.13s CPU      0.13s WALL (      47 calls)

     Parallel routines

     PWSCF        :   4m35.01s CPU   4m40.47s WALL


   This run was terminated on:  12:37: 4  23Jun2025            

=------------------------------------------------------------------------------=
   JOB DONE.
=------------------------------------------------------------------------------=
Note: The following floating-point exceptions are signalling: IEEE_INVALID_FLAG
