
     Program PWSCF v.7.2 starts on 23Jun2025 at 16:39:28 

     This program is part of the open-source Quantum ESPRESSO suite
     for quantum simulation of materials; please cite
         "P. Giannozzi et al., J. Phys.:Condens. Matter 21 395502 (2009);
         "P. Giannozzi et al., J. Phys.:Condens. Matter 29 465901 (2017);
         "P. Giannozzi et al., J. Chem. Phys. 152 154105 (2020);
          URL http://www.quantum-espresso.org", 
     in publications or presentations arising from this work. More details at
     http://www.quantum-espresso.org/quote

     Parallel version (MPI), running on     8 processors

     MPI processes distributed on     1 nodes
     90925 MiB available memory on the printing compute node when the environment starts

     Reading input from /home/jvc/QEspresso7.2/ZnO_DataBase/scfs_rnd025.in/scf-6.55-1.52-3.in

     Current dimensions of program PWSCF are:
     Max number of different atomic species (ntypx) = 10
     Max number of k-points (npk) =  40000
     Max angular momentum in pseudopotentials (lmaxx) =  4
     file Zn.upf: wavefunction(s)  3D renormalized

     R & G space division:  proc/nbgrp/npool/nimage =       8
     Subspace diagonalization in iterative solution of the eigenvalue problem:
     a serial algorithm will be used


     Parallelization info
     --------------------
     sticks:   dense  smooth     PW     G-vecs:    dense   smooth      PW
     Min         147      72     22                 6223     2196     370
     Max         148      73     24                 6225     2205     372
     Sum        1177     583    187                49791    17619    2971

     Using Slab Decomposition



     bravais-lattice index     =            4
     lattice parameter (alat)  =       6.5496  a.u.
     unit-cell volume          =     369.2266 (a.u.)^3
     number of atoms/cell      =            4
     number of atomic types    =            2
     number of electrons       =        36.00
     number of Kohn-Sham states=           18
     kinetic-energy cutoff     =      50.0000  Ry
     charge density cutoff     =     400.0000  Ry
     scf convergence threshold =      1.0E-08
     mixing beta               =       0.3000
     number of iterations used =            8  plain     mixing
     Exchange-correlation= PBE
                           (   1   4   3   4   0   0   0)

     celldm(1)=   6.549551  celldm(2)=   0.000000  celldm(3)=   1.517497
     celldm(4)=   0.000000  celldm(5)=   0.000000  celldm(6)=   0.000000

     crystal axes: (cart. coord. in units of alat)
               a(1) = (   1.000000   0.000000   0.000000 )  
               a(2) = (  -0.500000   0.866025   0.000000 )  
               a(3) = (   0.000000   0.000000   1.517497 )  

     reciprocal axes: (cart. coord. in units 2 pi/alat)
               b(1) = (  1.000000  0.577350 -0.000000 )  
               b(2) = (  0.000000  1.154701  0.000000 )  
               b(3) = (  0.000000 -0.000000  0.658980 )  


     PseudoPot. # 1 for Zn read from file:
     ./pseudos/Zn.upf
     MD5 check sum: 7f56cabf9682ed8c977c2f7d0c5985c5
     Pseudo is Ultrasoft + core correction, Zval = 12.0
     Generated using &quot;atomic&quot; code by A. Dal Corso  v.6.2.2
     Using radial grid of 1201 points,  6 beta functions with: 
                l(1) =   0
                l(2) =   0
                l(3) =   1
                l(4) =   1
                l(5) =   2
                l(6) =   2
     Q(r) pseudized with 0 coefficients 


     PseudoPot. # 2 for O  read from file:
     ./pseudos/O.upf
     MD5 check sum: 91400c9766925bcf19f520983a725ff0
     Pseudo is Ultrasoft + core correction, Zval =  6.0
     Generated using &quot;atomic&quot; code by A. Dal Corso  v.6.3MaX
     Using radial grid of 1095 points,  4 beta functions with: 
                l(1) =   0
                l(2) =   0
                l(3) =   1
                l(4) =   1
     Q(r) pseudized with 0 coefficients 


     atomic species   valence    mass     pseudopotential
        Zn            12.00    63.38000     Zn( 1.00)
        O              6.00    15.99900     O ( 1.00)

     No symmetry found



   Cartesian axes

     site n.     atom                  positions (alat units)
         1           Zn  tau(   1) = (   0.6709522   0.3993586   0.3816089  )
         2           Zn  tau(   2) = (  -0.2994452   0.6995951  -0.0950425  )
         3           O   tau(   3) = (   0.6563696   0.0982882   1.7048657  )
         4           O   tau(   4) = (   0.1404410   0.5283254   0.3943036  )

     number of k points=   112

     Number of k-points >= 100: set verbosity='high' to print them.

     Dense  grid:    49791 G-vectors     FFT dimensions: (  45,  45,  64)

     Smooth grid:    17619 G-vectors     FFT dimensions: (  30,  30,  45)

     Estimated max dynamical RAM per process >      33.93 MB

     Estimated total dynamical RAM >     271.41 MB

     Check: negative core charge=   -0.000002

     Initial potential from superposition of free atoms

     starting charge      35.9925, renormalised to      36.0000
     Starting wfcs are   26 randomized atomic wfcs

     total cpu time spent up to now is        4.2 secs

     Self-consistent Calculation

     iteration #  1     ecut=    50.00 Ry     beta= 0.30
     Davidson diagonalization with overlap
     ethr =  1.00E-02,  avg # of iterations =  2.4

     total cpu time spent up to now is       10.5 secs

     total energy              =    -359.68127716 Ry
     estimated scf accuracy    <       1.73294003 Ry

     iteration #  2     ecut=    50.00 Ry     beta= 0.30
     Davidson diagonalization with overlap
     ethr =  4.81E-03,  avg # of iterations =  8.6

     total cpu time spent up to now is       18.7 secs

     total energy              =    -360.12083813 Ry
     estimated scf accuracy    <       0.30185806 Ry

     iteration #  3     ecut=    50.00 Ry     beta= 0.30
     Davidson diagonalization with overlap
     ethr =  8.38E-04,  avg # of iterations =  4.5

     total cpu time spent up to now is       26.0 secs

     total energy              =    -360.13329511 Ry
     estimated scf accuracy    <       0.10863531 Ry

     iteration #  4     ecut=    50.00 Ry     beta= 0.30
     Davidson diagonalization with overlap
     ethr =  3.02E-04,  avg # of iterations = 10.4

     total cpu time spent up to now is       35.8 secs

     total energy              =    -360.17742094 Ry
     estimated scf accuracy    <       0.16155006 Ry

     iteration #  5     ecut=    50.00 Ry     beta= 0.30
     Davidson diagonalization with overlap
     ethr =  3.02E-04,  avg # of iterations =  5.4

     total cpu time spent up to now is       42.3 secs

     total energy              =    -360.18000653 Ry
     estimated scf accuracy    <       0.02820148 Ry

     iteration #  6     ecut=    50.00 Ry     beta= 0.30
     Davidson diagonalization with overlap
     c_bands:  1 eigenvalues not converged
     ethr =  7.83E-05,  avg # of iterations =  8.9

     total cpu time spent up to now is       52.0 secs

     total energy              =    -360.20226074 Ry
     estimated scf accuracy    <       0.02324474 Ry

     iteration #  7     ecut=    50.00 Ry     beta= 0.30
     Davidson diagonalization with overlap
     ethr =  6.46E-05,  avg # of iterations =  2.1

     total cpu time spent up to now is       57.6 secs

     total energy              =    -360.19087311 Ry
     estimated scf accuracy    <       0.03393853 Ry

     iteration #  8     ecut=    50.00 Ry     beta= 0.30
     Davidson diagonalization with overlap
     ethr =  6.46E-05,  avg # of iterations =  4.0

     total cpu time spent up to now is       64.1 secs

     total energy              =    -360.19157728 Ry
     estimated scf accuracy    <       0.00566213 Ry

     iteration #  9     ecut=    50.00 Ry     beta= 0.30
     Davidson diagonalization with overlap
     ethr =  1.57E-05,  avg # of iterations = 10.3

     total cpu time spent up to now is       75.4 secs

     total energy              =    -360.19638104 Ry
     estimated scf accuracy    <       0.00984191 Ry

     iteration # 10     ecut=    50.00 Ry     beta= 0.30
     Davidson diagonalization with overlap
     ethr =  1.57E-05,  avg # of iterations =  1.2

     total cpu time spent up to now is       80.6 secs

     total energy              =    -360.19321552 Ry
     estimated scf accuracy    <       0.00785603 Ry

     iteration # 11     ecut=    50.00 Ry     beta= 0.30
     Davidson diagonalization with overlap
     ethr =  1.57E-05,  avg # of iterations =  7.0

     total cpu time spent up to now is       89.4 secs

     total energy              =    -360.19564953 Ry
     estimated scf accuracy    <       0.00058429 Ry

     iteration # 12     ecut=    50.00 Ry     beta= 0.30
     Davidson diagonalization with overlap
     ethr =  1.62E-06,  avg # of iterations =  9.0

     total cpu time spent up to now is       99.0 secs

     total energy              =    -360.19523469 Ry
     estimated scf accuracy    <       0.00348624 Ry

     iteration # 13     ecut=    50.00 Ry     beta= 0.30
     Davidson diagonalization with overlap
     ethr =  1.62E-06,  avg # of iterations =  8.3

     total cpu time spent up to now is      108.1 secs

     total energy              =    -360.19541389 Ry
     estimated scf accuracy    <       0.00027977 Ry

     iteration # 14     ecut=    50.00 Ry     beta= 0.30
     Davidson diagonalization with overlap
     c_bands:  1 eigenvalues not converged
     ethr =  7.77E-07,  avg # of iterations =  8.5

     total cpu time spent up to now is      117.5 secs

     total energy              =    -360.19557572 Ry
     estimated scf accuracy    <       0.00016731 Ry

     iteration # 15     ecut=    50.00 Ry     beta= 0.30
     Davidson diagonalization with overlap
     ethr =  4.65E-07,  avg # of iterations =  2.2

     total cpu time spent up to now is      123.2 secs

     total energy              =    -360.19554959 Ry
     estimated scf accuracy    <       0.00020395 Ry

     iteration # 16     ecut=    50.00 Ry     beta= 0.30
     Davidson diagonalization with overlap
     ethr =  4.65E-07,  avg # of iterations =  1.5

     total cpu time spent up to now is      128.4 secs

     total energy              =    -360.19549372 Ry
     estimated scf accuracy    <       0.00012688 Ry

     iteration # 17     ecut=    50.00 Ry     beta= 0.30
     Davidson diagonalization with overlap
     ethr =  3.52E-07,  avg # of iterations =  8.2

     total cpu time spent up to now is      137.0 secs

     total energy              =    -360.19555685 Ry
     estimated scf accuracy    <       0.00007923 Ry

     iteration # 18     ecut=    50.00 Ry     beta= 0.30
     Davidson diagonalization with overlap
     ethr =  2.20E-07,  avg # of iterations =  1.3

     total cpu time spent up to now is      141.9 secs

     total energy              =    -360.19553428 Ry
     estimated scf accuracy    <       0.00007280 Ry

     iteration # 19     ecut=    50.00 Ry     beta= 0.30
     Davidson diagonalization with overlap
     ethr =  2.02E-07,  avg # of iterations =  3.5

     total cpu time spent up to now is      147.5 secs

     total energy              =    -360.19552960 Ry
     estimated scf accuracy    <       0.00001600 Ry

     iteration # 20     ecut=    50.00 Ry     beta= 0.30
     Davidson diagonalization with overlap
     c_bands:  1 eigenvalues not converged
     c_bands:  1 eigenvalues not converged
     c_bands:  1 eigenvalues not converged
     ethr =  4.44E-08,  avg # of iterations = 14.3

     total cpu time spent up to now is      161.1 secs

     total energy              =    -360.19554076 Ry
     estimated scf accuracy    <       0.00012475 Ry

     iteration # 21     ecut=    50.00 Ry     beta= 0.30
     Davidson diagonalization with overlap
     ethr =  4.44E-08,  avg # of iterations =  7.7

     total cpu time spent up to now is      169.0 secs

     total energy              =    -360.19554332 Ry
     estimated scf accuracy    <       0.00002419 Ry

     iteration # 22     ecut=    50.00 Ry     beta= 0.30
     Davidson diagonalization with overlap
     ethr =  4.44E-08,  avg # of iterations =  2.3

     total cpu time spent up to now is      174.3 secs

     total energy              =    -360.19554273 Ry
     estimated scf accuracy    <       0.00001325 Ry

     iteration # 23     ecut=    50.00 Ry     beta= 0.30
     Davidson diagonalization with overlap
     ethr =  3.68E-08,  avg # of iterations =  3.6

     total cpu time spent up to now is      180.3 secs

     total energy              =    -360.19554467 Ry
     estimated scf accuracy    <       0.00000305 Ry

     iteration # 24     ecut=    50.00 Ry     beta= 0.30
     Davidson diagonalization with overlap
     c_bands:  1 eigenvalues not converged
     ethr =  8.46E-09,  avg # of iterations =  7.2

     total cpu time spent up to now is      187.8 secs

     total energy              =    -360.19554599 Ry
     estimated scf accuracy    <       0.00000010 Ry

     iteration # 25     ecut=    50.00 Ry     beta= 0.30
     Davidson diagonalization with overlap
     c_bands:  1 eigenvalues not converged
     ethr =  2.70E-10,  avg # of iterations = 11.1

     total cpu time spent up to now is      197.9 secs

     total energy              =    -360.19554618 Ry
     estimated scf accuracy    <       0.00000038 Ry

     iteration # 26     ecut=    50.00 Ry     beta= 0.30
     Davidson diagonalization with overlap
     ethr =  2.70E-10,  avg # of iterations =  3.8

     total cpu time spent up to now is      203.7 secs

     total energy              =    -360.19554632 Ry
     estimated scf accuracy    <       0.00000062 Ry

     iteration # 27     ecut=    50.00 Ry     beta= 0.30
     Davidson diagonalization with overlap
     ethr =  2.70E-10,  avg # of iterations = 10.0

     total cpu time spent up to now is      212.9 secs

     total energy              =    -360.19554621 Ry
     estimated scf accuracy    <       0.00000208 Ry

     iteration # 28     ecut=    50.00 Ry     beta= 0.30
     Davidson diagonalization with overlap
     ethr =  2.70E-10,  avg # of iterations =  3.0

     total cpu time spent up to now is      218.4 secs

     total energy              =    -360.19554597 Ry
     estimated scf accuracy    <       0.00000166 Ry

     iteration # 29     ecut=    50.00 Ry     beta= 0.30
     Davidson diagonalization with overlap
     c_bands:  1 eigenvalues not converged
     ethr =  2.70E-10,  avg # of iterations = 11.4

     total cpu time spent up to now is      229.4 secs

     total energy              =    -360.19554612 Ry
     estimated scf accuracy    <       0.00000023 Ry

     iteration # 30     ecut=    50.00 Ry     beta= 0.30
     Davidson diagonalization with overlap
     ethr =  2.70E-10,  avg # of iterations =  1.4

     total cpu time spent up to now is      234.5 secs

     total energy              =    -360.19554613 Ry
     estimated scf accuracy    <       0.00000031 Ry

     iteration # 31     ecut=    50.00 Ry     beta= 0.30
     Davidson diagonalization with overlap
     ethr =  2.70E-10,  avg # of iterations =  1.2

     total cpu time spent up to now is      239.5 secs

     total energy              =    -360.19554602 Ry
     estimated scf accuracy    <       0.00000036 Ry

     iteration # 32     ecut=    50.00 Ry     beta= 0.30
     Davidson diagonalization with overlap
     ethr =  2.70E-10,  avg # of iterations =  8.3

     total cpu time spent up to now is      247.7 secs

     End of self-consistent calculation

     Number of k-points >= 100: set verbosity='high' to print the bands.

     highest occupied level (ev):     7.8018

!    total energy              =    -360.19554605 Ry
     estimated scf accuracy    <          9.1E-09 Ry

     The total energy is the sum of the following terms:
     one-electron contribution =    -281.66336073 Ry
     hartree contribution      =     178.55401751 Ry
     xc contribution           =    -110.02026061 Ry
     ewald contribution        =    -147.06594222 Ry

     convergence has been achieved in  32 iterations

     Forces acting on atoms (cartesian axes, Ry/au):

     atom    1 type  1   force =    -0.05256832    1.70709338    1.45842236
     atom    2 type  1   force =     0.00491397    0.15827925   -0.28609181
     atom    3 type  2   force =    -0.09369392   -1.81146027   -1.31449200
     atom    4 type  2   force =     0.14134827   -0.05391236    0.14216146
     The non-local contrib.  to forces
     atom    1 type  1   force =    -0.18153367    0.74330386    0.22391676
     atom    2 type  1   force =     0.02021564    0.07699296    0.21940633
     atom    3 type  2   force =    -0.13404875    0.35211211    0.21922766
     atom    4 type  2   force =    -0.24276983   -0.05467308    0.14117517
     The ionic contribution  to forces
     atom    1 type  1   force =    -2.46025790    9.09870576   33.83128116
     atom    2 type  1   force =    -1.18333074    5.09259043  -34.57807340
     atom    3 type  2   force =     0.26038608  -13.29886146  -11.52374870
     atom    4 type  2   force =     3.38320257   -0.89243473   12.27054094
     The local contribution  to forces
     atom    1 type  1   force =     2.56538381   -7.95626064  -32.45421111
     atom    2 type  1   force =     1.16299027   -5.00137573   34.04987662
     atom    3 type  2   force =    -0.22149998   11.13017759    9.98646685
     atom    4 type  2   force =    -3.00020681    0.89268135  -12.26674894
     The core correction contribution to forces
     atom    1 type  1   force =     0.02387348   -0.17861692   -0.14249758
     atom    2 type  1   force =     0.00505065   -0.00993717    0.02277955
     atom    3 type  2   force =     0.00146370    0.00503419    0.00363992
     atom    4 type  2   force =     0.00112398    0.00051718   -0.00280129
     The Hubbard contrib.    to forces
     atom    1 type  1   force =     0.00000000    0.00000000    0.00000000
     atom    2 type  1   force =     0.00000000    0.00000000    0.00000000
     atom    3 type  2   force =     0.00000000    0.00000000    0.00000000
     atom    4 type  2   force =     0.00000000    0.00000000    0.00000000
     The SCF correction term to forces
     atom    1 type  1   force =    -0.00003946   -0.00004332   -0.00008269
     atom    2 type  1   force =    -0.00001728    0.00000410   -0.00009672
     atom    3 type  2   force =    -0.00000039    0.00007265   -0.00009354
     atom    4 type  2   force =    -0.00000706   -0.00000774   -0.00002024

     Total force =     3.195623     Total SCF correction =     0.000186

     Writing all to output data dir ./ZnO_ANN.save/

     init_run     :      3.60s CPU      3.71s WALL (       1 calls)
     electrons    :    239.34s CPU    243.54s WALL (       1 calls)
     forces       :      1.15s CPU      1.16s WALL (       1 calls)

     Called by init_run:
     wfcinit      :      2.80s CPU      2.87s WALL (       1 calls)
     potinit      :      0.27s CPU      0.28s WALL (       1 calls)
     hinit0       :      0.44s CPU      0.46s WALL (       1 calls)

     Called by electrons:
     c_bands      :    211.75s CPU    215.36s WALL (      32 calls)
     sum_band     :     24.90s CPU     25.40s WALL (      32 calls)
     v_of_rho     :      0.55s CPU      0.60s WALL (      33 calls)
     newd         :      2.06s CPU      2.09s WALL (      33 calls)
     mix_rho      :      0.09s CPU      0.10s WALL (      32 calls)

     Called by c_bands:
     init_us_2    :      1.80s CPU      1.83s WALL (    7392 calls)
     init_us_2:cp :      1.77s CPU      1.80s WALL (    7392 calls)
     cegterg      :    205.88s CPU    209.39s WALL (    3584 calls)

     Called by *egterg:
     cdiaghg      :     25.86s CPU     26.16s WALL (   25175 calls)
     h_psi        :    118.48s CPU    121.06s WALL (   25287 calls)
     s_psi        :     13.58s CPU     13.69s WALL (   25287 calls)
     g_psi        :      0.40s CPU      0.40s WALL (   21591 calls)

     Called by h_psi:
     h_psi:calbec :     16.51s CPU     17.01s WALL (   25287 calls)
     vloc_psi     :     88.00s CPU     89.94s WALL (   25287 calls)
     add_vuspsi   :     13.54s CPU     13.69s WALL (   25287 calls)

     General routines
     calbec       :     22.61s CPU     23.25s WALL (   29319 calls)
     fft          :      0.70s CPU      0.77s WALL (     438 calls)
     ffts         :      0.12s CPU      0.12s WALL (      65 calls)
     fftw         :     91.80s CPU     93.81s WALL (  437452 calls)
     interpolate  :      0.14s CPU      0.14s WALL (      33 calls)

     Parallel routines

     PWSCF        :   4m 4.83s CPU   4m 9.44s WALL


   This run was terminated on:  16:43:38  23Jun2025            

=------------------------------------------------------------------------------=
   JOB DONE.
=------------------------------------------------------------------------------=
Note: The following floating-point exceptions are signalling: IEEE_INVALID_FLAG
