
     Program PWSCF v.7.2 starts on 23Jun2025 at 13:24:59 

     This program is part of the open-source Quantum ESPRESSO suite
     for quantum simulation of materials; please cite
         "P. Giannozzi et al., J. Phys.:Condens. Matter 21 395502 (2009);
         "P. Giannozzi et al., J. Phys.:Condens. Matter 29 465901 (2017);
         "P. Giannozzi et al., J. Chem. Phys. 152 154105 (2020);
          URL http://www.quantum-espresso.org", 
     in publications or presentations arising from this work. More details at
     http://www.quantum-espresso.org/quote

     Parallel version (MPI), running on     8 processors

     MPI processes distributed on     1 nodes
     91194 MiB available memory on the printing compute node when the environment starts

     Reading input from /home/jvc/QEspresso7.2/ZnO_DataBase/scfs_rnd025.in/scf-5.93-1.68-2.in

     Current dimensions of program PWSCF are:
     Max number of different atomic species (ntypx) = 10
     Max number of k-points (npk) =  40000
     Max angular momentum in pseudopotentials (lmaxx) =  4
     file Zn.upf: wavefunction(s)  3D renormalized

     R & G space division:  proc/nbgrp/npool/nimage =       8
     Subspace diagonalization in iterative solution of the eigenvalue problem:
     a serial algorithm will be used


     Parallelization info
     --------------------
     sticks:   dense  smooth     PW     G-vecs:    dense   smooth      PW
     Min         119      61     18                 5105     1813     310
     Max         120      63     19                 5116     1816     313
     Sum         955     499    151                40881    14511    2491

     Using Slab Decomposition



     bravais-lattice index     =            4
     lattice parameter (alat)  =       5.9317  a.u.
     unit-cell volume          =     303.4552 (a.u.)^3
     number of atoms/cell      =            4
     number of atomic types    =            2
     number of electrons       =        36.00
     number of Kohn-Sham states=           18
     kinetic-energy cutoff     =      50.0000  Ry
     charge density cutoff     =     400.0000  Ry
     scf convergence threshold =      1.0E-08
     mixing beta               =       0.3000
     number of iterations used =            8  plain     mixing
     Exchange-correlation= PBE
                           (   1   4   3   4   0   0   0)

     celldm(1)=   5.931669  celldm(2)=   0.000000  celldm(3)=   1.678933
     celldm(4)=   0.000000  celldm(5)=   0.000000  celldm(6)=   0.000000

     crystal axes: (cart. coord. in units of alat)
               a(1) = (   1.000000   0.000000   0.000000 )  
               a(2) = (  -0.500000   0.866025   0.000000 )  
               a(3) = (   0.000000   0.000000   1.678933 )  

     reciprocal axes: (cart. coord. in units 2 pi/alat)
               b(1) = (  1.000000  0.577350 -0.000000 )  
               b(2) = (  0.000000  1.154701  0.000000 )  
               b(3) = (  0.000000 -0.000000  0.595616 )  


     PseudoPot. # 1 for Zn read from file:
     ./pseudos/Zn.upf
     MD5 check sum: 7f56cabf9682ed8c977c2f7d0c5985c5
     Pseudo is Ultrasoft + core correction, Zval = 12.0
     Generated using &quot;atomic&quot; code by A. Dal Corso  v.6.2.2
     Using radial grid of 1201 points,  6 beta functions with: 
                l(1) =   0
                l(2) =   0
                l(3) =   1
                l(4) =   1
                l(5) =   2
                l(6) =   2
     Q(r) pseudized with 0 coefficients 


     PseudoPot. # 2 for O  read from file:
     ./pseudos/O.upf
     MD5 check sum: 91400c9766925bcf19f520983a725ff0
     Pseudo is Ultrasoft + core correction, Zval =  6.0
     Generated using &quot;atomic&quot; code by A. Dal Corso  v.6.3MaX
     Using radial grid of 1095 points,  4 beta functions with: 
                l(1) =   0
                l(2) =   0
                l(3) =   1
                l(4) =   1
     Q(r) pseudized with 0 coefficients 


     atomic species   valence    mass     pseudopotential
        Zn            12.00    63.38000     Zn( 1.00)
        O              6.00    15.99900     O ( 1.00)

     No symmetry found



   Cartesian axes

     site n.     atom                  positions (alat units)
         1           Zn  tau(   1) = (   0.2227840   0.4080588   0.4506379  )
         2           Zn  tau(   2) = (   0.0857682   0.5994485  -0.1984150  )
         3           O   tau(   3) = (   0.3646564   0.3798926   1.1578764  )
         4           O   tau(   4) = (  -0.3045617   0.6974062   0.5393808  )

     number of k points=   112

     Number of k-points >= 100: set verbosity='high' to print them.

     Dense  grid:    40881 G-vectors     FFT dimensions: (  40,  40,  64)

     Smooth grid:    14511 G-vectors     FFT dimensions: (  27,  27,  45)

     Estimated max dynamical RAM per process >      28.39 MB

     Estimated total dynamical RAM >     227.12 MB

     Check: negative core charge=   -0.000002

     Initial potential from superposition of free atoms

     starting charge      35.9925, renormalised to      36.0000
     Starting wfcs are   26 randomized atomic wfcs

     total cpu time spent up to now is        3.8 secs

     Self-consistent Calculation

     iteration #  1     ecut=    50.00 Ry     beta= 0.30
     Davidson diagonalization with overlap
     ethr =  1.00E-02,  avg # of iterations =  2.0

     total cpu time spent up to now is        8.8 secs

     total energy              =    -360.95830333 Ry
     estimated scf accuracy    <       1.01625028 Ry

     iteration #  2     ecut=    50.00 Ry     beta= 0.30
     Davidson diagonalization with overlap
     ethr =  2.82E-03,  avg # of iterations =  2.5

     total cpu time spent up to now is       14.6 secs

     total energy              =    -361.15128970 Ry
     estimated scf accuracy    <       0.07828800 Ry

     iteration #  3     ecut=    50.00 Ry     beta= 0.30
     Davidson diagonalization with overlap
     ethr =  2.17E-04,  avg # of iterations =  8.7

     total cpu time spent up to now is       27.4 secs

     total energy              =    -361.17170061 Ry
     estimated scf accuracy    <       0.19209205 Ry

     iteration #  4     ecut=    50.00 Ry     beta= 0.30
     Davidson diagonalization with overlap
     ethr =  2.17E-04,  avg # of iterations =  6.9

     total cpu time spent up to now is       38.9 secs

     total energy              =    -361.24431854 Ry
     estimated scf accuracy    <       0.06644504 Ry

     iteration #  5     ecut=    50.00 Ry     beta= 0.30
     Davidson diagonalization with overlap
     ethr =  1.85E-04,  avg # of iterations =  1.0

     total cpu time spent up to now is       43.4 secs

     total energy              =    -361.22340309 Ry
     estimated scf accuracy    <       0.04768644 Ry

     iteration #  6     ecut=    50.00 Ry     beta= 0.30
     Davidson diagonalization with overlap
     ethr =  1.32E-04,  avg # of iterations =  3.3

     total cpu time spent up to now is       49.2 secs

     total energy              =    -361.23098325 Ry
     estimated scf accuracy    <       0.00249471 Ry

     iteration #  7     ecut=    50.00 Ry     beta= 0.30
     Davidson diagonalization with overlap
     c_bands:  2 eigenvalues not converged
     c_bands:  1 eigenvalues not converged
     ethr =  6.93E-06,  avg # of iterations =  9.0

     total cpu time spent up to now is       62.8 secs

     total energy              =    -361.23394793 Ry
     estimated scf accuracy    <       0.00499800 Ry

     iteration #  8     ecut=    50.00 Ry     beta= 0.30
     Davidson diagonalization with overlap
     ethr =  6.93E-06,  avg # of iterations =  5.2

     total cpu time spent up to now is       71.2 secs

     total energy              =    -361.23525971 Ry
     estimated scf accuracy    <       0.00044455 Ry

     iteration #  9     ecut=    50.00 Ry     beta= 0.30
     Davidson diagonalization with overlap
     c_bands:  1 eigenvalues not converged
     ethr =  1.23E-06,  avg # of iterations =  3.2

     total cpu time spent up to now is       77.4 secs

     total energy              =    -361.23531335 Ry
     estimated scf accuracy    <       0.00009077 Ry

     iteration # 10     ecut=    50.00 Ry     beta= 0.30
     Davidson diagonalization with overlap
     c_bands:  1 eigenvalues not converged
     ethr =  2.52E-07,  avg # of iterations =  8.7

     total cpu time spent up to now is       90.3 secs

     total energy              =    -361.23536121 Ry
     estimated scf accuracy    <       0.00039210 Ry

     iteration # 11     ecut=    50.00 Ry     beta= 0.30
     Davidson diagonalization with overlap
     c_bands:  1 eigenvalues not converged
     ethr =  2.52E-07,  avg # of iterations =  4.9

     total cpu time spent up to now is       97.7 secs

     total energy              =    -361.23539705 Ry
     estimated scf accuracy    <       0.00004259 Ry

     iteration # 12     ecut=    50.00 Ry     beta= 0.30
     Davidson diagonalization with overlap
     ethr =  1.18E-07,  avg # of iterations =  2.7

     total cpu time spent up to now is      102.9 secs

     total energy              =    -361.23542148 Ry
     estimated scf accuracy    <       0.00001847 Ry

     iteration # 13     ecut=    50.00 Ry     beta= 0.30
     Davidson diagonalization with overlap
     ethr =  5.13E-08,  avg # of iterations =  4.9

     total cpu time spent up to now is      109.6 secs

     total energy              =    -361.23538901 Ry
     estimated scf accuracy    <       0.00007840 Ry

     iteration # 14     ecut=    50.00 Ry     beta= 0.30
     Davidson diagonalization with overlap
     ethr =  5.13E-08,  avg # of iterations =  6.9

     total cpu time spent up to now is      119.8 secs

     total energy              =    -361.23541070 Ry
     estimated scf accuracy    <       0.00000361 Ry

     iteration # 15     ecut=    50.00 Ry     beta= 0.30
     Davidson diagonalization with overlap
     c_bands:  2 eigenvalues not converged
     c_bands:  1 eigenvalues not converged
     ethr =  1.00E-08,  avg # of iterations =  8.2

     total cpu time spent up to now is      131.3 secs

     total energy              =    -361.23540497 Ry
     estimated scf accuracy    <       0.00003114 Ry

     iteration # 16     ecut=    50.00 Ry     beta= 0.30
     Davidson diagonalization with overlap
     ethr =  1.00E-08,  avg # of iterations =  6.7

     total cpu time spent up to now is      140.7 secs

     total energy              =    -361.23540764 Ry
     estimated scf accuracy    <       0.00000266 Ry

     iteration # 17     ecut=    50.00 Ry     beta= 0.30
     Davidson diagonalization with overlap
     ethr =  7.40E-09,  avg # of iterations =  1.5

     total cpu time spent up to now is      145.2 secs

     total energy              =    -361.23540812 Ry
     estimated scf accuracy    <       0.00000183 Ry

     iteration # 18     ecut=    50.00 Ry     beta= 0.30
     Davidson diagonalization with overlap
     ethr =  5.09E-09,  avg # of iterations =  1.1

     total cpu time spent up to now is      149.5 secs

     total energy              =    -361.23540810 Ry
     estimated scf accuracy    <       0.00000236 Ry

     iteration # 19     ecut=    50.00 Ry     beta= 0.30
     Davidson diagonalization with overlap
     ethr =  5.09E-09,  avg # of iterations =  1.0

     total cpu time spent up to now is      153.8 secs

     total energy              =    -361.23540804 Ry
     estimated scf accuracy    <       0.00000222 Ry

     iteration # 20     ecut=    50.00 Ry     beta= 0.30
     Davidson diagonalization with overlap
     ethr =  5.09E-09,  avg # of iterations =  1.0

     total cpu time spent up to now is      158.1 secs

     total energy              =    -361.23540732 Ry
     estimated scf accuracy    <       0.00000204 Ry

     iteration # 21     ecut=    50.00 Ry     beta= 0.30
     Davidson diagonalization with overlap
     ethr =  5.09E-09,  avg # of iterations =  2.5

     total cpu time spent up to now is      163.2 secs

     total energy              =    -361.23540728 Ry
     estimated scf accuracy    <       0.00000041 Ry

     iteration # 22     ecut=    50.00 Ry     beta= 0.30
     Davidson diagonalization with overlap
     ethr =  1.15E-09,  avg # of iterations =  9.3

     total cpu time spent up to now is      176.0 secs

     total energy              =    -361.23540765 Ry
     estimated scf accuracy    <       0.00000139 Ry

     iteration # 23     ecut=    50.00 Ry     beta= 0.30
     Davidson diagonalization with overlap
     ethr =  1.15E-09,  avg # of iterations =  3.8

     total cpu time spent up to now is      181.7 secs

     total energy              =    -361.23540757 Ry
     estimated scf accuracy    <       0.00000043 Ry

     iteration # 24     ecut=    50.00 Ry     beta= 0.30
     Davidson diagonalization with overlap
     ethr =  1.15E-09,  avg # of iterations =  5.3

     total cpu time spent up to now is      188.8 secs

     total energy              =    -361.23540773 Ry
     estimated scf accuracy    <       0.00000004 Ry

     iteration # 25     ecut=    50.00 Ry     beta= 0.30
     Davidson diagonalization with overlap
     ethr =  1.03E-10,  avg # of iterations =  5.4

     total cpu time spent up to now is      196.5 secs

     End of self-consistent calculation

     Number of k-points >= 100: set verbosity='high' to print the bands.

     highest occupied level (ev):     8.3310

!    total energy              =    -361.23540775 Ry
     estimated scf accuracy    <          8.1E-09 Ry

     The total energy is the sum of the following terms:
     one-electron contribution =    -152.55603813 Ry
     hartree contribution      =     117.68479064 Ry
     xc contribution           =    -109.61542674 Ry
     ewald contribution        =    -216.74873352 Ry

     convergence has been achieved in  25 iterations

     Forces acting on atoms (cartesian axes, Ry/au):

     atom    1 type  1   force =    -0.04238975   -0.03945586    0.12397126
     atom    2 type  1   force =    -0.35692339    0.28889097    0.19149880
     atom    3 type  2   force =     0.31225805   -0.26137383   -0.24543178
     atom    4 type  2   force =     0.08705509    0.01193872   -0.07003828
     The non-local contrib.  to forces
     atom    1 type  1   force =    -0.18073353    0.02316762   -0.36138847
     atom    2 type  1   force =    -0.70481249    0.55844022    1.01006372
     atom    3 type  2   force =    -0.53953870    0.29326763    0.96368375
     atom    4 type  2   force =    -0.00041319   -0.00187262   -0.96326127
     The ionic contribution  to forces
     atom    1 type  1   force =    -0.58228197   -1.62469421    4.17502237
     atom    2 type  1   force =    -6.47438603    5.77189641   -2.26978570
     atom    3 type  2   force =     6.01356128   -4.48312150   -6.86718120
     atom    4 type  2   force =     1.04310672    0.33591930    4.96194453
     The local contribution  to forces
     atom    1 type  1   force =     0.70660113    1.55961885   -3.70617011
     atom    2 type  1   force =     6.75712920   -5.98967354    1.52677314
     atom    3 type  2   force =    -5.16456709    3.92942205    5.66516024
     atom    4 type  2   force =    -0.95499831   -0.32206601   -4.07782543
     The core correction contribution to forces
     atom    1 type  1   force =     0.01398067    0.00244038    0.01626748
     atom    2 type  1   force =     0.06507502   -0.05172216   -0.07530779
     atom    3 type  2   force =     0.00283706   -0.00091968   -0.00698657
     atom    4 type  2   force =    -0.00057545   -0.00003702    0.00902602
     The Hubbard contrib.    to forces
     atom    1 type  1   force =     0.00000000    0.00000000    0.00000000
     atom    2 type  1   force =     0.00000000    0.00000000    0.00000000
     atom    3 type  2   force =     0.00000000    0.00000000    0.00000000
     atom    4 type  2   force =     0.00000000    0.00000000    0.00000000
     The SCF correction term to forces
     atom    1 type  1   force =     0.00007213    0.00000391    0.00023410
     atom    2 type  1   force =     0.00009908   -0.00005755   -0.00025046
     atom    3 type  2   force =    -0.00000633   -0.00002991   -0.00011390
     atom    4 type  2   force =    -0.00003650   -0.00001249    0.00007199

     Total force =     0.710585     Total SCF correction =     0.000396

     Writing all to output data dir ./ZnO_ANN.save/

     init_run     :      3.20s CPU      3.32s WALL (       1 calls)
     electrons    :    189.26s CPU    192.76s WALL (       1 calls)
     forces       :      0.97s CPU      0.98s WALL (       1 calls)

     Called by init_run:
     wfcinit      :      2.42s CPU      2.50s WALL (       1 calls)
     potinit      :      0.20s CPU      0.20s WALL (       1 calls)
     hinit0       :      0.51s CPU      0.53s WALL (       1 calls)

     Called by electrons:
     c_bands      :    170.35s CPU    173.39s WALL (      25 calls)
     sum_band     :     17.18s CPU     17.59s WALL (      25 calls)
     v_of_rho     :      0.36s CPU      0.38s WALL (      26 calls)
     newd         :      1.33s CPU      1.35s WALL (      26 calls)
     mix_rho      :      0.06s CPU      0.07s WALL (      25 calls)

     Called by c_bands:
     init_us_2    :      1.12s CPU      1.14s WALL (    5824 calls)
     init_us_2:cp :      1.11s CPU      1.13s WALL (    5824 calls)
     cegterg      :    166.57s CPU    169.54s WALL (    2800 calls)

     Called by *egterg:
     cdiaghg      :     17.18s CPU     17.30s WALL (   15761 calls)
     h_psi        :     98.61s CPU    100.88s WALL (   15873 calls)
     s_psi        :     10.44s CPU     10.54s WALL (   15873 calls)
     g_psi        :      0.33s CPU      0.34s WALL (   12961 calls)

     Called by h_psi:
     h_psi:calbec :     12.95s CPU     13.38s WALL (   15873 calls)
     vloc_psi     :     74.87s CPU     76.61s WALL (   15873 calls)
     add_vuspsi   :     10.51s CPU     10.62s WALL (   15873 calls)

     General routines
     calbec       :     17.15s CPU     17.69s WALL (   19121 calls)
     fft          :      0.55s CPU      0.59s WALL (     347 calls)
     ffts         :      0.08s CPU      0.08s WALL (      51 calls)
     fftw         :     77.55s CPU     79.37s WALL (  399608 calls)
     interpolate  :      0.09s CPU      0.09s WALL (      26 calls)

     Parallel routines

     PWSCF        :   3m14.13s CPU   3m17.89s WALL


   This run was terminated on:  13:28:17  23Jun2025            

=------------------------------------------------------------------------------=
   JOB DONE.
=------------------------------------------------------------------------------=
Note: The following floating-point exceptions are signalling: IEEE_INVALID_FLAG
