
     Program PWSCF v.7.2 starts on 23Jun2025 at 18:57:15 

     This program is part of the open-source Quantum ESPRESSO suite
     for quantum simulation of materials; please cite
         "P. Giannozzi et al., J. Phys.:Condens. Matter 21 395502 (2009);
         "P. Giannozzi et al., J. Phys.:Condens. Matter 29 465901 (2017);
         "P. Giannozzi et al., J. Chem. Phys. 152 154105 (2020);
          URL http://www.quantum-espresso.org", 
     in publications or presentations arising from this work. More details at
     http://www.quantum-espresso.org/quote

     Parallel version (MPI), running on     8 processors

     MPI processes distributed on     1 nodes
     90524 MiB available memory on the printing compute node when the environment starts

     Reading input from /home/jvc/QEspresso7.2/ZnO_DataBase/scfs_rnd025.in/scf-6.80-1.74-2.in

     Current dimensions of program PWSCF are:
     Max number of different atomic species (ntypx) = 10
     Max number of k-points (npk) =  40000
     Max angular momentum in pseudopotentials (lmaxx) =  4
     file Zn.upf: wavefunction(s)  3D renormalized

     R & G space division:  proc/nbgrp/npool/nimage =       8
     Subspace diagonalization in iterative solution of the eigenvalue problem:
     a serial algorithm will be used


     Parallelization info
     --------------------
     sticks:   dense  smooth     PW     G-vecs:    dense   smooth      PW
     Min         160      80     24                 8023     2842     465
     Max         162      82     25                 8024     2844     467
     Sum        1285     649    199                64191    22745    3731

     Using Slab Decomposition



     bravais-lattice index     =            4
     lattice parameter (alat)  =       6.7967  a.u.
     unit-cell volume          =     474.0775 (a.u.)^3
     number of atoms/cell      =            4
     number of atomic types    =            2
     number of electrons       =        36.00
     number of Kohn-Sham states=           18
     kinetic-energy cutoff     =      50.0000  Ry
     charge density cutoff     =     400.0000  Ry
     scf convergence threshold =      1.0E-08
     mixing beta               =       0.3000
     number of iterations used =            8  plain     mixing
     Exchange-correlation= PBE
                           (   1   4   3   4   0   0   0)

     celldm(1)=   6.796704  celldm(2)=   0.000000  celldm(3)=   1.743507
     celldm(4)=   0.000000  celldm(5)=   0.000000  celldm(6)=   0.000000

     crystal axes: (cart. coord. in units of alat)
               a(1) = (   1.000000   0.000000   0.000000 )  
               a(2) = (  -0.500000   0.866025   0.000000 )  
               a(3) = (   0.000000   0.000000   1.743507 )  

     reciprocal axes: (cart. coord. in units 2 pi/alat)
               b(1) = (  1.000000  0.577350 -0.000000 )  
               b(2) = (  0.000000  1.154701  0.000000 )  
               b(3) = (  0.000000 -0.000000  0.573557 )  


     PseudoPot. # 1 for Zn read from file:
     ./pseudos/Zn.upf
     MD5 check sum: 7f56cabf9682ed8c977c2f7d0c5985c5
     Pseudo is Ultrasoft + core correction, Zval = 12.0
     Generated using &quot;atomic&quot; code by A. Dal Corso  v.6.2.2
     Using radial grid of 1201 points,  6 beta functions with: 
                l(1) =   0
                l(2) =   0
                l(3) =   1
                l(4) =   1
                l(5) =   2
                l(6) =   2
     Q(r) pseudized with 0 coefficients 


     PseudoPot. # 2 for O  read from file:
     ./pseudos/O.upf
     MD5 check sum: 91400c9766925bcf19f520983a725ff0
     Pseudo is Ultrasoft + core correction, Zval =  6.0
     Generated using &quot;atomic&quot; code by A. Dal Corso  v.6.3MaX
     Using radial grid of 1095 points,  4 beta functions with: 
                l(1) =   0
                l(2) =   0
                l(3) =   1
                l(4) =   1
     Q(r) pseudized with 0 coefficients 


     atomic species   valence    mass     pseudopotential
        Zn            12.00    63.38000     Zn( 1.00)
        O              6.00    15.99900     O ( 1.00)

     No symmetry found



   Cartesian axes

     site n.     atom                  positions (alat units)
         1           Zn  tau(   1) = (   0.3880214   0.2242550   1.2004638  )
         2           Zn  tau(   2) = (  -0.1846673   0.5491114   0.2903189  )
         3           O   tau(   3) = (   0.7153121   0.1254329   1.2441209  )
         4           O   tau(   4) = (   0.2765077   0.4428057   0.4098261  )

     number of k points=   112

     Number of k-points >= 100: set verbosity='high' to print them.

     Dense  grid:    64191 G-vectors     FFT dimensions: (  45,  45,  75)

     Smooth grid:    22745 G-vectors     FFT dimensions: (  32,  32,  54)

     Estimated max dynamical RAM per process >      42.71 MB

     Estimated total dynamical RAM >     341.69 MB

     Check: negative core charge=   -0.000002

     Initial potential from superposition of free atoms

     starting charge      35.9925, renormalised to      36.0000
     Starting wfcs are   26 randomized atomic wfcs

     total cpu time spent up to now is        4.6 secs

     Self-consistent Calculation

     iteration #  1     ecut=    50.00 Ry     beta= 0.30
     Davidson diagonalization with overlap
     ethr =  1.00E-02,  avg # of iterations =  2.2

     total cpu time spent up to now is       11.5 secs

     total energy              =    -360.41624211 Ry
     estimated scf accuracy    <       1.43192913 Ry

     iteration #  2     ecut=    50.00 Ry     beta= 0.30
     Davidson diagonalization with overlap
     ethr =  3.98E-03,  avg # of iterations =  2.0

     total cpu time spent up to now is       18.6 secs

     total energy              =    -360.48772691 Ry
     estimated scf accuracy    <       0.23419402 Ry

     iteration #  3     ecut=    50.00 Ry     beta= 0.30
     Davidson diagonalization with overlap
     ethr =  6.51E-04,  avg # of iterations =  8.0

     total cpu time spent up to now is       32.8 secs

     total energy              =    -360.65638681 Ry
     estimated scf accuracy    <       0.62024875 Ry

     iteration #  4     ecut=    50.00 Ry     beta= 0.30
     Davidson diagonalization with overlap
     ethr =  6.51E-04,  avg # of iterations =  4.1

     total cpu time spent up to now is       40.9 secs

     total energy              =    -360.57847690 Ry
     estimated scf accuracy    <       0.14792614 Ry

     iteration #  5     ecut=    50.00 Ry     beta= 0.30
     Davidson diagonalization with overlap
     ethr =  4.11E-04,  avg # of iterations =  9.1

     total cpu time spent up to now is       60.3 secs

     total energy              =    -360.84852588 Ry
     estimated scf accuracy    <       1.06677399 Ry

     iteration #  6     ecut=    50.00 Ry     beta= 0.30
     Davidson diagonalization with overlap
     ethr =  4.11E-04,  avg # of iterations =  1.2

     total cpu time spent up to now is       66.3 secs

     total energy              =    -360.60770219 Ry
     estimated scf accuracy    <       0.77216568 Ry

     iteration #  7     ecut=    50.00 Ry     beta= 0.30
     Davidson diagonalization with overlap
     ethr =  4.11E-04,  avg # of iterations =  5.8

     total cpu time spent up to now is       78.3 secs

     total energy              =    -360.72566589 Ry
     estimated scf accuracy    <       0.03175171 Ry

     iteration #  8     ecut=    50.00 Ry     beta= 0.30
     Davidson diagonalization with overlap
     ethr =  8.82E-05,  avg # of iterations =  2.1

     total cpu time spent up to now is       84.7 secs

     total energy              =    -360.71428874 Ry
     estimated scf accuracy    <       0.03754115 Ry

     iteration #  9     ecut=    50.00 Ry     beta= 0.30
     Davidson diagonalization with overlap
     ethr =  8.82E-05,  avg # of iterations =  4.4

     total cpu time spent up to now is       92.2 secs

     total energy              =    -360.71811058 Ry
     estimated scf accuracy    <       0.00630837 Ry

     iteration # 10     ecut=    50.00 Ry     beta= 0.30
     Davidson diagonalization with overlap
     ethr =  1.75E-05,  avg # of iterations =  5.3

     total cpu time spent up to now is      102.3 secs

     total energy              =    -360.72137671 Ry
     estimated scf accuracy    <       0.00017827 Ry

     iteration # 11     ecut=    50.00 Ry     beta= 0.30
     Davidson diagonalization with overlap
     ethr =  4.95E-07,  avg # of iterations =  6.1

     total cpu time spent up to now is      113.8 secs

     total energy              =    -360.72138006 Ry
     estimated scf accuracy    <       0.00029184 Ry

     iteration # 12     ecut=    50.00 Ry     beta= 0.30
     Davidson diagonalization with overlap
     ethr =  4.95E-07,  avg # of iterations =  5.7

     total cpu time spent up to now is      124.7 secs

     total energy              =    -360.72150445 Ry
     estimated scf accuracy    <       0.00007841 Ry

     iteration # 13     ecut=    50.00 Ry     beta= 0.30
     Davidson diagonalization with overlap
     ethr =  2.18E-07,  avg # of iterations =  5.3

     total cpu time spent up to now is      134.5 secs

     total energy              =    -360.72143953 Ry
     estimated scf accuracy    <       0.00022581 Ry

     iteration # 14     ecut=    50.00 Ry     beta= 0.30
     Davidson diagonalization with overlap
     ethr =  2.18E-07,  avg # of iterations =  4.9

     total cpu time spent up to now is      144.4 secs

     total energy              =    -360.72146855 Ry
     estimated scf accuracy    <       0.00000747 Ry

     iteration # 15     ecut=    50.00 Ry     beta= 0.30
     Davidson diagonalization with overlap
     ethr =  2.07E-08,  avg # of iterations =  6.6

     total cpu time spent up to now is      155.9 secs

     total energy              =    -360.72147576 Ry
     estimated scf accuracy    <       0.00000373 Ry

     iteration # 16     ecut=    50.00 Ry     beta= 0.30
     Davidson diagonalization with overlap
     ethr =  1.04E-08,  avg # of iterations =  1.5

     total cpu time spent up to now is      161.8 secs

     total energy              =    -360.72147391 Ry
     estimated scf accuracy    <       0.00000420 Ry

     iteration # 17     ecut=    50.00 Ry     beta= 0.30
     Davidson diagonalization with overlap
     ethr =  1.04E-08,  avg # of iterations =  2.1

     total cpu time spent up to now is      168.7 secs

     total energy              =    -360.72147382 Ry
     estimated scf accuracy    <       0.00000071 Ry

     iteration # 18     ecut=    50.00 Ry     beta= 0.30
     Davidson diagonalization with overlap
     ethr =  1.98E-09,  avg # of iterations =  8.2

     total cpu time spent up to now is      184.3 secs

     total energy              =    -360.72147494 Ry
     estimated scf accuracy    <       0.00000309 Ry

     iteration # 19     ecut=    50.00 Ry     beta= 0.30
     Davidson diagonalization with overlap
     ethr =  1.98E-09,  avg # of iterations =  1.1

     total cpu time spent up to now is      190.0 secs

     total energy              =    -360.72147438 Ry
     estimated scf accuracy    <       0.00000214 Ry

     iteration # 20     ecut=    50.00 Ry     beta= 0.30
     Davidson diagonalization with overlap
     ethr =  1.98E-09,  avg # of iterations =  4.3

     total cpu time spent up to now is      199.7 secs

     total energy              =    -360.72147458 Ry
     estimated scf accuracy    <       0.00000013 Ry

     iteration # 21     ecut=    50.00 Ry     beta= 0.30
     Davidson diagonalization with overlap
     ethr =  3.75E-10,  avg # of iterations =  6.1

     total cpu time spent up to now is      211.5 secs

     total energy              =    -360.72147467 Ry
     estimated scf accuracy    <       0.00000016 Ry

     iteration # 22     ecut=    50.00 Ry     beta= 0.30
     Davidson diagonalization with overlap
     ethr =  3.75E-10,  avg # of iterations =  1.0

     total cpu time spent up to now is      217.1 secs

     total energy              =    -360.72147465 Ry
     estimated scf accuracy    <       0.00000008 Ry

     iteration # 23     ecut=    50.00 Ry     beta= 0.30
     Davidson diagonalization with overlap
     ethr =  2.35E-10,  avg # of iterations =  2.4

     total cpu time spent up to now is      224.2 secs

     total energy              =    -360.72147466 Ry
     estimated scf accuracy    <       0.00000001 Ry

     iteration # 24     ecut=    50.00 Ry     beta= 0.30
     Davidson diagonalization with overlap
     ethr =  3.32E-11,  avg # of iterations =  5.6

     total cpu time spent up to now is      235.2 secs

     End of self-consistent calculation

     Number of k-points >= 100: set verbosity='high' to print the bands.

     highest occupied level (ev):     2.8108

!    total energy              =    -360.72147467 Ry
     estimated scf accuracy    <          4.9E-09 Ry

     The total energy is the sum of the following terms:
     one-electron contribution =    -221.78562398 Ry
     hartree contribution      =     145.56090685 Ry
     xc contribution           =    -109.43154993 Ry
     ewald contribution        =    -175.06520761 Ry

     convergence has been achieved in  24 iterations

     Forces acting on atoms (cartesian axes, Ry/au):

     atom    1 type  1   force =    -2.08474831    0.61124038   -0.27464599
     atom    2 type  1   force =    -0.10250862    0.01098825    0.01665294
     atom    3 type  2   force =     2.08518499   -0.60472721    0.27233441
     atom    4 type  2   force =     0.10207195   -0.01750142   -0.01434136
     The non-local contrib.  to forces
     atom    1 type  1   force =    -1.17443601    0.30107767   -0.11526613
     atom    2 type  1   force =    -0.41317210    0.20331216   -0.30312160
     atom    3 type  2   force =    -0.84644565    0.46540566   -0.17329485
     atom    4 type  2   force =    -0.21851365    0.35014739   -0.64306320
     The ionic contribution  to forces
     atom    1 type  1   force =   -18.74147300    5.66781942   -3.63465294
     atom    2 type  1   force =    -2.88872352    2.00366631   -1.99648758
     atom    3 type  2   force =    18.81106710   -6.08153920    2.39829448
     atom    4 type  2   force =     2.81912942   -1.58994653    3.23284604
     The local contribution  to forces
     atom    1 type  1   force =    17.60273729   -5.28705864    3.44374263
     atom    2 type  1   force =     3.16937380   -2.17873960    2.29346876
     atom    3 type  2   force =   -15.87701550    5.01277187   -1.95291318
     atom    4 type  2   force =    -2.49964939    1.22554582   -2.61028411
     The core correction contribution to forces
     atom    1 type  1   force =     0.22836671   -0.07058138    0.03159465
     atom    2 type  1   force =     0.02997663   -0.01721743    0.02266365
     atom    3 type  2   force =    -0.00238346   -0.00138018    0.00029188
     atom    4 type  2   force =     0.00113197   -0.00326293    0.00614937
     The Hubbard contrib.    to forces
     atom    1 type  1   force =     0.00000000    0.00000000    0.00000000
     atom    2 type  1   force =     0.00000000    0.00000000    0.00000000
     atom    3 type  2   force =     0.00000000    0.00000000    0.00000000
     atom    4 type  2   force =     0.00000000    0.00000000    0.00000000
     The SCF correction term to forces
     atom    1 type  1   force =     0.00007988   -0.00002818   -0.00005058
     atom    2 type  1   force =     0.00005974   -0.00004469    0.00014333
     atom    3 type  2   force =    -0.00001433    0.00000315   -0.00003031
     atom    4 type  2   force =    -0.00000323    0.00000333    0.00002417

     Total force =     3.099180     Total SCF correction =     0.000194

     Writing all to output data dir ./ZnO_ANN.save/

     init_run     :      4.07s CPU      4.18s WALL (       1 calls)
     electrons    :    226.84s CPU    230.57s WALL (       1 calls)
     forces       :      1.46s CPU      1.47s WALL (       1 calls)

     Called by init_run:
     wfcinit      :      3.14s CPU      3.21s WALL (       1 calls)
     potinit      :      0.34s CPU      0.34s WALL (       1 calls)
     hinit0       :      0.46s CPU      0.48s WALL (       1 calls)

     Called by electrons:
     c_bands      :    202.45s CPU    205.67s WALL (      24 calls)
     sum_band     :     21.67s CPU     22.12s WALL (      24 calls)
     v_of_rho     :      0.56s CPU      0.60s WALL (      25 calls)
     newd         :      2.11s CPU      2.14s WALL (      25 calls)
     mix_rho      :      0.09s CPU      0.10s WALL (      24 calls)

     Called by c_bands:
     init_us_2    :      1.85s CPU      1.88s WALL (    5600 calls)
     init_us_2:cp :      1.83s CPU      1.86s WALL (    5600 calls)
     cegterg      :    196.62s CPU    199.78s WALL (    2688 calls)

     Called by *egterg:
     cdiaghg      :     16.61s CPU     16.71s WALL (   14464 calls)
     h_psi        :    112.43s CPU    114.87s WALL (   14576 calls)
     s_psi        :     16.99s CPU     17.11s WALL (   14576 calls)
     g_psi        :      0.45s CPU      0.46s WALL (   11776 calls)

     Called by h_psi:
     h_psi:calbec :     17.88s CPU     18.41s WALL (   14576 calls)
     vloc_psi     :     77.09s CPU     78.89s WALL (   14576 calls)
     add_vuspsi   :     17.07s CPU     17.17s WALL (   14576 calls)

     General routines
     calbec       :     24.04s CPU     24.68s WALL (   17712 calls)
     fft          :      0.53s CPU      0.57s WALL (     334 calls)
     ffts         :      0.15s CPU      0.15s WALL (      49 calls)
     fftw         :     75.33s CPU     77.08s WALL (  366962 calls)
     interpolate  :      0.17s CPU      0.18s WALL (      25 calls)

     Parallel routines

     PWSCF        :   3m53.15s CPU   3m57.33s WALL


   This run was terminated on:  19: 1:12  23Jun2025            

=------------------------------------------------------------------------------=
   JOB DONE.
=------------------------------------------------------------------------------=
Note: The following floating-point exceptions are signalling: IEEE_INVALID_FLAG
