
     Program PWSCF v.7.2 starts on 23Jun2025 at 12:21: 4 

     This program is part of the open-source Quantum ESPRESSO suite
     for quantum simulation of materials; please cite
         "P. Giannozzi et al., J. Phys.:Condens. Matter 21 395502 (2009);
         "P. Giannozzi et al., J. Phys.:Condens. Matter 29 465901 (2017);
         "P. Giannozzi et al., J. Chem. Phys. 152 154105 (2020);
          URL http://www.quantum-espresso.org", 
     in publications or presentations arising from this work. More details at
     http://www.quantum-espresso.org/quote

     Parallel version (MPI), running on     8 processors

     MPI processes distributed on     1 nodes
     91358 MiB available memory on the printing compute node when the environment starts

     Reading input from /home/jvc/QEspresso7.2/ZnO_DataBase/scfs_rnd025.in/scf-5.68-1.65-3.in

     Current dimensions of program PWSCF are:
     Max number of different atomic species (ntypx) = 10
     Max number of k-points (npk) =  40000
     Max angular momentum in pseudopotentials (lmaxx) =  4
     file Zn.upf: wavefunction(s)  3D renormalized

     R & G space division:  proc/nbgrp/npool/nimage =       8
     Subspace diagonalization in iterative solution of the eigenvalue problem:
     a serial algorithm will be used


     Parallelization info
     --------------------
     sticks:   dense  smooth     PW     G-vecs:    dense   smooth      PW
     Min         111      54     16                 4413     1558     269
     Max         112      55     18                 4418     1563     274
     Sum         889     439    139                35315    12493    2177

     Using Slab Decomposition



     bravais-lattice index     =            4
     lattice parameter (alat)  =       5.6845  a.u.
     unit-cell volume          =     261.9456 (a.u.)^3
     number of atoms/cell      =            4
     number of atomic types    =            2
     number of electrons       =        36.00
     number of Kohn-Sham states=           18
     kinetic-energy cutoff     =      50.0000  Ry
     charge density cutoff     =     400.0000  Ry
     scf convergence threshold =      1.0E-08
     mixing beta               =       0.3000
     number of iterations used =            8  plain     mixing
     Exchange-correlation= PBE
                           (   1   4   3   4   0   0   0)

     celldm(1)=   5.684516  celldm(2)=   0.000000  celldm(3)=   1.646646
     celldm(4)=   0.000000  celldm(5)=   0.000000  celldm(6)=   0.000000

     crystal axes: (cart. coord. in units of alat)
               a(1) = (   1.000000   0.000000   0.000000 )  
               a(2) = (  -0.500000   0.866025   0.000000 )  
               a(3) = (   0.000000   0.000000   1.646646 )  

     reciprocal axes: (cart. coord. in units 2 pi/alat)
               b(1) = (  1.000000  0.577350 -0.000000 )  
               b(2) = (  0.000000  1.154701  0.000000 )  
               b(3) = (  0.000000 -0.000000  0.607295 )  


     PseudoPot. # 1 for Zn read from file:
     ./pseudos/Zn.upf
     MD5 check sum: 7f56cabf9682ed8c977c2f7d0c5985c5
     Pseudo is Ultrasoft + core correction, Zval = 12.0
     Generated using &quot;atomic&quot; code by A. Dal Corso  v.6.2.2
     Using radial grid of 1201 points,  6 beta functions with: 
                l(1) =   0
                l(2) =   0
                l(3) =   1
                l(4) =   1
                l(5) =   2
                l(6) =   2
     Q(r) pseudized with 0 coefficients 


     PseudoPot. # 2 for O  read from file:
     ./pseudos/O.upf
     MD5 check sum: 91400c9766925bcf19f520983a725ff0
     Pseudo is Ultrasoft + core correction, Zval =  6.0
     Generated using &quot;atomic&quot; code by A. Dal Corso  v.6.3MaX
     Using radial grid of 1095 points,  4 beta functions with: 
                l(1) =   0
                l(2) =   0
                l(3) =   1
                l(4) =   1
     Q(r) pseudized with 0 coefficients 


     atomic species   valence    mass     pseudopotential
        Zn            12.00    63.38000     Zn( 1.00)
        O              6.00    15.99900     O ( 1.00)

     No symmetry found



   Cartesian axes

     site n.     atom                  positions (alat units)
         1           Zn  tau(   1) = (   0.5075956   0.2395460   0.4369239  )
         2           Zn  tau(   2) = (   0.3032862   0.4746788   0.0620130  )
         3           O   tau(   3) = (   0.5985903   0.2914721   1.3382496  )
         4           O   tau(   4) = (  -0.0292509   0.5592101   0.5997999  )

     number of k points=   112

     Number of k-points >= 100: set verbosity='high' to print them.

     Dense  grid:    35315 G-vectors     FFT dimensions: (  40,  40,  60)

     Smooth grid:    12493 G-vectors     FFT dimensions: (  25,  25,  45)

     Estimated max dynamical RAM per process >      25.09 MB

     Estimated total dynamical RAM >     200.69 MB

     Check: negative core charge=   -0.000002

     Initial potential from superposition of free atoms

     starting charge      35.9925, renormalised to      36.0000
     Starting wfcs are   26 randomized atomic wfcs

     total cpu time spent up to now is        3.3 secs

     Self-consistent Calculation

     iteration #  1     ecut=    50.00 Ry     beta= 0.30
     Davidson diagonalization with overlap
     ethr =  1.00E-02,  avg # of iterations =  2.0

     total cpu time spent up to now is        7.6 secs

     total energy              =    -360.03795714 Ry
     estimated scf accuracy    <       0.88012948 Ry

     iteration #  2     ecut=    50.00 Ry     beta= 0.30
     Davidson diagonalization with overlap
     ethr =  2.44E-03,  avg # of iterations =  3.6

     total cpu time spent up to now is       12.6 secs

     total energy              =    -360.19688631 Ry
     estimated scf accuracy    <       0.10250086 Ry

     iteration #  3     ecut=    50.00 Ry     beta= 0.30
     Davidson diagonalization with overlap
     ethr =  2.85E-04,  avg # of iterations =  7.1

     total cpu time spent up to now is       22.0 secs

     total energy              =    -360.27394803 Ry
     estimated scf accuracy    <       0.12397210 Ry

     iteration #  4     ecut=    50.00 Ry     beta= 0.30
     Davidson diagonalization with overlap
     ethr =  2.85E-04,  avg # of iterations =  2.0

     total cpu time spent up to now is       26.2 secs

     total energy              =    -360.25813347 Ry
     estimated scf accuracy    <       0.03484370 Ry

     iteration #  5     ecut=    50.00 Ry     beta= 0.30
     Davidson diagonalization with overlap
     ethr =  9.68E-05,  avg # of iterations =  8.3

     total cpu time spent up to now is       38.9 secs

     total energy              =    -360.24423437 Ry
     estimated scf accuracy    <       0.32690591 Ry

     iteration #  6     ecut=    50.00 Ry     beta= 0.30
     Davidson diagonalization with overlap
     ethr =  9.68E-05,  avg # of iterations =  7.4

     total cpu time spent up to now is       49.1 secs

     total energy              =    -360.29425039 Ry
     estimated scf accuracy    <       0.00627164 Ry

     iteration #  7     ecut=    50.00 Ry     beta= 0.30
     Davidson diagonalization with overlap
     ethr =  1.74E-05,  avg # of iterations =  2.7

     total cpu time spent up to now is       53.8 secs

     total energy              =    -360.28992557 Ry
     estimated scf accuracy    <       0.01308783 Ry

     iteration #  8     ecut=    50.00 Ry     beta= 0.30
     Davidson diagonalization with overlap
     ethr =  1.74E-05,  avg # of iterations =  4.0

     total cpu time spent up to now is       58.8 secs

     total energy              =    -360.28997275 Ry
     estimated scf accuracy    <       0.00222309 Ry

     iteration #  9     ecut=    50.00 Ry     beta= 0.30
     Davidson diagonalization with overlap
     ethr =  6.18E-06,  avg # of iterations =  5.8

     total cpu time spent up to now is       66.3 secs

     total energy              =    -360.29183166 Ry
     estimated scf accuracy    <       0.00083822 Ry

     iteration # 10     ecut=    50.00 Ry     beta= 0.30
     Davidson diagonalization with overlap
     ethr =  2.33E-06,  avg # of iterations =  4.9

     total cpu time spent up to now is       71.4 secs

     total energy              =    -360.29152426 Ry
     estimated scf accuracy    <       0.00224742 Ry

     iteration # 11     ecut=    50.00 Ry     beta= 0.30
     Davidson diagonalization with overlap
     ethr =  2.33E-06,  avg # of iterations =  1.6

     total cpu time spent up to now is       75.2 secs

     total energy              =    -360.29125355 Ry
     estimated scf accuracy    <       0.00140607 Ry

     iteration # 12     ecut=    50.00 Ry     beta= 0.30
     Davidson diagonalization with overlap
     ethr =  2.33E-06,  avg # of iterations =  4.9

     total cpu time spent up to now is       80.1 secs

     total energy              =    -360.29135055 Ry
     estimated scf accuracy    <       0.00026851 Ry

     iteration # 13     ecut=    50.00 Ry     beta= 0.30
     Davidson diagonalization with overlap
     ethr =  7.46E-07,  avg # of iterations =  3.8

     total cpu time spent up to now is       84.8 secs

     total energy              =    -360.29137203 Ry
     estimated scf accuracy    <       0.00007393 Ry

     iteration # 14     ecut=    50.00 Ry     beta= 0.30
     Davidson diagonalization with overlap
     ethr =  2.05E-07,  avg # of iterations =  6.2

     total cpu time spent up to now is       91.2 secs

     total energy              =    -360.29140513 Ry
     estimated scf accuracy    <       0.00003880 Ry

     iteration # 15     ecut=    50.00 Ry     beta= 0.30
     Davidson diagonalization with overlap
     ethr =  1.08E-07,  avg # of iterations =  2.1

     total cpu time spent up to now is       95.4 secs

     total energy              =    -360.29140249 Ry
     estimated scf accuracy    <       0.00002739 Ry

     iteration # 16     ecut=    50.00 Ry     beta= 0.30
     Davidson diagonalization with overlap
     ethr =  7.61E-08,  avg # of iterations =  4.9

     total cpu time spent up to now is      101.5 secs

     total energy              =    -360.29141211 Ry
     estimated scf accuracy    <       0.00003327 Ry

     iteration # 17     ecut=    50.00 Ry     beta= 0.30
     Davidson diagonalization with overlap
     ethr =  7.61E-08,  avg # of iterations =  1.0

     total cpu time spent up to now is      105.1 secs

     total energy              =    -360.29140734 Ry
     estimated scf accuracy    <       0.00003300 Ry

     iteration # 18     ecut=    50.00 Ry     beta= 0.30
     Davidson diagonalization with overlap
     ethr =  7.61E-08,  avg # of iterations =  1.0

     total cpu time spent up to now is      108.7 secs

     total energy              =    -360.29139812 Ry
     estimated scf accuracy    <       0.00002246 Ry

     iteration # 19     ecut=    50.00 Ry     beta= 0.30
     Davidson diagonalization with overlap
     ethr =  6.24E-08,  avg # of iterations =  4.1

     total cpu time spent up to now is      113.8 secs

     total energy              =    -360.29140308 Ry
     estimated scf accuracy    <       0.00000278 Ry

     iteration # 20     ecut=    50.00 Ry     beta= 0.30
     Davidson diagonalization with overlap
     ethr =  7.74E-09,  avg # of iterations =  6.0

     total cpu time spent up to now is      121.4 secs

     total energy              =    -360.29140325 Ry
     estimated scf accuracy    <       0.00000470 Ry

     iteration # 21     ecut=    50.00 Ry     beta= 0.30
     Davidson diagonalization with overlap
     ethr =  7.74E-09,  avg # of iterations =  4.8

     total cpu time spent up to now is      126.7 secs

     total energy              =    -360.29140385 Ry
     estimated scf accuracy    <       0.00000051 Ry

     iteration # 22     ecut=    50.00 Ry     beta= 0.30
     Davidson diagonalization with overlap
     ethr =  1.41E-09,  avg # of iterations =  5.5

     total cpu time spent up to now is      133.0 secs

     total energy              =    -360.29140401 Ry
     estimated scf accuracy    <       0.00000024 Ry

     iteration # 23     ecut=    50.00 Ry     beta= 0.30
     Davidson diagonalization with overlap
     ethr =  6.63E-10,  avg # of iterations =  7.1

     total cpu time spent up to now is      139.6 secs

     total energy              =    -360.29140407 Ry
     estimated scf accuracy    <       0.00000045 Ry

     iteration # 24     ecut=    50.00 Ry     beta= 0.30
     Davidson diagonalization with overlap
     ethr =  6.63E-10,  avg # of iterations =  1.1

     total cpu time spent up to now is      143.1 secs

     total energy              =    -360.29140402 Ry
     estimated scf accuracy    <       0.00000030 Ry

     iteration # 25     ecut=    50.00 Ry     beta= 0.30
     Davidson diagonalization with overlap
     ethr =  6.63E-10,  avg # of iterations =  2.5

     total cpu time spent up to now is      147.3 secs

     total energy              =    -360.29140404 Ry
     estimated scf accuracy    <       0.00000010 Ry

     iteration # 26     ecut=    50.00 Ry     beta= 0.30
     Davidson diagonalization with overlap
     ethr =  2.84E-10,  avg # of iterations =  2.0

     total cpu time spent up to now is      151.3 secs

     total energy              =    -360.29140404 Ry
     estimated scf accuracy    <       0.00000007 Ry

     iteration # 27     ecut=    50.00 Ry     beta= 0.30
     Davidson diagonalization with overlap
     ethr =  2.02E-10,  avg # of iterations =  1.9

     total cpu time spent up to now is      155.3 secs

     total energy              =    -360.29140404 Ry
     estimated scf accuracy    <       0.00000005 Ry

     iteration # 28     ecut=    50.00 Ry     beta= 0.30
     Davidson diagonalization with overlap
     ethr =  1.53E-10,  avg # of iterations =  1.2

     total cpu time spent up to now is      158.9 secs

     total energy              =    -360.29140403 Ry
     estimated scf accuracy    <       0.00000005 Ry

     iteration # 29     ecut=    50.00 Ry     beta= 0.30
     Davidson diagonalization with overlap
     ethr =  1.48E-10,  avg # of iterations =  1.7

     total cpu time spent up to now is      162.6 secs

     total energy              =    -360.29140404 Ry
     estimated scf accuracy    <       0.00000003 Ry

     iteration # 30     ecut=    50.00 Ry     beta= 0.30
     Davidson diagonalization with overlap
     ethr =  8.94E-11,  avg # of iterations =  1.4

     total cpu time spent up to now is      166.3 secs

     total energy              =    -360.29140404 Ry
     estimated scf accuracy    <       0.00000003 Ry

     iteration # 31     ecut=    50.00 Ry     beta= 0.30
     Davidson diagonalization with overlap
     ethr =  8.77E-11,  avg # of iterations =  1.4

     total cpu time spent up to now is      170.0 secs

     total energy              =    -360.29140404 Ry
     estimated scf accuracy    <       0.00000002 Ry

     iteration # 32     ecut=    50.00 Ry     beta= 0.30
     Davidson diagonalization with overlap
     ethr =  6.56E-11,  avg # of iterations =  4.8

     total cpu time spent up to now is      174.6 secs

     total energy              =    -360.29140403 Ry
     estimated scf accuracy    <       0.00000001 Ry

     iteration # 33     ecut=    50.00 Ry     beta= 0.30
     Davidson diagonalization with overlap
     ethr =  3.53E-11,  avg # of iterations =  5.3

     total cpu time spent up to now is      181.2 secs

     End of self-consistent calculation

     Number of k-points >= 100: set verbosity='high' to print the bands.

     highest occupied level (ev):    10.6093

!    total energy              =    -360.29140404 Ry
     estimated scf accuracy    <          4.0E-09 Ry

     The total energy is the sum of the following terms:
     one-electron contribution =    -196.85720711 Ry
     hartree contribution      =     141.22391239 Ry
     xc contribution           =    -110.49640969 Ry
     ewald contribution        =    -194.16169962 Ry

     convergence has been achieved in  33 iterations

     Forces acting on atoms (cartesian axes, Ry/au):

     atom    1 type  1   force =     0.74593587   -0.85152540    1.52196746
     atom    2 type  1   force =    -1.09920641    1.09766218   -1.35522489
     atom    3 type  2   force =     0.28192316   -0.17847958   -0.24788306
     atom    4 type  2   force =     0.07134738   -0.06765720    0.08114048
     The non-local contrib.  to forces
     atom    1 type  1   force =    -0.65945530    0.70654400   -1.16761721
     atom    2 type  1   force =    -0.00527977   -0.20316071    1.91199185
     atom    3 type  2   force =    -0.48932054    0.23721888    1.38220442
     atom    4 type  2   force =     0.20329825    0.04875061   -1.44350163
     The ionic contribution  to forces
     atom    1 type  1   force =     7.33583778   -8.92916321   29.75190877
     atom    2 type  1   force =   -12.06207453   12.50602091  -30.07836955
     atom    3 type  2   force =     5.32305336   -2.98795102  -18.31394476
     atom    4 type  2   force =    -0.59681662   -0.58890667   18.64040554
     The local contribution  to forces
     atom    1 type  1   force =    -5.90485285    7.34109245  -26.99897987
     atom    2 type  1   force =    10.88331230  -11.12541467   26.79374474
     atom    3 type  2   force =    -4.55442948    2.57322020   16.69425908
     atom    4 type  2   force =     0.46710991    0.47259467  -17.12742577
     The core correction contribution to forces
     atom    1 type  1   force =    -0.02561274    0.03000862   -0.06358084
     atom    2 type  1   force =     0.08482348   -0.07977215    0.01754217
     atom    3 type  2   force =     0.00261438   -0.00096751   -0.01025856
     atom    4 type  2   force =    -0.00222800   -0.00009764    0.01152677
     The Hubbard contrib.    to forces
     atom    1 type  1   force =     0.00000000    0.00000000    0.00000000
     atom    2 type  1   force =     0.00000000    0.00000000    0.00000000
     atom    3 type  2   force =     0.00000000    0.00000000    0.00000000
     atom    4 type  2   force =     0.00000000    0.00000000    0.00000000
     The SCF correction term to forces
     atom    1 type  1   force =     0.00002602   -0.00001052    0.00025046
     atom    2 type  1   force =     0.00001913   -0.00001447   -0.00012024
     atom    3 type  2   force =     0.00001248   -0.00000339   -0.00012938
     atom    4 type  2   force =    -0.00000914   -0.00000143    0.00014943

     Total force =     2.834905     Total SCF correction =     0.000343

     Writing all to output data dir ./ZnO_ANN.save/

     init_run     :      2.76s CPU      2.84s WALL (       1 calls)
     electrons    :    173.76s CPU    177.87s WALL (       1 calls)
     forces       :      0.86s CPU      0.87s WALL (       1 calls)

     Called by init_run:
     wfcinit      :      1.99s CPU      2.04s WALL (       1 calls)
     potinit      :      0.17s CPU      0.17s WALL (       1 calls)
     hinit0       :      0.54s CPU      0.55s WALL (       1 calls)

     Called by electrons:
     c_bands      :    153.79s CPU    157.30s WALL (      33 calls)
     sum_band     :     17.90s CPU     18.43s WALL (      33 calls)
     v_of_rho     :      0.45s CPU      0.49s WALL (      34 calls)
     newd         :      1.56s CPU      1.59s WALL (      34 calls)
     mix_rho      :      0.07s CPU      0.08s WALL (      33 calls)

     Called by c_bands:
     init_us_2    :      1.35s CPU      1.37s WALL (    7616 calls)
     init_us_2:cp :      1.32s CPU      1.35s WALL (    7616 calls)
     cegterg      :    149.35s CPU    152.79s WALL (    3696 calls)

     Called by *egterg:
     cdiaghg      :     19.18s CPU     19.35s WALL (   17604 calls)
     h_psi        :     84.46s CPU     87.05s WALL (   17716 calls)
     s_psi        :     11.48s CPU     11.60s WALL (   17716 calls)
     g_psi        :      0.29s CPU      0.30s WALL (   13908 calls)

     Called by h_psi:
     h_psi:calbec :     12.35s CPU     12.88s WALL (   17716 calls)
     vloc_psi     :     60.33s CPU     62.28s WALL (   17716 calls)
     add_vuspsi   :     11.46s CPU     11.58s WALL (   17716 calls)

     General routines
     calbec       :     16.98s CPU     17.67s WALL (   21860 calls)
     fft          :      0.61s CPU      0.66s WALL (     451 calls)
     ffts         :      0.06s CPU      0.06s WALL (      67 calls)
     fftw         :     60.97s CPU     62.94s WALL (  451936 calls)
     interpolate  :      0.07s CPU      0.08s WALL (      34 calls)

     Parallel routines

     PWSCF        :   2m58.07s CPU   3m 2.40s WALL


   This run was terminated on:  12:24: 6  23Jun2025            

=------------------------------------------------------------------------------=
   JOB DONE.
=------------------------------------------------------------------------------=
Note: The following floating-point exceptions are signalling: IEEE_INVALID_FLAG
