
     Program PWSCF v.7.2 starts on 23Jun2025 at 15:53:25 

     This program is part of the open-source Quantum ESPRESSO suite
     for quantum simulation of materials; please cite
         "P. Giannozzi et al., J. Phys.:Condens. Matter 21 395502 (2009);
         "P. Giannozzi et al., J. Phys.:Condens. Matter 29 465901 (2017);
         "P. Giannozzi et al., J. Chem. Phys. 152 154105 (2020);
          URL http://www.quantum-espresso.org", 
     in publications or presentations arising from this work. More details at
     http://www.quantum-espresso.org/quote

     Parallel version (MPI), running on     8 processors

     MPI processes distributed on     1 nodes
     90974 MiB available memory on the printing compute node when the environment starts

     Reading input from /home/jvc/QEspresso7.2/ZnO_DataBase/scfs_rnd025.in/scf-6.43-1.55-2.in

     Current dimensions of program PWSCF are:
     Max number of different atomic species (ntypx) = 10
     Max number of k-points (npk) =  40000
     Max angular momentum in pseudopotentials (lmaxx) =  4
     file Zn.upf: wavefunction(s)  3D renormalized

     R & G space division:  proc/nbgrp/npool/nimage =       8
     Subspace diagonalization in iterative solution of the eigenvalue problem:
     a serial algorithm will be used


     Parallelization info
     --------------------
     sticks:   dense  smooth     PW     G-vecs:    dense   smooth      PW
     Min         143      71     20                 6027     2127     350
     Max         144      73     21                 6030     2130     357
     Sum        1147     571    163                48225    17031    2815

     Using Slab Decomposition



     bravais-lattice index     =            4
     lattice parameter (alat)  =       6.4260  a.u.
     unit-cell volume          =     356.1384 (a.u.)^3
     number of atoms/cell      =            4
     number of atomic types    =            2
     number of electrons       =        36.00
     number of Kohn-Sham states=           18
     kinetic-energy cutoff     =      50.0000  Ry
     charge density cutoff     =     400.0000  Ry
     scf convergence threshold =      1.0E-08
     mixing beta               =       0.3000
     number of iterations used =            8  plain     mixing
     Exchange-correlation= PBE
                           (   1   4   3   4   0   0   0)

     celldm(1)=   6.425974  celldm(2)=   0.000000  celldm(3)=   1.549784
     celldm(4)=   0.000000  celldm(5)=   0.000000  celldm(6)=   0.000000

     crystal axes: (cart. coord. in units of alat)
               a(1) = (   1.000000   0.000000   0.000000 )  
               a(2) = (  -0.500000   0.866025   0.000000 )  
               a(3) = (   0.000000   0.000000   1.549784 )  

     reciprocal axes: (cart. coord. in units 2 pi/alat)
               b(1) = (  1.000000  0.577350 -0.000000 )  
               b(2) = (  0.000000  1.154701  0.000000 )  
               b(3) = (  0.000000 -0.000000  0.645251 )  


     PseudoPot. # 1 for Zn read from file:
     ./pseudos/Zn.upf
     MD5 check sum: 7f56cabf9682ed8c977c2f7d0c5985c5
     Pseudo is Ultrasoft + core correction, Zval = 12.0
     Generated using &quot;atomic&quot; code by A. Dal Corso  v.6.2.2
     Using radial grid of 1201 points,  6 beta functions with: 
                l(1) =   0
                l(2) =   0
                l(3) =   1
                l(4) =   1
                l(5) =   2
                l(6) =   2
     Q(r) pseudized with 0 coefficients 


     PseudoPot. # 2 for O  read from file:
     ./pseudos/O.upf
     MD5 check sum: 91400c9766925bcf19f520983a725ff0
     Pseudo is Ultrasoft + core correction, Zval =  6.0
     Generated using &quot;atomic&quot; code by A. Dal Corso  v.6.3MaX
     Using radial grid of 1095 points,  4 beta functions with: 
                l(1) =   0
                l(2) =   0
                l(3) =   1
                l(4) =   1
     Q(r) pseudized with 0 coefficients 


     atomic species   valence    mass     pseudopotential
        Zn            12.00    63.38000     Zn( 1.00)
        O              6.00    15.99900     O ( 1.00)

     No symmetry found



   Cartesian axes

     site n.     atom                  positions (alat units)
         1           Zn  tau(   1) = (   0.6041141   0.1025400   0.6942425  )
         2           Zn  tau(   2) = (  -0.1318078   0.6397471  -0.3711040  )
         3           O   tau(   3) = (   0.3383345   0.3935188   1.3671995  )
         4           O   tau(   4) = (  -0.0450884   0.5384260   0.6734108  )

     number of k points=   112

     Number of k-points >= 100: set verbosity='high' to print them.

     Dense  grid:    48225 G-vectors     FFT dimensions: (  45,  45,  64)

     Smooth grid:    17031 G-vectors     FFT dimensions: (  30,  30,  45)

     Estimated max dynamical RAM per process >      32.95 MB

     Estimated total dynamical RAM >     263.62 MB

     Check: negative core charge=   -0.000002

     Initial potential from superposition of free atoms

     starting charge      35.9925, renormalised to      36.0000
     Starting wfcs are   26 randomized atomic wfcs

     total cpu time spent up to now is        4.1 secs

     Self-consistent Calculation

     iteration #  1     ecut=    50.00 Ry     beta= 0.30
     Davidson diagonalization with overlap
     ethr =  1.00E-02,  avg # of iterations =  2.0

     total cpu time spent up to now is        9.7 secs

     total energy              =    -361.09741092 Ry
     estimated scf accuracy    <       0.90720595 Ry

     iteration #  2     ecut=    50.00 Ry     beta= 0.30
     Davidson diagonalization with overlap
     ethr =  2.52E-03,  avg # of iterations =  2.0

     total cpu time spent up to now is       16.1 secs

     total energy              =    -361.21831546 Ry
     estimated scf accuracy    <       0.12665846 Ry

     iteration #  3     ecut=    50.00 Ry     beta= 0.30
     Davidson diagonalization with overlap
     ethr =  3.52E-04,  avg # of iterations =  6.9

     total cpu time spent up to now is       28.2 secs

     total energy              =    -361.29433106 Ry
     estimated scf accuracy    <       0.12077192 Ry

     iteration #  4     ecut=    50.00 Ry     beta= 0.30
     Davidson diagonalization with overlap
     ethr =  3.35E-04,  avg # of iterations =  2.2

     total cpu time spent up to now is       34.3 secs

     total energy              =    -361.29564490 Ry
     estimated scf accuracy    <       0.02183326 Ry

     iteration #  5     ecut=    50.00 Ry     beta= 0.30
     Davidson diagonalization with overlap
     ethr =  6.06E-05,  avg # of iterations =  9.4

     total cpu time spent up to now is       52.9 secs

     total energy              =    -361.30090224 Ry
     estimated scf accuracy    <       0.33297541 Ry

     iteration #  6     ecut=    50.00 Ry     beta= 0.30
     Davidson diagonalization with overlap
     ethr =  6.06E-05,  avg # of iterations =  7.0

     total cpu time spent up to now is       65.3 secs

     total energy              =    -361.31229709 Ry
     estimated scf accuracy    <       0.04523492 Ry

     iteration #  7     ecut=    50.00 Ry     beta= 0.30
     Davidson diagonalization with overlap
     ethr =  6.06E-05,  avg # of iterations =  5.9

     total cpu time spent up to now is       73.1 secs

     total energy              =    -361.31849362 Ry
     estimated scf accuracy    <       0.00408789 Ry

     iteration #  8     ecut=    50.00 Ry     beta= 0.30
     Davidson diagonalization with overlap
     ethr =  1.14E-05,  avg # of iterations =  3.8

     total cpu time spent up to now is       79.9 secs

     total energy              =    -361.31865744 Ry
     estimated scf accuracy    <       0.00180121 Ry

     iteration #  9     ecut=    50.00 Ry     beta= 0.30
     Davidson diagonalization with overlap
     ethr =  5.00E-06,  avg # of iterations =  5.0

     total cpu time spent up to now is       88.4 secs

     total energy              =    -361.31932873 Ry
     estimated scf accuracy    <       0.00026176 Ry

     iteration # 10     ecut=    50.00 Ry     beta= 0.30
     Davidson diagonalization with overlap
     ethr =  7.27E-07,  avg # of iterations =  5.6

     total cpu time spent up to now is       96.5 secs

     total energy              =    -361.31934200 Ry
     estimated scf accuracy    <       0.00018483 Ry

     iteration # 11     ecut=    50.00 Ry     beta= 0.30
     Davidson diagonalization with overlap
     ethr =  5.13E-07,  avg # of iterations =  4.6

     total cpu time spent up to now is      104.7 secs

     total energy              =    -361.31935235 Ry
     estimated scf accuracy    <       0.00011430 Ry

     iteration # 12     ecut=    50.00 Ry     beta= 0.30
     Davidson diagonalization with overlap
     ethr =  3.18E-07,  avg # of iterations =  5.7

     total cpu time spent up to now is      112.4 secs

     total energy              =    -361.31938589 Ry
     estimated scf accuracy    <       0.00000749 Ry

     iteration # 13     ecut=    50.00 Ry     beta= 0.30
     Davidson diagonalization with overlap
     ethr =  2.08E-08,  avg # of iterations =  5.2

     total cpu time spent up to now is      120.6 secs

     total energy              =    -361.31938360 Ry
     estimated scf accuracy    <       0.00001080 Ry

     iteration # 14     ecut=    50.00 Ry     beta= 0.30
     Davidson diagonalization with overlap
     ethr =  2.08E-08,  avg # of iterations =  6.8

     total cpu time spent up to now is      131.1 secs

     total energy              =    -361.31938665 Ry
     estimated scf accuracy    <       0.00000559 Ry

     iteration # 15     ecut=    50.00 Ry     beta= 0.30
     Davidson diagonalization with overlap
     ethr =  1.55E-08,  avg # of iterations =  2.4

     total cpu time spent up to now is      137.0 secs

     total energy              =    -361.31938688 Ry
     estimated scf accuracy    <       0.00000085 Ry

     iteration # 16     ecut=    50.00 Ry     beta= 0.30
     Davidson diagonalization with overlap
     ethr =  2.36E-09,  avg # of iterations =  7.4

     total cpu time spent up to now is      149.9 secs

     total energy              =    -361.31938782 Ry
     estimated scf accuracy    <       0.00000108 Ry

     iteration # 17     ecut=    50.00 Ry     beta= 0.30
     Davidson diagonalization with overlap
     ethr =  2.36E-09,  avg # of iterations =  1.5

     total cpu time spent up to now is      155.1 secs

     total energy              =    -361.31938767 Ry
     estimated scf accuracy    <       0.00000054 Ry

     iteration # 18     ecut=    50.00 Ry     beta= 0.30
     Davidson diagonalization with overlap
     ethr =  1.51E-09,  avg # of iterations =  3.9

     total cpu time spent up to now is      162.2 secs

     total energy              =    -361.31938780 Ry
     estimated scf accuracy    <       0.00000004 Ry

     iteration # 19     ecut=    50.00 Ry     beta= 0.30
     Davidson diagonalization with overlap
     ethr =  1.12E-10,  avg # of iterations =  4.9

     total cpu time spent up to now is      170.5 secs

     total energy              =    -361.31938782 Ry
     estimated scf accuracy    <       0.00000002 Ry

     iteration # 20     ecut=    50.00 Ry     beta= 0.30
     Davidson diagonalization with overlap
     ethr =  5.86E-11,  avg # of iterations =  2.0

     total cpu time spent up to now is      175.9 secs

     total energy              =    -361.31938781 Ry
     estimated scf accuracy    <       0.00000001 Ry

     iteration # 21     ecut=    50.00 Ry     beta= 0.30
     Davidson diagonalization with overlap
     ethr =  3.30E-11,  avg # of iterations =  6.1

     total cpu time spent up to now is      185.4 secs

     total energy              =    -361.31938781 Ry
     estimated scf accuracy    <       0.00000001 Ry

     iteration # 22     ecut=    50.00 Ry     beta= 0.30
     Davidson diagonalization with overlap
     ethr =  2.97E-11,  avg # of iterations =  2.0

     total cpu time spent up to now is      191.0 secs

     End of self-consistent calculation

     Number of k-points >= 100: set verbosity='high' to print the bands.

     highest occupied level (ev):     6.3427

!    total energy              =    -361.31938781 Ry
     estimated scf accuracy    <          3.0E-09 Ry

     The total energy is the sum of the following terms:
     one-electron contribution =    -211.36238140 Ry
     hartree contribution      =     144.40024218 Ry
     xc contribution           =    -109.61858823 Ry
     ewald contribution        =    -184.73866036 Ry

     convergence has been achieved in  22 iterations

     Forces acting on atoms (cartesian axes, Ry/au):

     atom    1 type  1   force =     0.16575836    0.44565557   -0.11059172
     atom    2 type  1   force =    -0.09365517   -0.00334312    0.29631128
     atom    3 type  2   force =     0.05844013   -0.03729835   -0.01983258
     atom    4 type  2   force =    -0.13054331   -0.40501411   -0.16588698
     The non-local contrib.  to forces
     atom    1 type  1   force =     0.13819285    0.53569291    0.10906421
     atom    2 type  1   force =    -0.18519871    0.28902233   -0.08921496
     atom    3 type  2   force =     0.01494742    0.04375575   -0.75041570
     atom    4 type  2   force =    -0.34664118    0.50792817    0.65648197
     The ionic contribution  to forces
     atom    1 type  1   force =     3.04717058    7.82550751  -18.79050346
     atom    2 type  1   force =    -4.17800463    0.39367465   21.10264146
     atom    3 type  2   force =     0.99039491   -0.87453428   12.04771757
     atom    4 type  2   force =     0.14043915   -7.34464788  -14.35985557
     The local contribution  to forces
     atom    1 type  1   force =    -3.00136181   -7.84296301   18.56458871
     atom    2 type  1   force =     4.24862496   -0.66804123  -20.68367414
     atom    3 type  2   force =    -0.94628989    0.79353492  -11.32389345
     atom    4 type  2   force =     0.07177133    6.43381611   13.54189319
     The core correction contribution to forces
     atom    1 type  1   force =    -0.01823878   -0.07255175    0.00632508
     atom    2 type  1   force =     0.02090744   -0.01797661   -0.03349653
     atom    3 type  2   force =    -0.00060639   -0.00006262    0.00671992
     atom    4 type  2   force =     0.00388816   -0.00211124   -0.00436539
     The Hubbard contrib.    to forces
     atom    1 type  1   force =     0.00000000    0.00000000    0.00000000
     atom    2 type  1   force =     0.00000000    0.00000000    0.00000000
     atom    3 type  2   force =     0.00000000    0.00000000    0.00000000
     atom    4 type  2   force =     0.00000000    0.00000000    0.00000000
     The SCF correction term to forces
     atom    1 type  1   force =    -0.00000167   -0.00003663   -0.00006575
     atom    2 type  1   force =     0.00001860   -0.00002880    0.00005597
     atom    3 type  2   force =    -0.00000310    0.00000134    0.00003958
     atom    4 type  2   force =     0.00000206   -0.00000582   -0.00004068

     Total force =     0.740739     Total SCF correction =     0.000115

     Writing all to output data dir ./ZnO_ANN.save/

     init_run     :      3.52s CPU      3.61s WALL (       1 calls)
     electrons    :    183.39s CPU    186.90s WALL (       1 calls)
     forces       :      1.14s CPU      1.14s WALL (       1 calls)

     Called by init_run:
     wfcinit      :      2.72s CPU      2.78s WALL (       1 calls)
     potinit      :      0.26s CPU      0.27s WALL (       1 calls)
     hinit0       :      0.45s CPU      0.46s WALL (       1 calls)

     Called by electrons:
     c_bands      :    164.63s CPU    167.68s WALL (      22 calls)
     sum_band     :     16.90s CPU     17.31s WALL (      22 calls)
     v_of_rho     :      0.40s CPU      0.42s WALL (      23 calls)
     newd         :      1.44s CPU      1.46s WALL (      23 calls)
     mix_rho      :      0.06s CPU      0.07s WALL (      22 calls)

     Called by c_bands:
     init_us_2    :      1.29s CPU      1.31s WALL (    5152 calls)
     init_us_2:cp :      1.27s CPU      1.30s WALL (    5152 calls)
     cegterg      :    160.68s CPU    163.66s WALL (    2464 calls)

     Called by *egterg:
     cdiaghg      :     15.92s CPU     16.04s WALL (   13908 calls)
     h_psi        :     95.33s CPU     97.55s WALL (   14020 calls)
     s_psi        :     12.11s CPU     12.21s WALL (   14020 calls)
     g_psi        :      0.33s CPU      0.33s WALL (   11444 calls)

     Called by h_psi:
     h_psi:calbec :     12.93s CPU     13.36s WALL (   14020 calls)
     vloc_psi     :     69.93s CPU     71.62s WALL (   14020 calls)
     add_vuspsi   :     12.16s CPU     12.27s WALL (   14020 calls)

     General routines
     calbec       :     17.32s CPU     17.86s WALL (   16932 calls)
     fft          :      0.43s CPU      0.46s WALL (     308 calls)
     ffts         :      0.12s CPU      0.12s WALL (      45 calls)
     fftw         :     70.32s CPU     72.01s WALL (  344704 calls)
     interpolate  :      0.13s CPU      0.13s WALL (      23 calls)

     Parallel routines

     PWSCF        :   3m 8.80s CPU   3m12.68s WALL


   This run was terminated on:  15:56:38  23Jun2025            

=------------------------------------------------------------------------------=
   JOB DONE.
=------------------------------------------------------------------------------=
Note: The following floating-point exceptions are signalling: IEEE_INVALID_FLAG
