
     Program PWSCF v.7.2 starts on 23Jun2025 at 16: 2:53 

     This program is part of the open-source Quantum ESPRESSO suite
     for quantum simulation of materials; please cite
         "P. Giannozzi et al., J. Phys.:Condens. Matter 21 395502 (2009);
         "P. Giannozzi et al., J. Phys.:Condens. Matter 29 465901 (2017);
         "P. Giannozzi et al., J. Chem. Phys. 152 154105 (2020);
          URL http://www.quantum-espresso.org", 
     in publications or presentations arising from this work. More details at
     http://www.quantum-espresso.org/quote

     Parallel version (MPI), running on     8 processors

     MPI processes distributed on     1 nodes
     90910 MiB available memory on the printing compute node when the environment starts

     Reading input from /home/jvc/QEspresso7.2/ZnO_DataBase/scfs_rnd025.in/scf-6.43-1.65-2.in

     Current dimensions of program PWSCF are:
     Max number of different atomic species (ntypx) = 10
     Max number of k-points (npk) =  40000
     Max angular momentum in pseudopotentials (lmaxx) =  4
     file Zn.upf: wavefunction(s)  3D renormalized

     R & G space division:  proc/nbgrp/npool/nimage =       8
     Subspace diagonalization in iterative solution of the eigenvalue problem:
     a serial algorithm will be used


     Parallelization info
     --------------------
     sticks:   dense  smooth     PW     G-vecs:    dense   smooth      PW
     Min         143      71     20                 6387     2261     372
     Max         145      73     21                 6390     2262     381
     Sum        1147     571    163                51109    18089    3009

     Using Slab Decomposition



     bravais-lattice index     =            4
     lattice parameter (alat)  =       6.4260  a.u.
     unit-cell volume          =     378.3970 (a.u.)^3
     number of atoms/cell      =            4
     number of atomic types    =            2
     number of electrons       =        36.00
     number of Kohn-Sham states=           18
     kinetic-energy cutoff     =      50.0000  Ry
     charge density cutoff     =     400.0000  Ry
     scf convergence threshold =      1.0E-08
     mixing beta               =       0.3000
     number of iterations used =            8  plain     mixing
     Exchange-correlation= PBE
                           (   1   4   3   4   0   0   0)

     celldm(1)=   6.425974  celldm(2)=   0.000000  celldm(3)=   1.646646
     celldm(4)=   0.000000  celldm(5)=   0.000000  celldm(6)=   0.000000

     crystal axes: (cart. coord. in units of alat)
               a(1) = (   1.000000   0.000000   0.000000 )  
               a(2) = (  -0.500000   0.866025   0.000000 )  
               a(3) = (   0.000000   0.000000   1.646646 )  

     reciprocal axes: (cart. coord. in units 2 pi/alat)
               b(1) = (  1.000000  0.577350 -0.000000 )  
               b(2) = (  0.000000  1.154701  0.000000 )  
               b(3) = (  0.000000 -0.000000  0.607295 )  


     PseudoPot. # 1 for Zn read from file:
     ./pseudos/Zn.upf
     MD5 check sum: 7f56cabf9682ed8c977c2f7d0c5985c5
     Pseudo is Ultrasoft + core correction, Zval = 12.0
     Generated using &quot;atomic&quot; code by A. Dal Corso  v.6.2.2
     Using radial grid of 1201 points,  6 beta functions with: 
                l(1) =   0
                l(2) =   0
                l(3) =   1
                l(4) =   1
                l(5) =   2
                l(6) =   2
     Q(r) pseudized with 0 coefficients 


     PseudoPot. # 2 for O  read from file:
     ./pseudos/O.upf
     MD5 check sum: 91400c9766925bcf19f520983a725ff0
     Pseudo is Ultrasoft + core correction, Zval =  6.0
     Generated using &quot;atomic&quot; code by A. Dal Corso  v.6.3MaX
     Using radial grid of 1095 points,  4 beta functions with: 
                l(1) =   0
                l(2) =   0
                l(3) =   1
                l(4) =   1
     Q(r) pseudized with 0 coefficients 


     atomic species   valence    mass     pseudopotential
        Zn            12.00    63.38000     Zn( 1.00)
        O              6.00    15.99900     O ( 1.00)

     No symmetry found



   Cartesian axes

     site n.     atom                  positions (alat units)
         1           Zn  tau(   1) = (   0.7577893   0.2447817   1.0368861  )
         2           Zn  tau(   2) = (   0.2716086   0.4342744   0.3678952  )
         3           O   tau(   3) = (   0.6264980   0.2642714   1.1452381  )
         4           O   tau(   4) = (   0.0339205   0.6556622   0.6008938  )

     number of k points=   112

     Number of k-points >= 100: set verbosity='high' to print them.

     Dense  grid:    51109 G-vectors     FFT dimensions: (  45,  45,  72)

     Smooth grid:    18089 G-vectors     FFT dimensions: (  30,  30,  48)

     Estimated max dynamical RAM per process >      34.84 MB

     Estimated total dynamical RAM >     278.70 MB

     Check: negative core charge=   -0.000002

     Initial potential from superposition of free atoms

     starting charge      35.9925, renormalised to      36.0000
     Starting wfcs are   26 randomized atomic wfcs

     total cpu time spent up to now is        4.3 secs

     Self-consistent Calculation

     iteration #  1     ecut=    50.00 Ry     beta= 0.30
     Davidson diagonalization with overlap
     ethr =  1.00E-02,  avg # of iterations =  5.6

     total cpu time spent up to now is       14.2 secs

     total energy              =    -338.57894577 Ry
     estimated scf accuracy    <       1.69076604 Ry

     iteration #  2     ecut=    50.00 Ry     beta= 0.30
     Davidson diagonalization with overlap
     ethr =  4.70E-03,  avg # of iterations =  2.0

     total cpu time spent up to now is       20.0 secs

     total energy              =    -338.41769008 Ry
     estimated scf accuracy    <       0.44916602 Ry

     iteration #  3     ecut=    50.00 Ry     beta= 0.30
     Davidson diagonalization with overlap
     ethr =  1.25E-03,  avg # of iterations =  9.2

     total cpu time spent up to now is       32.2 secs

     total energy              =    -338.93002374 Ry
     estimated scf accuracy    <       1.79771433 Ry

     iteration #  4     ecut=    50.00 Ry     beta= 0.30
     Davidson diagonalization with overlap
     ethr =  1.25E-03,  avg # of iterations =  1.0

     total cpu time spent up to now is       37.3 secs

     total energy              =    -338.09522254 Ry
     estimated scf accuracy    <       1.49963116 Ry

     iteration #  5     ecut=    50.00 Ry     beta= 0.30
     Davidson diagonalization with overlap
     ethr =  1.25E-03,  avg # of iterations =  8.8

     total cpu time spent up to now is       50.9 secs

     total energy              =    -338.92557698 Ry
     estimated scf accuracy    <       0.96267059 Ry

     iteration #  6     ecut=    50.00 Ry     beta= 0.30
     Davidson diagonalization with overlap
     ethr =  1.25E-03,  avg # of iterations =  1.1

     total cpu time spent up to now is       56.0 secs

     total energy              =    -338.58894884 Ry
     estimated scf accuracy    <       0.84128405 Ry

     iteration #  7     ecut=    50.00 Ry     beta= 0.30
     Davidson diagonalization with overlap
     ethr =  1.25E-03,  avg # of iterations =  5.5

     total cpu time spent up to now is       64.3 secs

     total energy              =    -338.72587228 Ry
     estimated scf accuracy    <       0.01133260 Ry

     iteration #  8     ecut=    50.00 Ry     beta= 0.30
     Davidson diagonalization with overlap
     ethr =  3.15E-05,  avg # of iterations =  5.7

     total cpu time spent up to now is       72.8 secs

     total energy              =    -338.73173489 Ry
     estimated scf accuracy    <       0.01603050 Ry

     iteration #  9     ecut=    50.00 Ry     beta= 0.30
     Davidson diagonalization with overlap
     ethr =  3.15E-05,  avg # of iterations =  1.7

     total cpu time spent up to now is       78.3 secs

     total energy              =    -338.72701519 Ry
     estimated scf accuracy    <       0.01485410 Ry

     iteration # 10     ecut=    50.00 Ry     beta= 0.30
     Davidson diagonalization with overlap
     ethr =  3.15E-05,  avg # of iterations =  6.5

     total cpu time spent up to now is       85.8 secs

     total energy              =    -338.72875319 Ry
     estimated scf accuracy    <       0.00528701 Ry

     iteration # 11     ecut=    50.00 Ry     beta= 0.30
     Davidson diagonalization with overlap
     ethr =  1.47E-05,  avg # of iterations =  3.1

     total cpu time spent up to now is       91.8 secs

     total energy              =    -338.73248117 Ry
     estimated scf accuracy    <       0.00352188 Ry

     iteration # 12     ecut=    50.00 Ry     beta= 0.30
     Davidson diagonalization with overlap
     c_bands:  1 eigenvalues not converged
     ethr =  9.78E-06,  avg # of iterations =  9.4

     total cpu time spent up to now is      102.8 secs

     total energy              =    -338.72810890 Ry
     estimated scf accuracy    <       0.03210895 Ry

     iteration # 13     ecut=    50.00 Ry     beta= 0.30
     Davidson diagonalization with overlap
     ethr =  9.78E-06,  avg # of iterations =  6.7

     total cpu time spent up to now is      112.9 secs

     total energy              =    -338.73767763 Ry
     estimated scf accuracy    <       0.00880881 Ry

     iteration # 14     ecut=    50.00 Ry     beta= 0.30
     Davidson diagonalization with overlap
     ethr =  9.78E-06,  avg # of iterations = 11.0

     total cpu time spent up to now is      125.0 secs

     total energy              =    -338.74519338 Ry
     estimated scf accuracy    <       0.06442006 Ry

     iteration # 15     ecut=    50.00 Ry     beta= 0.30
     Davidson diagonalization with overlap
     ethr =  9.78E-06,  avg # of iterations =  4.4

     total cpu time spent up to now is      131.9 secs

     total energy              =    -338.72154145 Ry
     estimated scf accuracy    <       0.08019410 Ry

     iteration # 16     ecut=    50.00 Ry     beta= 0.30
     Davidson diagonalization with overlap
     c_bands:  1 eigenvalues not converged
     ethr =  9.78E-06,  avg # of iterations = 13.2

     total cpu time spent up to now is      146.6 secs

     total energy              =    -338.72724363 Ry
     estimated scf accuracy    <       0.00507218 Ry

     iteration # 17     ecut=    50.00 Ry     beta= 0.30
     Davidson diagonalization with overlap
     ethr =  9.78E-06,  avg # of iterations =  7.3

     total cpu time spent up to now is      155.3 secs

     total energy              =    -338.72847653 Ry
     estimated scf accuracy    <       0.00270425 Ry

     iteration # 18     ecut=    50.00 Ry     beta= 0.30
     Davidson diagonalization with overlap
     ethr =  7.51E-06,  avg # of iterations =  2.5

     total cpu time spent up to now is      161.2 secs

     total energy              =    -338.72826176 Ry
     estimated scf accuracy    <       0.00181875 Ry

     iteration # 19     ecut=    50.00 Ry     beta= 0.30
     Davidson diagonalization with overlap
     ethr =  5.05E-06,  avg # of iterations =  5.8

     total cpu time spent up to now is      169.0 secs

     total energy              =    -338.72840287 Ry
     estimated scf accuracy    <       0.00093261 Ry

     iteration # 20     ecut=    50.00 Ry     beta= 0.30
     Davidson diagonalization with overlap
     ethr =  2.59E-06,  avg # of iterations =  2.5

     total cpu time spent up to now is      175.0 secs

     total energy              =    -338.72844312 Ry
     estimated scf accuracy    <       0.00030746 Ry

     iteration # 21     ecut=    50.00 Ry     beta= 0.30
     Davidson diagonalization with overlap
     ethr =  8.54E-07,  avg # of iterations =  7.3

     total cpu time spent up to now is      183.4 secs

     total energy              =    -338.72841363 Ry
     estimated scf accuracy    <       0.00038505 Ry

     iteration # 22     ecut=    50.00 Ry     beta= 0.30
     Davidson diagonalization with overlap
     ethr =  8.54E-07,  avg # of iterations =  3.9

     total cpu time spent up to now is      189.8 secs

     total energy              =    -338.72842726 Ry
     estimated scf accuracy    <       0.00006368 Ry

     iteration # 23     ecut=    50.00 Ry     beta= 0.30
     Davidson diagonalization with overlap
     ethr =  1.77E-07,  avg # of iterations =  8.5

     total cpu time spent up to now is      201.6 secs

     total energy              =    -338.72849031 Ry
     estimated scf accuracy    <       0.00013307 Ry

     iteration # 24     ecut=    50.00 Ry     beta= 0.30
     Davidson diagonalization with overlap
     ethr =  1.77E-07,  avg # of iterations =  1.6

     total cpu time spent up to now is      206.9 secs

     total energy              =    -338.72847104 Ry
     estimated scf accuracy    <       0.00008056 Ry

     iteration # 25     ecut=    50.00 Ry     beta= 0.30
     Davidson diagonalization with overlap
     ethr =  1.77E-07,  avg # of iterations =  4.7

     total cpu time spent up to now is      214.1 secs

     total energy              =    -338.72848614 Ry
     estimated scf accuracy    <       0.00000202 Ry

     iteration # 26     ecut=    50.00 Ry     beta= 0.30
     Davidson diagonalization with overlap
     ethr =  5.62E-09,  avg # of iterations =  6.4

     total cpu time spent up to now is      223.3 secs

     total energy              =    -338.72848777 Ry
     estimated scf accuracy    <       0.00000035 Ry

     iteration # 27     ecut=    50.00 Ry     beta= 0.30
     Davidson diagonalization with overlap
     ethr =  9.85E-10,  avg # of iterations =  4.4

     total cpu time spent up to now is      229.8 secs

     total energy              =    -338.72848774 Ry
     estimated scf accuracy    <       0.00000046 Ry

     iteration # 28     ecut=    50.00 Ry     beta= 0.30
     Davidson diagonalization with overlap
     ethr =  9.85E-10,  avg # of iterations =  1.5

     total cpu time spent up to now is      235.2 secs

     total energy              =    -338.72848772 Ry
     estimated scf accuracy    <       0.00000028 Ry

     iteration # 29     ecut=    50.00 Ry     beta= 0.30
     Davidson diagonalization with overlap
     ethr =  7.79E-10,  avg # of iterations =  2.1

     total cpu time spent up to now is      240.9 secs

     total energy              =    -338.72848773 Ry
     estimated scf accuracy    <       0.00000014 Ry

     iteration # 30     ecut=    50.00 Ry     beta= 0.30
     Davidson diagonalization with overlap
     ethr =  3.89E-10,  avg # of iterations =  3.7

     total cpu time spent up to now is      247.1 secs

     total energy              =    -338.72848771 Ry
     estimated scf accuracy    <       0.00000008 Ry

     iteration # 31     ecut=    50.00 Ry     beta= 0.30
     Davidson diagonalization with overlap
     ethr =  2.20E-10,  avg # of iterations =  6.1

     total cpu time spent up to now is      255.4 secs

     End of self-consistent calculation

     Number of k-points >= 100: set verbosity='high' to print the bands.

     highest occupied level (ev):     7.4901

!    total energy              =    -338.72848774 Ry
     estimated scf accuracy    <          4.8E-09 Ry

     The total energy is the sum of the following terms:
     one-electron contribution =    -291.28746801 Ry
     hartree contribution      =     177.92486633 Ry
     xc contribution           =    -113.01346553 Ry
     ewald contribution        =    -112.35242054 Ry

     convergence has been achieved in  31 iterations

     Forces acting on atoms (cartesian axes, Ry/au):

     atom    1 type  1   force =    43.48152715   -6.43110485  -35.76716096
     atom    2 type  1   force =     0.70203617   -0.66408700   -0.67468783
     atom    3 type  2   force =   -43.49105310    6.44590870   35.94186684
     atom    4 type  2   force =    -0.69251022    0.64928316    0.49998196
     The non-local contrib.  to forces
     atom    1 type  1   force =   -19.04933731    2.83711639   15.77580283
     atom    2 type  1   force =     0.86505903   -0.73611466   -0.81915147
     atom    3 type  2   force =     5.07917226   -0.75181898   -4.04553717
     atom    4 type  2   force =     0.55683385   -0.50372800   -0.95574750
     The ionic contribution  to forces
     atom    1 type  1   force =    88.41974134  -13.43743786  -57.64631466
     atom    2 type  1   force =     8.58120978   -7.73372700  -25.23599344
     atom    3 type  2   force =   -88.30222868   13.22155677   81.10495254
     atom    4 type  2   force =    -8.69872243    7.94960809    1.77735556
     The local contribution  to forces
     atom    1 type  1   force =   -24.71823819    3.99333577    5.14255585
     atom    2 type  1   force =    -8.64148860    7.71437792   25.27025813
     atom    3 type  2   force =    39.59707257   -6.00356401  -41.00566480
     atom    4 type  2   force =     7.45053677   -6.79757064   -0.32782628
     The core correction contribution to forces
     atom    1 type  1   force =    -1.17064337    0.17589492    0.96093539
     atom    2 type  1   force =    -0.10268082    0.09130768    0.10996355
     atom    3 type  2   force =     0.13491799   -0.02025153   -0.11180522
     atom    4 type  2   force =    -0.00117553    0.00098012    0.00613921
     The Hubbard contrib.    to forces
     atom    1 type  1   force =     0.00000000    0.00000000    0.00000000
     atom    2 type  1   force =     0.00000000    0.00000000    0.00000000
     atom    3 type  2   force =     0.00000000    0.00000000    0.00000000
     atom    4 type  2   force =     0.00000000    0.00000000    0.00000000
     The SCF correction term to forces
     atom    1 type  1   force =    -0.00002161   -0.00000300   -0.00012443
     atom    2 type  1   force =    -0.00008951    0.00008012    0.00025134
     atom    3 type  2   force =    -0.00001352   -0.00000248   -0.00006257
     atom    4 type  2   force =    -0.00000917    0.00000467    0.00007692

     Total force =    80.241333     Total SCF correction =     0.000322

     Writing all to output data dir ./ZnO_ANN.save/

     init_run     :      3.77s CPU      3.87s WALL (       1 calls)
     electrons    :    246.80s CPU    251.09s WALL (       1 calls)
     forces       :      1.20s CPU      1.21s WALL (       1 calls)

     Called by init_run:
     wfcinit      :      2.81s CPU      2.86s WALL (       1 calls)
     potinit      :      0.31s CPU      0.31s WALL (       1 calls)
     hinit0       :      0.57s CPU      0.58s WALL (       1 calls)

     Called by electrons:
     c_bands      :    219.18s CPU    222.86s WALL (      31 calls)
     sum_band     :     24.86s CPU     25.39s WALL (      31 calls)
     v_of_rho     :      0.62s CPU      0.67s WALL (      32 calls)
     newd         :      2.05s CPU      2.09s WALL (      32 calls)
     mix_rho      :      0.09s CPU      0.11s WALL (      31 calls)

     Called by c_bands:
     init_us_2    :      1.85s CPU      1.88s WALL (    7168 calls)
     init_us_2:cp :      1.82s CPU      1.86s WALL (    7168 calls)
     cegterg      :    213.41s CPU    217.00s WALL (    3472 calls)

     Called by *egterg:
     cdiaghg      :     24.48s CPU     24.69s WALL (   21763 calls)
     h_psi        :    124.46s CPU    127.11s WALL (   21875 calls)
     s_psi        :     15.88s CPU     16.01s WALL (   21875 calls)
     g_psi        :      0.43s CPU      0.44s WALL (   18291 calls)

     Called by h_psi:
     h_psi:calbec :     17.28s CPU     17.81s WALL (   21875 calls)
     vloc_psi     :     90.86s CPU     92.84s WALL (   21875 calls)
     add_vuspsi   :     15.90s CPU     16.04s WALL (   21875 calls)

     General routines
     calbec       :     23.49s CPU     24.16s WALL (   25795 calls)
     fft          :      0.72s CPU      0.79s WALL (     425 calls)
     ffts         :      0.16s CPU      0.16s WALL (      63 calls)
     fftw         :     93.03s CPU     95.07s WALL (  441562 calls)
     interpolate  :      0.19s CPU      0.19s WALL (      32 calls)

     Parallel routines

     PWSCF        :   4m12.53s CPU   4m17.21s WALL


   This run was terminated on:  16: 7:11  23Jun2025            

=------------------------------------------------------------------------------=
   JOB DONE.
=------------------------------------------------------------------------------=
Note: The following floating-point exceptions are signalling: IEEE_INVALID_FLAG
