
     Program PWSCF v.7.2 starts on 23Jun2025 at 16:38:14 

     This program is part of the open-source Quantum ESPRESSO suite
     for quantum simulation of materials; please cite
         "P. Giannozzi et al., J. Phys.:Condens. Matter 21 395502 (2009);
         "P. Giannozzi et al., J. Phys.:Condens. Matter 29 465901 (2017);
         "P. Giannozzi et al., J. Chem. Phys. 152 154105 (2020);
          URL http://www.quantum-espresso.org", 
     in publications or presentations arising from this work. More details at
     http://www.quantum-espresso.org/quote

     Parallel version (MPI), running on     8 processors

     MPI processes distributed on     1 nodes
     90948 MiB available memory on the printing compute node when the environment starts

     Reading input from /home/jvc/QEspresso7.2/ZnO_DataBase/scfs_rnd025.in/scf-6.55-1.52-2.in

     Current dimensions of program PWSCF are:
     Max number of different atomic species (ntypx) = 10
     Max number of k-points (npk) =  40000
     Max angular momentum in pseudopotentials (lmaxx) =  4
     file Zn.upf: wavefunction(s)  3D renormalized

     R & G space division:  proc/nbgrp/npool/nimage =       8
     Subspace diagonalization in iterative solution of the eigenvalue problem:
     a serial algorithm will be used


     Parallelization info
     --------------------
     sticks:   dense  smooth     PW     G-vecs:    dense   smooth      PW
     Min         147      72     22                 6223     2196     370
     Max         148      73     24                 6225     2205     372
     Sum        1177     583    187                49791    17619    2971

     Using Slab Decomposition



     bravais-lattice index     =            4
     lattice parameter (alat)  =       6.5496  a.u.
     unit-cell volume          =     369.2266 (a.u.)^3
     number of atoms/cell      =            4
     number of atomic types    =            2
     number of electrons       =        36.00
     number of Kohn-Sham states=           18
     kinetic-energy cutoff     =      50.0000  Ry
     charge density cutoff     =     400.0000  Ry
     scf convergence threshold =      1.0E-08
     mixing beta               =       0.3000
     number of iterations used =            8  plain     mixing
     Exchange-correlation= PBE
                           (   1   4   3   4   0   0   0)

     celldm(1)=   6.549551  celldm(2)=   0.000000  celldm(3)=   1.517497
     celldm(4)=   0.000000  celldm(5)=   0.000000  celldm(6)=   0.000000

     crystal axes: (cart. coord. in units of alat)
               a(1) = (   1.000000   0.000000   0.000000 )  
               a(2) = (  -0.500000   0.866025   0.000000 )  
               a(3) = (   0.000000   0.000000   1.517497 )  

     reciprocal axes: (cart. coord. in units 2 pi/alat)
               b(1) = (  1.000000  0.577350 -0.000000 )  
               b(2) = (  0.000000  1.154701  0.000000 )  
               b(3) = (  0.000000 -0.000000  0.658980 )  


     PseudoPot. # 1 for Zn read from file:
     ./pseudos/Zn.upf
     MD5 check sum: 7f56cabf9682ed8c977c2f7d0c5985c5
     Pseudo is Ultrasoft + core correction, Zval = 12.0
     Generated using &quot;atomic&quot; code by A. Dal Corso  v.6.2.2
     Using radial grid of 1201 points,  6 beta functions with: 
                l(1) =   0
                l(2) =   0
                l(3) =   1
                l(4) =   1
                l(5) =   2
                l(6) =   2
     Q(r) pseudized with 0 coefficients 


     PseudoPot. # 2 for O  read from file:
     ./pseudos/O.upf
     MD5 check sum: 91400c9766925bcf19f520983a725ff0
     Pseudo is Ultrasoft + core correction, Zval =  6.0
     Generated using &quot;atomic&quot; code by A. Dal Corso  v.6.3MaX
     Using radial grid of 1095 points,  4 beta functions with: 
                l(1) =   0
                l(2) =   0
                l(3) =   1
                l(4) =   1
     Q(r) pseudized with 0 coefficients 


     atomic species   valence    mass     pseudopotential
        Zn            12.00    63.38000     Zn( 1.00)
        O              6.00    15.99900     O ( 1.00)

     No symmetry found



   Cartesian axes

     site n.     atom                  positions (alat units)
         1           Zn  tau(   1) = (   0.6204973   0.3428908   0.4499635  )
         2           Zn  tau(   2) = (  -0.2335594   0.6795671  -0.2464019  )
         3           O   tau(   3) = (   0.1451246   0.4817036   1.5531507  )
         4           O   tau(   4) = (   0.0027002   0.3643209   0.7821544  )

     number of k points=   112

     Number of k-points >= 100: set verbosity='high' to print them.

     Dense  grid:    49791 G-vectors     FFT dimensions: (  45,  45,  64)

     Smooth grid:    17619 G-vectors     FFT dimensions: (  30,  30,  45)

     Estimated max dynamical RAM per process >      33.93 MB

     Estimated total dynamical RAM >     271.41 MB

     Check: negative core charge=   -0.000002

     Initial potential from superposition of free atoms

     starting charge      35.9925, renormalised to      36.0000
     Starting wfcs are   26 randomized atomic wfcs

     total cpu time spent up to now is        4.2 secs

     Self-consistent Calculation

     iteration #  1     ecut=    50.00 Ry     beta= 0.30
     Davidson diagonalization with overlap
     ethr =  1.00E-02,  avg # of iterations =  2.0

     total cpu time spent up to now is        9.7 secs

     total energy              =    -361.18241367 Ry
     estimated scf accuracy    <       0.97181678 Ry

     iteration #  2     ecut=    50.00 Ry     beta= 0.30
     Davidson diagonalization with overlap
     ethr =  2.70E-03,  avg # of iterations =  2.0

     total cpu time spent up to now is       16.1 secs

     total energy              =    -361.32343736 Ry
     estimated scf accuracy    <       0.10901598 Ry

     iteration #  3     ecut=    50.00 Ry     beta= 0.30
     Davidson diagonalization with overlap
     ethr =  3.03E-04,  avg # of iterations =  5.8

     total cpu time spent up to now is       26.5 secs

     total energy              =    -361.37336447 Ry
     estimated scf accuracy    <       0.16227861 Ry

     iteration #  4     ecut=    50.00 Ry     beta= 0.30
     Davidson diagonalization with overlap
     ethr =  3.03E-04,  avg # of iterations =  4.9

     total cpu time spent up to now is       35.3 secs

     total energy              =    -361.42886765 Ry
     estimated scf accuracy    <       0.01729938 Ry

     iteration #  5     ecut=    50.00 Ry     beta= 0.30
     Davidson diagonalization with overlap
     ethr =  4.81E-05,  avg # of iterations =  6.0

     total cpu time spent up to now is       45.5 secs

     total energy              =    -361.41547297 Ry
     estimated scf accuracy    <       0.09181091 Ry

     iteration #  6     ecut=    50.00 Ry     beta= 0.30
     Davidson diagonalization with overlap
     ethr =  4.81E-05,  avg # of iterations =  4.7

     total cpu time spent up to now is       53.0 secs

     total energy              =    -361.40707313 Ry
     estimated scf accuracy    <       0.02594070 Ry

     iteration #  7     ecut=    50.00 Ry     beta= 0.30
     Davidson diagonalization with overlap
     ethr =  4.81E-05,  avg # of iterations =  5.2

     total cpu time spent up to now is       62.4 secs

     total energy              =    -361.41891975 Ry
     estimated scf accuracy    <       0.00655971 Ry

     iteration #  8     ecut=    50.00 Ry     beta= 0.30
     Davidson diagonalization with overlap
     ethr =  1.82E-05,  avg # of iterations =  1.2

     total cpu time spent up to now is       67.6 secs

     total energy              =    -361.41673479 Ry
     estimated scf accuracy    <       0.00451078 Ry

     iteration #  9     ecut=    50.00 Ry     beta= 0.30
     Davidson diagonalization with overlap
     ethr =  1.25E-05,  avg # of iterations =  4.5

     total cpu time spent up to now is       76.0 secs

     total energy              =    -361.41822577 Ry
     estimated scf accuracy    <       0.00043862 Ry

     iteration # 10     ecut=    50.00 Ry     beta= 0.30
     Davidson diagonalization with overlap
     ethr =  1.22E-06,  avg # of iterations =  4.8

     total cpu time spent up to now is       83.2 secs

     total energy              =    -361.41828866 Ry
     estimated scf accuracy    <       0.00032350 Ry

     iteration # 11     ecut=    50.00 Ry     beta= 0.30
     Davidson diagonalization with overlap
     ethr =  8.99E-07,  avg # of iterations =  1.9

     total cpu time spent up to now is       88.7 secs

     total energy              =    -361.41818108 Ry
     estimated scf accuracy    <       0.00017945 Ry

     iteration # 12     ecut=    50.00 Ry     beta= 0.30
     Davidson diagonalization with overlap
     c_bands:  2 eigenvalues not converged
     ethr =  4.98E-07,  avg # of iterations =  6.8

     total cpu time spent up to now is       99.8 secs

     total energy              =    -361.41846474 Ry
     estimated scf accuracy    <       0.00044650 Ry

     iteration # 13     ecut=    50.00 Ry     beta= 0.30
     Davidson diagonalization with overlap
     ethr =  4.98E-07,  avg # of iterations =  1.9

     total cpu time spent up to now is      105.3 secs

     total energy              =    -361.41827317 Ry
     estimated scf accuracy    <       0.00058459 Ry

     iteration # 14     ecut=    50.00 Ry     beta= 0.30
     Davidson diagonalization with overlap
     ethr =  4.98E-07,  avg # of iterations =  3.6

     total cpu time spent up to now is      111.9 secs

     total energy              =    -361.41823406 Ry
     estimated scf accuracy    <       0.00017741 Ry

     iteration # 15     ecut=    50.00 Ry     beta= 0.30
     Davidson diagonalization with overlap
     ethr =  4.93E-07,  avg # of iterations =  4.8

     total cpu time spent up to now is      120.3 secs

     total energy              =    -361.41830555 Ry
     estimated scf accuracy    <       0.00001448 Ry

     iteration # 16     ecut=    50.00 Ry     beta= 0.30
     Davidson diagonalization with overlap
     c_bands:  2 eigenvalues not converged
     ethr =  4.02E-08,  avg # of iterations =  4.6

     total cpu time spent up to now is      127.8 secs

     total energy              =    -361.41830744 Ry
     estimated scf accuracy    <       0.00000953 Ry

     iteration # 17     ecut=    50.00 Ry     beta= 0.30
     Davidson diagonalization with overlap
     ethr =  2.65E-08,  avg # of iterations =  3.8

     total cpu time spent up to now is      134.6 secs

     total energy              =    -361.41830936 Ry
     estimated scf accuracy    <       0.00000288 Ry

     iteration # 18     ecut=    50.00 Ry     beta= 0.30
     Davidson diagonalization with overlap
     ethr =  8.01E-09,  avg # of iterations =  2.1

     total cpu time spent up to now is      140.4 secs

     total energy              =    -361.41831187 Ry
     estimated scf accuracy    <       0.00000260 Ry

     iteration # 19     ecut=    50.00 Ry     beta= 0.30
     Davidson diagonalization with overlap
     c_bands:  1 eigenvalues not converged
     ethr =  7.22E-09,  avg # of iterations =  6.3

     total cpu time spent up to now is      149.3 secs

     total energy              =    -361.41830732 Ry
     estimated scf accuracy    <       0.00001902 Ry

     iteration # 20     ecut=    50.00 Ry     beta= 0.30
     Davidson diagonalization with overlap
     ethr =  7.22E-09,  avg # of iterations =  6.2

     total cpu time spent up to now is      159.0 secs

     total energy              =    -361.41830917 Ry
     estimated scf accuracy    <       0.00000153 Ry

     iteration # 21     ecut=    50.00 Ry     beta= 0.30
     Davidson diagonalization with overlap
     ethr =  4.25E-09,  avg # of iterations =  3.3

     total cpu time spent up to now is      165.1 secs

     total energy              =    -361.41830927 Ry
     estimated scf accuracy    <       0.00000044 Ry

     iteration # 22     ecut=    50.00 Ry     beta= 0.30
     Davidson diagonalization with overlap
     ethr =  1.21E-09,  avg # of iterations =  6.2

     total cpu time spent up to now is      173.1 secs

     total energy              =    -361.41830940 Ry
     estimated scf accuracy    <       0.00000006 Ry

     iteration # 23     ecut=    50.00 Ry     beta= 0.30
     Davidson diagonalization with overlap
     c_bands:  1 eigenvalues not converged
     ethr =  1.68E-10,  avg # of iterations =  5.5

     total cpu time spent up to now is      182.4 secs

     total energy              =    -361.41830943 Ry
     estimated scf accuracy    <       0.00000004 Ry

     iteration # 24     ecut=    50.00 Ry     beta= 0.30
     Davidson diagonalization with overlap
     ethr =  1.22E-10,  avg # of iterations =  2.5

     total cpu time spent up to now is      188.2 secs

     total energy              =    -361.41830942 Ry
     estimated scf accuracy    <       0.00000002 Ry

     iteration # 25     ecut=    50.00 Ry     beta= 0.30
     Davidson diagonalization with overlap
     ethr =  6.26E-11,  avg # of iterations =  6.0

     total cpu time spent up to now is      197.0 secs

     total energy              =    -361.41830943 Ry
     estimated scf accuracy    <       0.00000001 Ry

     iteration # 26     ecut=    50.00 Ry     beta= 0.30
     Davidson diagonalization with overlap
     ethr =  3.54E-11,  avg # of iterations =  2.2

     total cpu time spent up to now is      202.8 secs

     End of self-consistent calculation

     Number of k-points >= 100: set verbosity='high' to print the bands.

     highest occupied level (ev):     5.8816

!    total energy              =    -361.41830943 Ry
     estimated scf accuracy    <          7.6E-09 Ry

     The total energy is the sum of the following terms:
     one-electron contribution =    -165.31173222 Ry
     hartree contribution      =     121.51347845 Ry
     xc contribution           =    -109.22362879 Ry
     ewald contribution        =    -208.39642686 Ry

     convergence has been achieved in  26 iterations

     Forces acting on atoms (cartesian axes, Ry/au):

     atom    1 type  1   force =    -0.09879875   -0.00068236   -0.03908954
     atom    2 type  1   force =    -0.06788024    0.04447039   -0.09508202
     atom    3 type  2   force =     0.12412494   -0.04084370    0.05513972
     atom    4 type  2   force =     0.04255405   -0.00294433    0.07903185
     The non-local contrib.  to forces
     atom    1 type  1   force =    -0.56995831   -0.09833424   -0.57586547
     atom    2 type  1   force =    -0.59095086    0.37891796   -0.16172211
     atom    3 type  2   force =    -0.14165736    0.21695705   -0.23296392
     atom    4 type  2   force =    -0.74544128    0.01954096   -0.28793510
     The ionic contribution  to forces
     atom    1 type  1   force =    -4.22400351   -1.99791957    1.26684662
     atom    2 type  1   force =    -4.40460928    4.32610061   -6.08830758
     atom    3 type  2   force =     3.66332669   -1.31105934    1.31741630
     atom    4 type  2   force =     4.96528610   -1.01712171    3.50404465
     The local contribution  to forces
     atom    1 type  1   force =     4.65857690    2.08747101   -0.76301582
     atom    2 type  1   force =     4.88752732   -4.63406699    6.13473132
     atom    3 type  2   force =    -3.39781744    1.05501629   -1.03102472
     atom    4 type  2   force =    -4.18359042    0.99467204   -3.13905369
     The core correction contribution to forces
     atom    1 type  1   force =     0.03662079    0.00809774    0.03312520
     atom    2 type  1   force =     0.04011782   -0.02646714    0.02005146
     atom    3 type  2   force =     0.00026759   -0.00176261    0.00171945
     atom    4 type  2   force =     0.00629523   -0.00004209    0.00197951
     The Hubbard contrib.    to forces
     atom    1 type  1   force =     0.00000000    0.00000000    0.00000000
     atom    2 type  1   force =     0.00000000    0.00000000    0.00000000
     atom    3 type  2   force =     0.00000000    0.00000000    0.00000000
     atom    4 type  2   force =     0.00000000    0.00000000    0.00000000
     The SCF correction term to forces
     atom    1 type  1   force =    -0.00003131    0.00000001   -0.00018030
     atom    2 type  1   force =     0.00003809   -0.00001674    0.00016467
     atom    3 type  2   force =     0.00000878    0.00000221   -0.00000763
     atom    4 type  2   force =     0.00000774    0.00000377   -0.00000376

     Total force =     0.234727     Total SCF correction =     0.000250

     Writing all to output data dir ./ZnO_ANN.save/

     init_run     :      3.62s CPU      3.72s WALL (       1 calls)
     electrons    :    195.10s CPU    198.59s WALL (       1 calls)
     forces       :      1.18s CPU      1.19s WALL (       1 calls)

     Called by init_run:
     wfcinit      :      2.80s CPU      2.86s WALL (       1 calls)
     potinit      :      0.27s CPU      0.28s WALL (       1 calls)
     hinit0       :      0.46s CPU      0.47s WALL (       1 calls)

     Called by electrons:
     c_bands      :    172.24s CPU    175.19s WALL (      26 calls)
     sum_band     :     20.58s CPU     21.06s WALL (      26 calls)
     v_of_rho     :      0.47s CPU      0.50s WALL (      27 calls)
     newd         :      1.76s CPU      1.79s WALL (      27 calls)
     mix_rho      :      0.08s CPU      0.09s WALL (      26 calls)

     Called by c_bands:
     init_us_2    :      1.58s CPU      1.61s WALL (    6048 calls)
     init_us_2:cp :      1.56s CPU      1.59s WALL (    6048 calls)
     cegterg      :    167.34s CPU    170.22s WALL (    2912 calls)

     Called by *egterg:
     cdiaghg      :     16.75s CPU     16.86s WALL (   15077 calls)
     h_psi        :    101.17s CPU    103.45s WALL (   15189 calls)
     s_psi        :     13.16s CPU     13.25s WALL (   15189 calls)
     g_psi        :      0.33s CPU      0.33s WALL (   12165 calls)

     Called by h_psi:
     h_psi:calbec :     13.69s CPU     14.17s WALL (   15189 calls)
     vloc_psi     :     74.02s CPU     75.68s WALL (   15189 calls)
     add_vuspsi   :     13.14s CPU     13.26s WALL (   15189 calls)

     General routines
     calbec       :     18.84s CPU     19.46s WALL (   18549 calls)
     fft          :      0.57s CPU      0.62s WALL (     360 calls)
     ffts         :      0.12s CPU      0.12s WALL (      53 calls)
     fftw         :     75.92s CPU     77.64s WALL (  361330 calls)
     interpolate  :      0.13s CPU      0.14s WALL (      27 calls)

     Parallel routines

     PWSCF        :   3m20.64s CPU   3m24.53s WALL


   This run was terminated on:  16:41:39  23Jun2025            

=------------------------------------------------------------------------------=
   JOB DONE.
=------------------------------------------------------------------------------=
Note: The following floating-point exceptions are signalling: IEEE_INVALID_FLAG
