
     Program PWSCF v.7.2 starts on 23Jun2025 at 17:15:20 

     This program is part of the open-source Quantum ESPRESSO suite
     for quantum simulation of materials; please cite
         "P. Giannozzi et al., J. Phys.:Condens. Matter 21 395502 (2009);
         "P. Giannozzi et al., J. Phys.:Condens. Matter 29 465901 (2017);
         "P. Giannozzi et al., J. Chem. Phys. 152 154105 (2020);
          URL http://www.quantum-espresso.org", 
     in publications or presentations arising from this work. More details at
     http://www.quantum-espresso.org/quote

     Parallel version (MPI), running on     8 processors

     MPI processes distributed on     1 nodes
     90672 MiB available memory on the printing compute node when the environment starts

     Reading input from /home/jvc/QEspresso7.2/ZnO_DataBase/scfs_rnd025.in/scf-6.55-1.74-5.in

     Current dimensions of program PWSCF are:
     Max number of different atomic species (ntypx) = 10
     Max number of k-points (npk) =  40000
     Max angular momentum in pseudopotentials (lmaxx) =  4
     file Zn.upf: wavefunction(s)  3D renormalized

     R & G space division:  proc/nbgrp/npool/nimage =       8
     Subspace diagonalization in iterative solution of the eigenvalue problem:
     a serial algorithm will be used


     Parallelization info
     --------------------
     sticks:   dense  smooth     PW     G-vecs:    dense   smooth      PW
     Min         147      72     22                 7149     2528     418
     Max         148      73     24                 7151     2537     420
     Sum        1177     583    187                57205    20277    3347

     Using Slab Decomposition



     bravais-lattice index     =            4
     lattice parameter (alat)  =       6.5496  a.u.
     unit-cell volume          =     424.2178 (a.u.)^3
     number of atoms/cell      =            4
     number of atomic types    =            2
     number of electrons       =        36.00
     number of Kohn-Sham states=           18
     kinetic-energy cutoff     =      50.0000  Ry
     charge density cutoff     =     400.0000  Ry
     scf convergence threshold =      1.0E-08
     mixing beta               =       0.3000
     number of iterations used =            8  plain     mixing
     Exchange-correlation= PBE
                           (   1   4   3   4   0   0   0)

     celldm(1)=   6.549551  celldm(2)=   0.000000  celldm(3)=   1.743507
     celldm(4)=   0.000000  celldm(5)=   0.000000  celldm(6)=   0.000000

     crystal axes: (cart. coord. in units of alat)
               a(1) = (   1.000000   0.000000   0.000000 )  
               a(2) = (  -0.500000   0.866025   0.000000 )  
               a(3) = (   0.000000   0.000000   1.743507 )  

     reciprocal axes: (cart. coord. in units 2 pi/alat)
               b(1) = (  1.000000  0.577350 -0.000000 )  
               b(2) = (  0.000000  1.154701  0.000000 )  
               b(3) = (  0.000000 -0.000000  0.573557 )  


     PseudoPot. # 1 for Zn read from file:
     ./pseudos/Zn.upf
     MD5 check sum: 7f56cabf9682ed8c977c2f7d0c5985c5
     Pseudo is Ultrasoft + core correction, Zval = 12.0
     Generated using &quot;atomic&quot; code by A. Dal Corso  v.6.2.2
     Using radial grid of 1201 points,  6 beta functions with: 
                l(1) =   0
                l(2) =   0
                l(3) =   1
                l(4) =   1
                l(5) =   2
                l(6) =   2
     Q(r) pseudized with 0 coefficients 


     PseudoPot. # 2 for O  read from file:
     ./pseudos/O.upf
     MD5 check sum: 91400c9766925bcf19f520983a725ff0
     Pseudo is Ultrasoft + core correction, Zval =  6.0
     Generated using &quot;atomic&quot; code by A. Dal Corso  v.6.3MaX
     Using radial grid of 1095 points,  4 beta functions with: 
                l(1) =   0
                l(2) =   0
                l(3) =   1
                l(4) =   1
     Q(r) pseudized with 0 coefficients 


     atomic species   valence    mass     pseudopotential
        Zn            12.00    63.38000     Zn( 1.00)
        O              6.00    15.99900     O ( 1.00)

     No symmetry found



   Cartesian axes

     site n.     atom                  positions (alat units)
         1           Zn  tau(   1) = (   0.3751972   0.1636530   0.6023758  )
         2           Zn  tau(   2) = (  -0.1551413   0.4489496   0.3744896  )
         3           O   tau(   3) = (   0.3534617   0.1491099   1.8881984  )
         4           O   tau(   4) = (   0.0181127   0.6726233   0.5315686  )

     number of k points=   112

     Number of k-points >= 100: set verbosity='high' to print them.

     Dense  grid:    57205 G-vectors     FFT dimensions: (  45,  45,  75)

     Smooth grid:    20277 G-vectors     FFT dimensions: (  30,  30,  54)

     Estimated max dynamical RAM per process >      38.61 MB

     Estimated total dynamical RAM >     308.88 MB

     Check: negative core charge=   -0.000002

     Initial potential from superposition of free atoms

     starting charge      35.9925, renormalised to      36.0000
     Starting wfcs are   26 randomized atomic wfcs

     total cpu time spent up to now is        4.6 secs

     Self-consistent Calculation

     iteration #  1     ecut=    50.00 Ry     beta= 0.30
     Davidson diagonalization with overlap
     ethr =  1.00E-02,  avg # of iterations =  3.0

     total cpu time spent up to now is       12.3 secs

     total energy              =    -358.62916697 Ry
     estimated scf accuracy    <       1.90296293 Ry

     iteration #  2     ecut=    50.00 Ry     beta= 0.30
     Davidson diagonalization with overlap
     ethr =  5.29E-03,  avg # of iterations =  2.4

     total cpu time spent up to now is       19.6 secs

     total energy              =    -358.63084690 Ry
     estimated scf accuracy    <       0.38160981 Ry

     iteration #  3     ecut=    50.00 Ry     beta= 0.30
     Davidson diagonalization with overlap
     c_bands:  2 eigenvalues not converged
     c_bands:  1 eigenvalues not converged
     c_bands:  1 eigenvalues not converged
     ethr =  1.06E-03,  avg # of iterations = 13.9

     total cpu time spent up to now is       36.2 secs

     total energy              =    -359.31132049 Ry
     estimated scf accuracy    <       2.28144339 Ry

     iteration #  4     ecut=    50.00 Ry     beta= 0.30
     Davidson diagonalization with overlap
     ethr =  1.06E-03,  avg # of iterations =  1.3

     total cpu time spent up to now is       42.1 secs

     total energy              =    -359.18877344 Ry
     estimated scf accuracy    <       2.11047242 Ry

     iteration #  5     ecut=    50.00 Ry     beta= 0.30
     Davidson diagonalization with overlap
     ethr =  1.06E-03,  avg # of iterations =  1.8

     total cpu time spent up to now is       48.3 secs

     total energy              =    -358.70312589 Ry
     estimated scf accuracy    <       1.66265416 Ry

     iteration #  6     ecut=    50.00 Ry     beta= 0.30
     Davidson diagonalization with overlap
     ethr =  1.06E-03,  avg # of iterations =  9.8

     total cpu time spent up to now is       59.6 secs

     total energy              =    -359.05685727 Ry
     estimated scf accuracy    <       0.05504076 Ry

     iteration #  7     ecut=    50.00 Ry     beta= 0.30
     Davidson diagonalization with overlap
     c_bands:  1 eigenvalues not converged
     ethr =  1.53E-04,  avg # of iterations =  9.6

     total cpu time spent up to now is       73.5 secs

     total energy              =    -359.05244489 Ry
     estimated scf accuracy    <       0.32939003 Ry

     iteration #  8     ecut=    50.00 Ry     beta= 0.30
     Davidson diagonalization with overlap
     ethr =  1.53E-04,  avg # of iterations =  2.0

     total cpu time spent up to now is       80.0 secs

     total energy              =    -358.97558258 Ry
     estimated scf accuracy    <       0.20865446 Ry

     iteration #  9     ecut=    50.00 Ry     beta= 0.30
     Davidson diagonalization with overlap
     ethr =  1.53E-04,  avg # of iterations =  9.0

     total cpu time spent up to now is       92.9 secs

     total energy              =    -359.03197188 Ry
     estimated scf accuracy    <       0.01184974 Ry

     iteration # 10     ecut=    50.00 Ry     beta= 0.30
     Davidson diagonalization with overlap
     ethr =  3.29E-05,  avg # of iterations =  4.3

     total cpu time spent up to now is      100.1 secs

     total energy              =    -359.03377190 Ry
     estimated scf accuracy    <       0.01602651 Ry

     iteration # 11     ecut=    50.00 Ry     beta= 0.30
     Davidson diagonalization with overlap
     ethr =  3.29E-05,  avg # of iterations =  1.2

     total cpu time spent up to now is      106.0 secs

     total energy              =    -359.03560428 Ry
     estimated scf accuracy    <       0.01720083 Ry

     iteration # 12     ecut=    50.00 Ry     beta= 0.30
     Davidson diagonalization with overlap
     ethr =  3.29E-05,  avg # of iterations =  2.2

     total cpu time spent up to now is      112.3 secs

     total energy              =    -359.03442092 Ry
     estimated scf accuracy    <       0.02385177 Ry

     iteration # 13     ecut=    50.00 Ry     beta= 0.30
     Davidson diagonalization with overlap
     ethr =  3.29E-05,  avg # of iterations =  1.2

     total cpu time spent up to now is      118.1 secs

     total energy              =    -359.02152523 Ry
     estimated scf accuracy    <       0.02137661 Ry

     iteration # 14     ecut=    50.00 Ry     beta= 0.30
     Davidson diagonalization with overlap
     c_bands:  1 eigenvalues not converged
     c_bands:  1 eigenvalues not converged
     c_bands:  1 eigenvalues not converged
     ethr =  3.29E-05,  avg # of iterations = 11.7

     total cpu time spent up to now is      135.7 secs

     total energy              =    -359.12145822 Ry
     estimated scf accuracy    <       0.09127185 Ry

     iteration # 15     ecut=    50.00 Ry     beta= 0.30
     Davidson diagonalization with overlap
     ethr =  3.29E-05,  avg # of iterations = 10.5

     total cpu time spent up to now is      154.7 secs

     total energy              =    -359.01442564 Ry
     estimated scf accuracy    <       0.48321104 Ry

     iteration # 16     ecut=    50.00 Ry     beta= 0.30
     Davidson diagonalization with overlap
     ethr =  3.29E-05,  avg # of iterations =  9.6

     total cpu time spent up to now is      171.9 secs

     total energy              =    -359.05568293 Ry
     estimated scf accuracy    <       0.08499328 Ry

     iteration # 17     ecut=    50.00 Ry     beta= 0.30
     Davidson diagonalization with overlap
     ethr =  3.29E-05,  avg # of iterations =  1.2

     total cpu time spent up to now is      177.7 secs

     total energy              =    -359.06651389 Ry
     estimated scf accuracy    <       0.10532920 Ry

     iteration # 18     ecut=    50.00 Ry     beta= 0.30
     Davidson diagonalization with overlap
     ethr =  3.29E-05,  avg # of iterations =  2.4

     total cpu time spent up to now is      184.4 secs

     total energy              =    -358.99564194 Ry
     estimated scf accuracy    <       0.14494659 Ry

     iteration # 19     ecut=    50.00 Ry     beta= 0.30
     Davidson diagonalization with overlap
     c_bands:  1 eigenvalues not converged
     c_bands:  1 eigenvalues not converged
     c_bands:  1 eigenvalues not converged
     c_bands:  1 eigenvalues not converged
     c_bands:  1 eigenvalues not converged
     c_bands:  1 eigenvalues not converged
     c_bands:  1 eigenvalues not converged
     c_bands:  1 eigenvalues not converged
     c_bands:  1 eigenvalues not converged
     c_bands:  1 eigenvalues not converged
     ethr =  3.29E-05,  avg # of iterations = 14.1

     total cpu time spent up to now is      203.0 secs

     total energy              =    -359.02724817 Ry
     estimated scf accuracy    <       0.01549643 Ry

     iteration # 20     ecut=    50.00 Ry     beta= 0.30
     Davidson diagonalization with overlap
     ethr =  3.29E-05,  avg # of iterations =  4.5

     total cpu time spent up to now is      210.1 secs

     total energy              =    -359.02790028 Ry
     estimated scf accuracy    <       0.00308162 Ry

     iteration # 21     ecut=    50.00 Ry     beta= 0.30
     Davidson diagonalization with overlap
     ethr =  8.56E-06,  avg # of iterations =  7.9

     total cpu time spent up to now is      220.8 secs

     total energy              =    -359.03131622 Ry
     estimated scf accuracy    <       0.00324433 Ry

     iteration # 22     ecut=    50.00 Ry     beta= 0.30
     Davidson diagonalization with overlap
     ethr =  8.56E-06,  avg # of iterations =  6.1

     total cpu time spent up to now is      229.5 secs

     total energy              =    -359.03045808 Ry
     estimated scf accuracy    <       0.01079875 Ry

     iteration # 23     ecut=    50.00 Ry     beta= 0.30
     Davidson diagonalization with overlap
     ethr =  8.56E-06,  avg # of iterations =  1.4

     total cpu time spent up to now is      235.6 secs

     total energy              =    -359.03377986 Ry
     estimated scf accuracy    <       0.00798549 Ry

     iteration # 24     ecut=    50.00 Ry     beta= 0.30
     Davidson diagonalization with overlap
     ethr =  8.56E-06,  avg # of iterations =  4.3

     total cpu time spent up to now is      243.7 secs

     total energy              =    -359.02024456 Ry
     estimated scf accuracy    <       0.01978083 Ry

     iteration # 25     ecut=    50.00 Ry     beta= 0.30
     Davidson diagonalization with overlap
     c_bands:  1 eigenvalues not converged
     c_bands:  1 eigenvalues not converged
     c_bands:  1 eigenvalues not converged
     c_bands:  1 eigenvalues not converged
     c_bands:  1 eigenvalues not converged
     c_bands:  1 eigenvalues not converged
     c_bands:  1 eigenvalues not converged
     c_bands:  1 eigenvalues not converged
     c_bands:  1 eigenvalues not converged
     c_bands:  1 eigenvalues not converged
     c_bands:  1 eigenvalues not converged
     c_bands:  1 eigenvalues not converged
     ethr =  8.56E-06,  avg # of iterations = 16.3

     total cpu time spent up to now is      263.5 secs

     total energy              =    -359.02746365 Ry
     estimated scf accuracy    <       0.06629048 Ry

     iteration # 26     ecut=    50.00 Ry     beta= 0.30
     Davidson diagonalization with overlap
     c_bands:  1 eigenvalues not converged
     c_bands:  1 eigenvalues not converged
     c_bands:  1 eigenvalues not converged
     c_bands:  1 eigenvalues not converged
     ethr =  8.56E-06,  avg # of iterations = 10.3

     total cpu time spent up to now is      274.6 secs

     total energy              =    -359.02860236 Ry
     estimated scf accuracy    <       0.01159593 Ry

     iteration # 27     ecut=    50.00 Ry     beta= 0.30
     Davidson diagonalization with overlap
     c_bands:  1 eigenvalues not converged
     ethr =  8.56E-06,  avg # of iterations =  5.9

     total cpu time spent up to now is      281.9 secs

     total energy              =    -359.03045711 Ry
     estimated scf accuracy    <       0.00402156 Ry

     iteration # 28     ecut=    50.00 Ry     beta= 0.30
     Davidson diagonalization with overlap
     ethr =  8.56E-06,  avg # of iterations =  1.7

     total cpu time spent up to now is      287.7 secs

     total energy              =    -359.02939342 Ry
     estimated scf accuracy    <       0.00618039 Ry

     iteration # 29     ecut=    50.00 Ry     beta= 0.30
     Davidson diagonalization with overlap
     ethr =  8.56E-06,  avg # of iterations =  2.2

     total cpu time spent up to now is      293.8 secs

     total energy              =    -359.02825775 Ry
     estimated scf accuracy    <       0.00350916 Ry

     iteration # 30     ecut=    50.00 Ry     beta= 0.30
     Davidson diagonalization with overlap
     ethr =  8.56E-06,  avg # of iterations =  7.4

     total cpu time spent up to now is      302.8 secs

     total energy              =    -359.02961656 Ry
     estimated scf accuracy    <       0.00062823 Ry

     iteration # 31     ecut=    50.00 Ry     beta= 0.30
     Davidson diagonalization with overlap
     ethr =  1.75E-06,  avg # of iterations =  4.9

     total cpu time spent up to now is      309.8 secs

     total energy              =    -359.02966147 Ry
     estimated scf accuracy    <       0.00127142 Ry

     iteration # 32     ecut=    50.00 Ry     beta= 0.30
     Davidson diagonalization with overlap
     ethr =  1.75E-06,  avg # of iterations =  1.3

     total cpu time spent up to now is      315.4 secs

     total energy              =    -359.02970589 Ry
     estimated scf accuracy    <       0.00114708 Ry

     iteration # 33     ecut=    50.00 Ry     beta= 0.30
     Davidson diagonalization with overlap
     ethr =  1.75E-06,  avg # of iterations =  1.1

     total cpu time spent up to now is      320.9 secs

     total energy              =    -359.02990702 Ry
     estimated scf accuracy    <       0.00123114 Ry

     iteration # 34     ecut=    50.00 Ry     beta= 0.30
     Davidson diagonalization with overlap
     ethr =  1.75E-06,  avg # of iterations =  2.2

     total cpu time spent up to now is      327.0 secs

     total energy              =    -359.02990150 Ry
     estimated scf accuracy    <       0.00188010 Ry

     iteration # 35     ecut=    50.00 Ry     beta= 0.30
     Davidson diagonalization with overlap
     ethr =  1.75E-06,  avg # of iterations =  1.3

     total cpu time spent up to now is      332.7 secs

     total energy              =    -359.02980151 Ry
     estimated scf accuracy    <       0.00194311 Ry

     iteration # 36     ecut=    50.00 Ry     beta= 0.30
     Davidson diagonalization with overlap
     ethr =  1.75E-06,  avg # of iterations =  1.1

     total cpu time spent up to now is      338.2 secs

     total energy              =    -359.02950068 Ry
     estimated scf accuracy    <       0.00178807 Ry

     iteration # 37     ecut=    50.00 Ry     beta= 0.30
     Davidson diagonalization with overlap
     ethr =  1.75E-06,  avg # of iterations =  1.6

     total cpu time spent up to now is      344.0 secs

     total energy              =    -359.02927778 Ry
     estimated scf accuracy    <       0.00114027 Ry

     iteration # 38     ecut=    50.00 Ry     beta= 0.30
     Davidson diagonalization with overlap
     ethr =  1.75E-06,  avg # of iterations =  6.0

     total cpu time spent up to now is      352.1 secs

     total energy              =    -359.02947644 Ry
     estimated scf accuracy    <       0.00005995 Ry

     iteration # 39     ecut=    50.00 Ry     beta= 0.30
     Davidson diagonalization with overlap
     ethr =  1.67E-07,  avg # of iterations =  4.9

     total cpu time spent up to now is      359.5 secs

     total energy              =    -359.02960900 Ry
     estimated scf accuracy    <       0.00009258 Ry

     iteration # 40     ecut=    50.00 Ry     beta= 0.30
     Davidson diagonalization with overlap
     c_bands:  1 eigenvalues not converged
     c_bands:  1 eigenvalues not converged
     ethr =  1.67E-07,  avg # of iterations = 12.4

     total cpu time spent up to now is      375.1 secs

     total energy              =    -359.02944280 Ry
     estimated scf accuracy    <       0.00180443 Ry

     iteration # 41     ecut=    50.00 Ry     beta= 0.30
     Davidson diagonalization with overlap
     c_bands:  1 eigenvalues not converged
     c_bands:  1 eigenvalues not converged
     ethr =  1.67E-07,  avg # of iterations = 10.8

     total cpu time spent up to now is      387.4 secs

     total energy              =    -359.02937882 Ry
     estimated scf accuracy    <       0.00038978 Ry

     iteration # 42     ecut=    50.00 Ry     beta= 0.30
     Davidson diagonalization with overlap
     c_bands:  1 eigenvalues not converged
     ethr =  1.67E-07,  avg # of iterations = 12.0

     total cpu time spent up to now is      399.7 secs

     total energy              =    -359.02946669 Ry
     estimated scf accuracy    <       0.00002295 Ry

     iteration # 43     ecut=    50.00 Ry     beta= 0.30
     Davidson diagonalization with overlap
     ethr =  6.38E-08,  avg # of iterations =  2.4

     total cpu time spent up to now is      405.9 secs

     total energy              =    -359.02946275 Ry
     estimated scf accuracy    <       0.00001098 Ry

     iteration # 44     ecut=    50.00 Ry     beta= 0.30
     Davidson diagonalization with overlap
     ethr =  3.05E-08,  avg # of iterations =  7.7

     total cpu time spent up to now is      415.6 secs

     total energy              =    -359.02946700 Ry
     estimated scf accuracy    <       0.00000667 Ry

     iteration # 45     ecut=    50.00 Ry     beta= 0.30
     Davidson diagonalization with overlap
     ethr =  1.85E-08,  avg # of iterations =  4.2

     total cpu time spent up to now is      422.5 secs

     total energy              =    -359.02946799 Ry
     estimated scf accuracy    <       0.00000060 Ry

     iteration # 46     ecut=    50.00 Ry     beta= 0.30
     Davidson diagonalization with overlap
     ethr =  1.67E-09,  avg # of iterations =  7.3

     total cpu time spent up to now is      432.5 secs

     total energy              =    -359.02946836 Ry
     estimated scf accuracy    <       0.00000005 Ry

     iteration # 47     ecut=    50.00 Ry     beta= 0.30
     Davidson diagonalization with overlap
     c_bands:  1 eigenvalues not converged
     ethr =  1.39E-10,  avg # of iterations = 11.5

     total cpu time spent up to now is      446.2 secs

     total energy              =    -359.02946847 Ry
     estimated scf accuracy    <       0.00000022 Ry

     iteration # 48     ecut=    50.00 Ry     beta= 0.30
     Davidson diagonalization with overlap
     ethr =  1.39E-10,  avg # of iterations =  3.8

     total cpu time spent up to now is      453.2 secs

     total energy              =    -359.02946839 Ry
     estimated scf accuracy    <       0.00000034 Ry

     iteration # 49     ecut=    50.00 Ry     beta= 0.30
     Davidson diagonalization with overlap
     ethr =  1.39E-10,  avg # of iterations =  5.0

     total cpu time spent up to now is      461.3 secs

     total energy              =    -359.02946839 Ry
     estimated scf accuracy    <       0.00000013 Ry

     iteration # 50     ecut=    50.00 Ry     beta= 0.30
     Davidson diagonalization with overlap
     ethr =  1.39E-10,  avg # of iterations =  4.9

     total cpu time spent up to now is      468.8 secs

     total energy              =    -359.02946838 Ry
     estimated scf accuracy    <       0.00000004 Ry

     iteration # 51     ecut=    50.00 Ry     beta= 0.30
     Davidson diagonalization with overlap
     ethr =  1.22E-10,  avg # of iterations =  5.2

     total cpu time spent up to now is      476.5 secs

     End of self-consistent calculation

     Number of k-points >= 100: set verbosity='high' to print the bands.

     highest occupied level (ev):     5.9468

!    total energy              =    -359.02946839 Ry
     estimated scf accuracy    <          1.7E-09 Ry

     The total energy is the sum of the following terms:
     one-electron contribution =    -444.97596915 Ry
     hartree contribution      =     256.63487273 Ry
     xc contribution           =    -110.80090300 Ry
     ewald contribution        =     -59.88746896 Ry

     convergence has been achieved in  51 iterations

     Forces acting on atoms (cartesian axes, Ry/au):

     atom    1 type  1   force =    -0.49234999    1.15438117    0.76168670
     atom    2 type  1   force =    -2.24016900   -2.97911319   -2.27042386
     atom    3 type  2   force =    -0.05679073    0.20947670   -0.59025215
     atom    4 type  2   force =     2.78930972    1.61525533    2.09898931
     The non-local contrib.  to forces
     atom    1 type  1   force =    -0.27715105    0.58733063    0.76534138
     atom    2 type  1   force =    -0.32225438   -0.41159281   -0.02687240
     atom    3 type  2   force =     0.12123027    0.64841581    0.82581001
     atom    4 type  2   force =    -0.63993068   -0.32795330    0.67350710
     The ionic contribution  to forces
     atom    1 type  1   force =    -5.66458293   12.63707986   40.59349683
     atom    2 type  1   force =   -12.33440304  -17.95629636  -26.43109461
     atom    3 type  2   force =    -1.35116273    1.34443642  -32.33584446
     atom    4 type  2   force =    19.35014869    3.97478009   18.17344223
     The local contribution  to forces
     atom    1 type  1   force =     5.39561092  -11.93191082  -40.46620666
     atom    2 type  1   force =    10.24086073   15.15459045   24.01266933
     atom    3 type  2   force =     1.17433772   -1.77597372   30.92238345
     atom    4 type  2   force =   -15.91594735   -2.03033961  -16.73446323
     The core correction contribution to forces
     atom    1 type  1   force =     0.05376160   -0.13803562   -0.13079166
     atom    2 type  1   force =     0.17558043    0.23410344    0.17489950
     atom    3 type  2   force =    -0.00118914   -0.00738061   -0.00262318
     atom    4 type  2   force =    -0.00493434   -0.00123290   -0.01343355
     The Hubbard contrib.    to forces
     atom    1 type  1   force =     0.00000000    0.00000000    0.00000000
     atom    2 type  1   force =     0.00000000    0.00000000    0.00000000
     atom    3 type  2   force =     0.00000000    0.00000000    0.00000000
     atom    4 type  2   force =     0.00000000    0.00000000    0.00000000
     The SCF correction term to forces
     atom    1 type  1   force =     0.00002495   -0.00007693   -0.00016896
     atom    2 type  1   force =     0.00006074    0.00008804   -0.00004143
     atom    3 type  2   force =     0.00000663   -0.00001523    0.00000627
     atom    4 type  2   force =    -0.00001312    0.00000701   -0.00007900

     Total force =     6.032746     Total SCF correction =     0.000235

     Writing all to output data dir ./ZnO_ANN.save/

     init_run     :      4.06s CPU      4.18s WALL (       1 calls)
     electrons    :    465.12s CPU    471.87s WALL (       1 calls)
     forces       :      1.31s CPU      1.32s WALL (       1 calls)

     Called by init_run:
     wfcinit      :      3.20s CPU      3.28s WALL (       1 calls)
     potinit      :      0.31s CPU      0.32s WALL (       1 calls)
     hinit0       :      0.44s CPU      0.46s WALL (       1 calls)

     Called by electrons:
     c_bands      :    413.95s CPU    419.78s WALL (      51 calls)
     sum_band     :     46.13s CPU     46.92s WALL (      51 calls)
     v_of_rho     :      1.11s CPU      1.19s WALL (      52 calls)
     newd         :      3.72s CPU      3.76s WALL (      52 calls)
     mix_rho      :      0.19s CPU      0.20s WALL (      51 calls)

     Called by c_bands:
     init_us_2    :      3.21s CPU      3.26s WALL (   11648 calls)
     init_us_2:cp :      3.17s CPU      3.23s WALL (   11648 calls)
     cegterg      :    403.24s CPU    408.92s WALL (    5712 calls)

     Called by *egterg:
     cdiaghg      :     40.45s CPU     40.76s WALL (   38277 calls)
     h_psi        :    236.45s CPU    240.61s WALL (   38389 calls)
     s_psi        :     26.44s CPU     26.63s WALL (   38389 calls)
     g_psi        :      0.82s CPU      0.82s WALL (   32565 calls)

     Called by h_psi:
     h_psi:calbec :     32.43s CPU     33.26s WALL (   38389 calls)
     vloc_psi     :    176.71s CPU    179.84s WALL (   38389 calls)
     add_vuspsi   :     26.56s CPU     26.77s WALL (   38389 calls)

     General routines
     calbec       :     43.17s CPU     44.23s WALL (   44549 calls)
     fft          :      1.23s CPU      1.34s WALL (     685 calls)
     ffts         :      0.16s CPU      0.17s WALL (     103 calls)
     fftw         :    181.82s CPU    185.08s WALL (  746192 calls)
     interpolate  :      0.20s CPU      0.21s WALL (      52 calls)

     Parallel routines

     PWSCF        :   7m51.25s CPU   7m58.46s WALL


   This run was terminated on:  17:23:18  23Jun2025            

=------------------------------------------------------------------------------=
   JOB DONE.
=------------------------------------------------------------------------------=
Note: The following floating-point exceptions are signalling: IEEE_INVALID_FLAG
