
     Program PWSCF v.7.2 starts on 23Jun2025 at 18: 4: 4 

     This program is part of the open-source Quantum ESPRESSO suite
     for quantum simulation of materials; please cite
         "P. Giannozzi et al., J. Phys.:Condens. Matter 21 395502 (2009);
         "P. Giannozzi et al., J. Phys.:Condens. Matter 29 465901 (2017);
         "P. Giannozzi et al., J. Chem. Phys. 152 154105 (2020);
          URL http://www.quantum-espresso.org", 
     in publications or presentations arising from this work. More details at
     http://www.quantum-espresso.org/quote

     Parallel version (MPI), running on     8 processors

     MPI processes distributed on     1 nodes
     90601 MiB available memory on the printing compute node when the environment starts

     Reading input from /home/jvc/QEspresso7.2/ZnO_DataBase/scfs_rnd025.in/scf-6.67-1.78-3.in

     Current dimensions of program PWSCF are:
     Max number of different atomic species (ntypx) = 10
     Max number of k-points (npk) =  40000
     Max angular momentum in pseudopotentials (lmaxx) =  4
     file Zn.upf: wavefunction(s)  3D renormalized

     R & G space division:  proc/nbgrp/npool/nimage =       8
     Subspace diagonalization in iterative solution of the eigenvalue problem:
     a serial algorithm will be used


     Parallelization info
     --------------------
     sticks:   dense  smooth     PW     G-vecs:    dense   smooth      PW
     Min         154      75     23                 7728     2722     449
     Max         155      78     24                 7731     2729     454
     Sum        1237     613    187                61839    21797    3611

     Using Slab Decomposition



     bravais-lattice index     =            4
     lattice parameter (alat)  =       6.6731  a.u.
     unit-cell volume          =     456.9950 (a.u.)^3
     number of atoms/cell      =            4
     number of atomic types    =            2
     number of electrons       =        36.00
     number of Kohn-Sham states=           18
     kinetic-energy cutoff     =      50.0000  Ry
     charge density cutoff     =     400.0000  Ry
     scf convergence threshold =      1.0E-08
     mixing beta               =       0.3000
     number of iterations used =            8  plain     mixing
     Exchange-correlation= PBE
                           (   1   4   3   4   0   0   0)

     celldm(1)=   6.673127  celldm(2)=   0.000000  celldm(3)=   1.775794
     celldm(4)=   0.000000  celldm(5)=   0.000000  celldm(6)=   0.000000

     crystal axes: (cart. coord. in units of alat)
               a(1) = (   1.000000   0.000000   0.000000 )  
               a(2) = (  -0.500000   0.866025   0.000000 )  
               a(3) = (   0.000000   0.000000   1.775794 )  

     reciprocal axes: (cart. coord. in units 2 pi/alat)
               b(1) = (  1.000000  0.577350 -0.000000 )  
               b(2) = (  0.000000  1.154701  0.000000 )  
               b(3) = (  0.000000 -0.000000  0.563128 )  


     PseudoPot. # 1 for Zn read from file:
     ./pseudos/Zn.upf
     MD5 check sum: 7f56cabf9682ed8c977c2f7d0c5985c5
     Pseudo is Ultrasoft + core correction, Zval = 12.0
     Generated using &quot;atomic&quot; code by A. Dal Corso  v.6.2.2
     Using radial grid of 1201 points,  6 beta functions with: 
                l(1) =   0
                l(2) =   0
                l(3) =   1
                l(4) =   1
                l(5) =   2
                l(6) =   2
     Q(r) pseudized with 0 coefficients 


     PseudoPot. # 2 for O  read from file:
     ./pseudos/O.upf
     MD5 check sum: 91400c9766925bcf19f520983a725ff0
     Pseudo is Ultrasoft + core correction, Zval =  6.0
     Generated using &quot;atomic&quot; code by A. Dal Corso  v.6.3MaX
     Using radial grid of 1095 points,  4 beta functions with: 
                l(1) =   0
                l(2) =   0
                l(3) =   1
                l(4) =   1
     Q(r) pseudized with 0 coefficients 


     atomic species   valence    mass     pseudopotential
        Zn            12.00    63.38000     Zn( 1.00)
        O              6.00    15.99900     O ( 1.00)

     No symmetry found



   Cartesian axes

     site n.     atom                  positions (alat units)
         1           Zn  tau(   1) = (   0.2711905   0.3296280   0.6173092  )
         2           Zn  tau(   2) = (   0.1475721   0.5132020  -0.3855005  )
         3           O   tau(   3) = (   0.5103891   0.2380533   1.1408519  )
         4           O   tau(   4) = (   0.0576910   0.6036462   0.4193689  )

     number of k points=   112

     Number of k-points >= 100: set verbosity='high' to print them.

     Dense  grid:    61839 G-vectors     FFT dimensions: (  45,  45,  75)

     Smooth grid:    21797 G-vectors     FFT dimensions: (  32,  32,  54)

     Estimated max dynamical RAM per process >      41.34 MB

     Estimated total dynamical RAM >     330.70 MB

     Check: negative core charge=   -0.000002

     Initial potential from superposition of free atoms

     starting charge      35.9925, renormalised to      36.0000
     Starting wfcs are   26 randomized atomic wfcs

     total cpu time spent up to now is        4.4 secs

     Self-consistent Calculation

     iteration #  1     ecut=    50.00 Ry     beta= 0.30
     Davidson diagonalization with overlap
     ethr =  1.00E-02,  avg # of iterations =  2.0

     total cpu time spent up to now is       10.6 secs

     total energy              =    -360.89275946 Ry
     estimated scf accuracy    <       1.25118105 Ry

     iteration #  2     ecut=    50.00 Ry     beta= 0.30
     Davidson diagonalization with overlap
     ethr =  3.48E-03,  avg # of iterations =  2.1

     total cpu time spent up to now is       17.5 secs

     total energy              =    -361.03450998 Ry
     estimated scf accuracy    <       0.15326140 Ry

     iteration #  3     ecut=    50.00 Ry     beta= 0.30
     Davidson diagonalization with overlap
     c_bands:  2 eigenvalues not converged
     ethr =  4.26E-04,  avg # of iterations =  9.4

     total cpu time spent up to now is       31.6 secs

     total energy              =    -361.16830321 Ry
     estimated scf accuracy    <       0.46495925 Ry

     iteration #  4     ecut=    50.00 Ry     beta= 0.30
     Davidson diagonalization with overlap
     ethr =  4.26E-04,  avg # of iterations =  3.0

     total cpu time spent up to now is       38.3 secs

     total energy              =    -361.00357754 Ry
     estimated scf accuracy    <       0.21705308 Ry

     iteration #  5     ecut=    50.00 Ry     beta= 0.30
     Davidson diagonalization with overlap
     c_bands:  1 eigenvalues not converged
     ethr =  4.26E-04,  avg # of iterations = 10.1

     total cpu time spent up to now is       58.4 secs

     total energy              =    -361.17912056 Ry
     estimated scf accuracy    <       1.25333852 Ry

     iteration #  6     ecut=    50.00 Ry     beta= 0.30
     Davidson diagonalization with overlap
     ethr =  4.26E-04,  avg # of iterations =  4.3

     total cpu time spent up to now is       68.1 secs

     total energy              =    -361.20192464 Ry
     estimated scf accuracy    <       0.34483654 Ry

     iteration #  7     ecut=    50.00 Ry     beta= 0.30
     Davidson diagonalization with overlap
     ethr =  4.26E-04,  avg # of iterations =  1.4

     total cpu time spent up to now is       73.9 secs

     total energy              =    -361.12006969 Ry
     estimated scf accuracy    <       0.25557270 Ry

     iteration #  8     ecut=    50.00 Ry     beta= 0.30
     Davidson diagonalization with overlap
     ethr =  4.26E-04,  avg # of iterations =  6.4

     total cpu time spent up to now is       82.9 secs

     total energy              =    -361.18035250 Ry
     estimated scf accuracy    <       0.00499903 Ry

     iteration #  9     ecut=    50.00 Ry     beta= 0.30
     Davidson diagonalization with overlap
     c_bands:  2 eigenvalues not converged
     ethr =  1.39E-05,  avg # of iterations =  6.5

     total cpu time spent up to now is       92.8 secs

     total energy              =    -361.18229908 Ry
     estimated scf accuracy    <       0.00442484 Ry

     iteration # 10     ecut=    50.00 Ry     beta= 0.30
     Davidson diagonalization with overlap
     ethr =  1.23E-05,  avg # of iterations =  3.6

     total cpu time spent up to now is       99.5 secs

     total energy              =    -361.18274636 Ry
     estimated scf accuracy    <       0.00109814 Ry

     iteration # 11     ecut=    50.00 Ry     beta= 0.30
     Davidson diagonalization with overlap
     c_bands:  1 eigenvalues not converged
     ethr =  3.05E-06,  avg # of iterations =  7.0

     total cpu time spent up to now is      109.4 secs

     total energy              =    -361.18300471 Ry
     estimated scf accuracy    <       0.00137699 Ry

     iteration # 12     ecut=    50.00 Ry     beta= 0.30
     Davidson diagonalization with overlap
     ethr =  3.05E-06,  avg # of iterations =  1.1

     total cpu time spent up to now is      115.1 secs

     total energy              =    -361.18288237 Ry
     estimated scf accuracy    <       0.00080328 Ry

     iteration # 13     ecut=    50.00 Ry     beta= 0.30
     Davidson diagonalization with overlap
     ethr =  2.23E-06,  avg # of iterations =  6.3

     total cpu time spent up to now is      123.7 secs

     total energy              =    -361.18307594 Ry
     estimated scf accuracy    <       0.00059448 Ry

     iteration # 14     ecut=    50.00 Ry     beta= 0.30
     Davidson diagonalization with overlap
     ethr =  1.65E-06,  avg # of iterations =  1.8

     total cpu time spent up to now is      129.8 secs

     total energy              =    -361.18345027 Ry
     estimated scf accuracy    <       0.00053804 Ry

     iteration # 15     ecut=    50.00 Ry     beta= 0.30
     Davidson diagonalization with overlap
     ethr =  1.49E-06,  avg # of iterations =  7.7

     total cpu time spent up to now is      140.2 secs

     total energy              =    -361.18342145 Ry
     estimated scf accuracy    <       0.00389600 Ry

     iteration # 16     ecut=    50.00 Ry     beta= 0.30
     Davidson diagonalization with overlap
     ethr =  1.49E-06,  avg # of iterations =  1.3

     total cpu time spent up to now is      145.8 secs

     total energy              =    -361.18425617 Ry
     estimated scf accuracy    <       0.00312452 Ry

     iteration # 17     ecut=    50.00 Ry     beta= 0.30
     Davidson diagonalization with overlap
     c_bands:  1 eigenvalues not converged
     ethr =  1.49E-06,  avg # of iterations =  5.5

     total cpu time spent up to now is      153.3 secs

     total energy              =    -361.18359522 Ry
     estimated scf accuracy    <       0.00622081 Ry

     iteration # 18     ecut=    50.00 Ry     beta= 0.30
     Davidson diagonalization with overlap
     ethr =  1.49E-06,  avg # of iterations =  2.8

     total cpu time spent up to now is      159.6 secs

     total energy              =    -361.18441891 Ry
     estimated scf accuracy    <       0.00461596 Ry

     iteration # 19     ecut=    50.00 Ry     beta= 0.30
     Davidson diagonalization with overlap
     ethr =  1.49E-06,  avg # of iterations =  3.2

     total cpu time spent up to now is      166.1 secs

     total energy              =    -361.18383200 Ry
     estimated scf accuracy    <       0.00670071 Ry

     iteration # 20     ecut=    50.00 Ry     beta= 0.30
     Davidson diagonalization with overlap
     ethr =  1.49E-06,  avg # of iterations =  1.6

     total cpu time spent up to now is      171.8 secs

     total energy              =    -361.18295669 Ry
     estimated scf accuracy    <       0.00559847 Ry

     iteration # 21     ecut=    50.00 Ry     beta= 0.30
     Davidson diagonalization with overlap
     c_bands:  3 eigenvalues not converged
     ethr =  1.49E-06,  avg # of iterations =  8.6

     total cpu time spent up to now is      182.9 secs

     total energy              =    -361.18317574 Ry
     estimated scf accuracy    <       0.00257473 Ry

     iteration # 22     ecut=    50.00 Ry     beta= 0.30
     Davidson diagonalization with overlap
     ethr =  1.49E-06,  avg # of iterations =  1.8

     total cpu time spent up to now is      188.8 secs

     total energy              =    -361.18270299 Ry
     estimated scf accuracy    <       0.00187050 Ry

     iteration # 23     ecut=    50.00 Ry     beta= 0.30
     Davidson diagonalization with overlap
     c_bands:  1 eigenvalues not converged
     ethr =  1.49E-06,  avg # of iterations =  7.2

     total cpu time spent up to now is      198.8 secs

     total energy              =    -361.18304243 Ry
     estimated scf accuracy    <       0.00018177 Ry

     iteration # 24     ecut=    50.00 Ry     beta= 0.30
     Davidson diagonalization with overlap
     c_bands:  1 eigenvalues not converged
     c_bands:  1 eigenvalues not converged
     c_bands:  1 eigenvalues not converged
     ethr =  5.05E-07,  avg # of iterations =  8.5

     total cpu time spent up to now is      209.1 secs

     total energy              =    -361.18291225 Ry
     estimated scf accuracy    <       0.00101918 Ry

     iteration # 25     ecut=    50.00 Ry     beta= 0.30
     Davidson diagonalization with overlap
     ethr =  5.05E-07,  avg # of iterations =  7.8

     total cpu time spent up to now is      219.1 secs

     total energy              =    -361.18300005 Ry
     estimated scf accuracy    <       0.00018723 Ry

     iteration # 26     ecut=    50.00 Ry     beta= 0.30
     Davidson diagonalization with overlap
     ethr =  5.05E-07,  avg # of iterations =  1.3

     total cpu time spent up to now is      224.7 secs

     total energy              =    -361.18300464 Ry
     estimated scf accuracy    <       0.00010409 Ry

     iteration # 27     ecut=    50.00 Ry     beta= 0.30
     Davidson diagonalization with overlap
     ethr =  2.89E-07,  avg # of iterations =  2.0

     total cpu time spent up to now is      230.9 secs

     total energy              =    -361.18301231 Ry
     estimated scf accuracy    <       0.00009118 Ry

     iteration # 28     ecut=    50.00 Ry     beta= 0.30
     Davidson diagonalization with overlap
     ethr =  2.53E-07,  avg # of iterations =  1.4

     total cpu time spent up to now is      236.5 secs

     total energy              =    -361.18300664 Ry
     estimated scf accuracy    <       0.00008188 Ry

     iteration # 29     ecut=    50.00 Ry     beta= 0.30
     Davidson diagonalization with overlap
     ethr =  2.27E-07,  avg # of iterations =  7.3

     total cpu time spent up to now is      244.9 secs

     total energy              =    -361.18302538 Ry
     estimated scf accuracy    <       0.00010888 Ry

     iteration # 30     ecut=    50.00 Ry     beta= 0.30
     Davidson diagonalization with overlap
     ethr =  2.27E-07,  avg # of iterations =  1.0

     total cpu time spent up to now is      250.5 secs

     total energy              =    -361.18302200 Ry
     estimated scf accuracy    <       0.00009235 Ry

     iteration # 31     ecut=    50.00 Ry     beta= 0.30
     Davidson diagonalization with overlap
     ethr =  2.27E-07,  avg # of iterations =  5.7

     total cpu time spent up to now is      257.9 secs

     total energy              =    -361.18307060 Ry
     estimated scf accuracy    <       0.00011062 Ry

     iteration # 32     ecut=    50.00 Ry     beta= 0.30
     Davidson diagonalization with overlap
     ethr =  2.27E-07,  avg # of iterations =  6.0

     total cpu time spent up to now is      266.2 secs

     total energy              =    -361.18305241 Ry
     estimated scf accuracy    <       0.00037238 Ry

     iteration # 33     ecut=    50.00 Ry     beta= 0.30
     Davidson diagonalization with overlap
     ethr =  2.27E-07,  avg # of iterations =  1.1

     total cpu time spent up to now is      271.7 secs

     total energy              =    -361.18316927 Ry
     estimated scf accuracy    <       0.00029848 Ry

     iteration # 34     ecut=    50.00 Ry     beta= 0.30
     Davidson diagonalization with overlap
     ethr =  2.27E-07,  avg # of iterations =  5.8

     total cpu time spent up to now is      280.4 secs

     total energy              =    -361.18291102 Ry
     estimated scf accuracy    <       0.00089506 Ry

     iteration # 35     ecut=    50.00 Ry     beta= 0.30
     Davidson diagonalization with overlap
     ethr =  2.27E-07,  avg # of iterations =  7.8

     total cpu time spent up to now is      291.9 secs

     total energy              =    -361.18300896 Ry
     estimated scf accuracy    <       0.00004921 Ry

     iteration # 36     ecut=    50.00 Ry     beta= 0.30
     Davidson diagonalization with overlap
     ethr =  1.37E-07,  avg # of iterations =  2.6

     total cpu time spent up to now is      298.6 secs

     total energy              =    -361.18300712 Ry
     estimated scf accuracy    <       0.00003159 Ry

     iteration # 37     ecut=    50.00 Ry     beta= 0.30
     Davidson diagonalization with overlap
     ethr =  8.78E-08,  avg # of iterations =  5.2

     total cpu time spent up to now is      306.6 secs

     total energy              =    -361.18300998 Ry
     estimated scf accuracy    <       0.00002323 Ry

     iteration # 38     ecut=    50.00 Ry     beta= 0.30
     Davidson diagonalization with overlap
     ethr =  6.45E-08,  avg # of iterations =  1.3

     total cpu time spent up to now is      312.3 secs

     total energy              =    -361.18300463 Ry
     estimated scf accuracy    <       0.00001369 Ry

     iteration # 39     ecut=    50.00 Ry     beta= 0.30
     Davidson diagonalization with overlap
     c_bands:  2 eigenvalues not converged
     ethr =  3.80E-08,  avg # of iterations =  6.7

     total cpu time spent up to now is      321.8 secs

     total energy              =    -361.18301298 Ry
     estimated scf accuracy    <       0.00001406 Ry

     iteration # 40     ecut=    50.00 Ry     beta= 0.30
     Davidson diagonalization with overlap
     ethr =  3.80E-08,  avg # of iterations =  1.1

     total cpu time spent up to now is      327.3 secs

     total energy              =    -361.18301159 Ry
     estimated scf accuracy    <       0.00001367 Ry

     iteration # 41     ecut=    50.00 Ry     beta= 0.30
     Davidson diagonalization with overlap
     ethr =  3.80E-08,  avg # of iterations =  1.0

     total cpu time spent up to now is      332.7 secs

     total energy              =    -361.18301052 Ry
     estimated scf accuracy    <       0.00000980 Ry

     iteration # 42     ecut=    50.00 Ry     beta= 0.30
     Davidson diagonalization with overlap
     ethr =  2.72E-08,  avg # of iterations =  1.2

     total cpu time spent up to now is      338.2 secs

     total energy              =    -361.18300974 Ry
     estimated scf accuracy    <       0.00000623 Ry

     iteration # 43     ecut=    50.00 Ry     beta= 0.30
     Davidson diagonalization with overlap
     ethr =  1.73E-08,  avg # of iterations =  2.5

     total cpu time spent up to now is      344.5 secs

     total energy              =    -361.18300927 Ry
     estimated scf accuracy    <       0.00000257 Ry

     iteration # 44     ecut=    50.00 Ry     beta= 0.30
     Davidson diagonalization with overlap
     ethr =  7.14E-09,  avg # of iterations =  6.5

     total cpu time spent up to now is      353.9 secs

     total energy              =    -361.18301083 Ry
     estimated scf accuracy    <       0.00000119 Ry

     iteration # 45     ecut=    50.00 Ry     beta= 0.30
     Davidson diagonalization with overlap
     ethr =  3.30E-09,  avg # of iterations =  1.5

     total cpu time spent up to now is      359.8 secs

     total energy              =    -361.18301054 Ry
     estimated scf accuracy    <       0.00000134 Ry

     iteration # 46     ecut=    50.00 Ry     beta= 0.30
     Davidson diagonalization with overlap
     ethr =  3.30E-09,  avg # of iterations =  1.9

     total cpu time spent up to now is      365.6 secs

     total energy              =    -361.18301050 Ry
     estimated scf accuracy    <       0.00000067 Ry

     iteration # 47     ecut=    50.00 Ry     beta= 0.30
     Davidson diagonalization with overlap
     ethr =  1.85E-09,  avg # of iterations =  2.7

     total cpu time spent up to now is      372.0 secs

     total energy              =    -361.18301052 Ry
     estimated scf accuracy    <       0.00000030 Ry

     iteration # 48     ecut=    50.00 Ry     beta= 0.30
     Davidson diagonalization with overlap
     c_bands:  1 eigenvalues not converged
     ethr =  8.32E-10,  avg # of iterations =  6.0

     total cpu time spent up to now is      379.4 secs

     total energy              =    -361.18301057 Ry
     estimated scf accuracy    <       0.00000006 Ry

     iteration # 49     ecut=    50.00 Ry     beta= 0.30
     Davidson diagonalization with overlap
     ethr =  1.58E-10,  avg # of iterations =  4.9

     total cpu time spent up to now is      387.2 secs

     total energy              =    -361.18301058 Ry
     estimated scf accuracy    <       0.00000002 Ry

     iteration # 50     ecut=    50.00 Ry     beta= 0.30
     Davidson diagonalization with overlap
     ethr =  5.88E-11,  avg # of iterations =  6.3

     total cpu time spent up to now is      396.2 secs

     End of self-consistent calculation

     Number of k-points >= 100: set verbosity='high' to print the bands.

     highest occupied level (ev):     3.7379

!    total energy              =    -361.18301059 Ry
     estimated scf accuracy    <          3.1E-09 Ry

     The total energy is the sum of the following terms:
     one-electron contribution =    -220.08167360 Ry
     hartree contribution      =     145.64547480 Ry
     xc contribution           =    -109.26763193 Ry
     ewald contribution        =    -177.47917986 Ry

     convergence has been achieved in  50 iterations

     Forces acting on atoms (cartesian axes, Ry/au):

     atom    1 type  1   force =     0.49181678   -0.61036509    0.42084190
     atom    2 type  1   force =    -0.04990754    0.05065665    0.00956242
     atom    3 type  2   force =     0.03083821   -0.04348853    0.02589220
     atom    4 type  2   force =    -0.47274745    0.60319697   -0.45629651
     The non-local contrib.  to forces
     atom    1 type  1   force =     0.60272708   -0.87806137    0.53927299
     atom    2 type  1   force =    -0.46389438    0.26418342    0.46357876
     atom    3 type  2   force =    -0.64436481    0.20725316    0.31610820
     atom    4 type  2   force =     0.55880378   -0.67261071    0.46465811
     The ionic contribution  to forces
     atom    1 type  1   force =     5.83221873   -8.89752462   -4.12797841
     atom    2 type  1   force =    -3.42537815    2.26622623   14.05597046
     atom    3 type  2   force =     4.97453168   -2.46884738    2.50955186
     atom    4 type  2   force =    -7.38137226    9.10014576  -12.43754391
     The local contribution  to forces
     atom    1 type  1   force =    -5.86959859    9.06067248    4.06883635
     atom    2 type  1   force =     3.80956511   -2.46251524  -14.47925473
     atom    3 type  2   force =    -4.30475359    2.21948630   -2.79661268
     atom    4 type  2   force =     6.35218285   -7.82698005   11.51790243
     The core correction contribution to forces
     atom    1 type  1   force =    -0.07352410    0.10453699   -0.05920320
     atom    2 type  1   force =     0.02979388   -0.01722958   -0.03076214
     atom    3 type  2   force =     0.00543760   -0.00138640   -0.00308770
     atom    4 type  2   force =    -0.00235175    0.00264016   -0.00134083
     The Hubbard contrib.    to forces
     atom    1 type  1   force =     0.00000000    0.00000000    0.00000000
     atom    2 type  1   force =     0.00000000    0.00000000    0.00000000
     atom    3 type  2   force =     0.00000000    0.00000000    0.00000000
     atom    4 type  2   force =     0.00000000    0.00000000    0.00000000
     The SCF correction term to forces
     atom    1 type  1   force =    -0.00000174    0.00000798   -0.00009932
     atom    2 type  1   force =     0.00001062   -0.00001163    0.00001657
     atom    3 type  2   force =    -0.00000806    0.00000235   -0.00008099
     atom    4 type  2   force =    -0.00000546   -0.00000165    0.00001417

     Total force =     1.263227     Total SCF correction =     0.000132

     Writing all to output data dir ./ZnO_ANN.save/

     init_run     :      3.93s CPU      4.02s WALL (       1 calls)
     electrons    :    386.77s CPU    391.80s WALL (       1 calls)
     forces       :      1.39s CPU      1.40s WALL (       1 calls)

     Called by init_run:
     wfcinit      :      3.04s CPU      3.09s WALL (       1 calls)
     potinit      :      0.33s CPU      0.33s WALL (       1 calls)
     hinit0       :      0.44s CPU      0.45s WALL (       1 calls)

     Called by electrons:
     c_bands      :    337.13s CPU    341.34s WALL (      50 calls)
     sum_band     :     44.08s CPU     44.77s WALL (      50 calls)
     v_of_rho     :      1.11s CPU      1.18s WALL (      51 calls)
     newd         :      4.26s CPU      4.29s WALL (      51 calls)
     mix_rho      :      0.18s CPU      0.20s WALL (      50 calls)

     Called by c_bands:
     init_us_2    :      3.02s CPU      3.05s WALL (   11424 calls)
     init_us_2:cp :      2.99s CPU      3.02s WALL (   11424 calls)
     cegterg      :    325.87s CPU    329.97s WALL (    5600 calls)

     Called by *egterg:
     cdiaghg      :     27.13s CPU     27.32s WALL (   29331 calls)
     h_psi        :    183.34s CPU    186.40s WALL (   29443 calls)
     s_psi        :     18.51s CPU     18.64s WALL (   29443 calls)
     g_psi        :      0.69s CPU      0.70s WALL (   23731 calls)

     Called by h_psi:
     h_psi:calbec :     29.95s CPU     30.56s WALL (   29443 calls)
     vloc_psi     :    134.46s CPU    136.80s WALL (   29443 calls)
     add_vuspsi   :     18.40s CPU     18.51s WALL (   29443 calls)

     General routines
     calbec       :     41.51s CPU     42.31s WALL (   35491 calls)
     fft          :      1.63s CPU      1.74s WALL (     672 calls)
     ffts         :      0.16s CPU      0.16s WALL (     101 calls)
     fftw         :    142.84s CPU    145.32s WALL (  653746 calls)
     interpolate  :      0.20s CPU      0.20s WALL (      51 calls)

     Parallel routines

     PWSCF        :   6m32.70s CPU   6m38.11s WALL


   This run was terminated on:  18:10:42  23Jun2025            

=------------------------------------------------------------------------------=
   JOB DONE.
=------------------------------------------------------------------------------=
Note: The following floating-point exceptions are signalling: IEEE_INVALID_FLAG
