
     Program PWSCF v.7.2 starts on 23Jun2025 at 14:33:52 

     This program is part of the open-source Quantum ESPRESSO suite
     for quantum simulation of materials; please cite
         "P. Giannozzi et al., J. Phys.:Condens. Matter 21 395502 (2009);
         "P. Giannozzi et al., J. Phys.:Condens. Matter 29 465901 (2017);
         "P. Giannozzi et al., J. Chem. Phys. 152 154105 (2020);
          URL http://www.quantum-espresso.org", 
     in publications or presentations arising from this work. More details at
     http://www.quantum-espresso.org/quote

     Parallel version (MPI), running on     8 processors

     MPI processes distributed on     1 nodes
     91051 MiB available memory on the printing compute node when the environment starts

     Reading input from /home/jvc/QEspresso7.2/ZnO_DataBase/scfs_rnd025.in/scf-6.18-1.65-1.in

     Current dimensions of program PWSCF are:
     Max number of different atomic species (ntypx) = 10
     Max number of k-points (npk) =  40000
     Max angular momentum in pseudopotentials (lmaxx) =  4
     file Zn.upf: wavefunction(s)  3D renormalized

     R & G space division:  proc/nbgrp/npool/nimage =       8
     Subspace diagonalization in iterative solution of the eigenvalue problem:
     a serial algorithm will be used


     Parallelization info
     --------------------
     sticks:   dense  smooth     PW     G-vecs:    dense   smooth      PW
     Min         130      64     20                 5666     1996     342
     Max         131      66     21                 5671     1999     345
     Sum        1045     517    163                45353    15981    2743

     Using Slab Decomposition



     bravais-lattice index     =            4
     lattice parameter (alat)  =       6.1788  a.u.
     unit-cell volume          =     336.3936 (a.u.)^3
     number of atoms/cell      =            4
     number of atomic types    =            2
     number of electrons       =        36.00
     number of Kohn-Sham states=           18
     kinetic-energy cutoff     =      50.0000  Ry
     charge density cutoff     =     400.0000  Ry
     scf convergence threshold =      1.0E-08
     mixing beta               =       0.3000
     number of iterations used =            8  plain     mixing
     Exchange-correlation= PBE
                           (   1   4   3   4   0   0   0)

     celldm(1)=   6.178821  celldm(2)=   0.000000  celldm(3)=   1.646646
     celldm(4)=   0.000000  celldm(5)=   0.000000  celldm(6)=   0.000000

     crystal axes: (cart. coord. in units of alat)
               a(1) = (   1.000000   0.000000   0.000000 )  
               a(2) = (  -0.500000   0.866025   0.000000 )  
               a(3) = (   0.000000   0.000000   1.646646 )  

     reciprocal axes: (cart. coord. in units 2 pi/alat)
               b(1) = (  1.000000  0.577350 -0.000000 )  
               b(2) = (  0.000000  1.154701  0.000000 )  
               b(3) = (  0.000000 -0.000000  0.607295 )  


     PseudoPot. # 1 for Zn read from file:
     ./pseudos/Zn.upf
     MD5 check sum: 7f56cabf9682ed8c977c2f7d0c5985c5
     Pseudo is Ultrasoft + core correction, Zval = 12.0
     Generated using &quot;atomic&quot; code by A. Dal Corso  v.6.2.2
     Using radial grid of 1201 points,  6 beta functions with: 
                l(1) =   0
                l(2) =   0
                l(3) =   1
                l(4) =   1
                l(5) =   2
                l(6) =   2
     Q(r) pseudized with 0 coefficients 


     PseudoPot. # 2 for O  read from file:
     ./pseudos/O.upf
     MD5 check sum: 91400c9766925bcf19f520983a725ff0
     Pseudo is Ultrasoft + core correction, Zval =  6.0
     Generated using &quot;atomic&quot; code by A. Dal Corso  v.6.3MaX
     Using radial grid of 1095 points,  4 beta functions with: 
                l(1) =   0
                l(2) =   0
                l(3) =   1
                l(4) =   1
     Q(r) pseudized with 0 coefficients 


     atomic species   valence    mass     pseudopotential
        Zn            12.00    63.38000     Zn( 1.00)
        O              6.00    15.99900     O ( 1.00)

     No symmetry found



   Cartesian axes

     site n.     atom                  positions (alat units)
         1           Zn  tau(   1) = (   0.3653685   0.2127613   0.5829057  )
         2           Zn  tau(   2) = (  -0.0236589   0.6002125   0.1969348  )
         3           O   tau(   3) = (   0.4653049   0.2110153   1.3341980  )
         4           O   tau(   4) = (   0.1134542   0.5635117   0.6472704  )

     number of k points=   112

     Number of k-points >= 100: set verbosity='high' to print them.

     Dense  grid:    45353 G-vectors     FFT dimensions: (  40,  40,  72)

     Smooth grid:    15981 G-vectors     FFT dimensions: (  27,  27,  45)

     Estimated max dynamical RAM per process >      31.17 MB

     Estimated total dynamical RAM >     249.39 MB

     Check: negative core charge=   -0.000002

     Initial potential from superposition of free atoms

     starting charge      35.9925, renormalised to      36.0000
     Starting wfcs are   26 randomized atomic wfcs

     total cpu time spent up to now is        4.0 secs

     Self-consistent Calculation

     iteration #  1     ecut=    50.00 Ry     beta= 0.30
     Davidson diagonalization with overlap
     ethr =  1.00E-02,  avg # of iterations =  2.0

     total cpu time spent up to now is        9.4 secs

     total energy              =    -360.41668625 Ry
     estimated scf accuracy    <       1.31171980 Ry

     iteration #  2     ecut=    50.00 Ry     beta= 0.30
     Davidson diagonalization with overlap
     ethr =  3.64E-03,  avg # of iterations =  7.4

     total cpu time spent up to now is       17.0 secs

     total energy              =    -360.64460073 Ry
     estimated scf accuracy    <       0.70593225 Ry

     iteration #  3     ecut=    50.00 Ry     beta= 0.30
     Davidson diagonalization with overlap
     ethr =  1.96E-03,  avg # of iterations =  2.0

     total cpu time spent up to now is       22.2 secs

     total energy              =    -360.49202856 Ry
     estimated scf accuracy    <       0.33242182 Ry

     iteration #  4     ecut=    50.00 Ry     beta= 0.30
     Davidson diagonalization with overlap
     ethr =  9.23E-04,  avg # of iterations =  9.1

     total cpu time spent up to now is       32.9 secs

     total energy              =    -360.88945662 Ry
     estimated scf accuracy    <       1.49847619 Ry

     iteration #  5     ecut=    50.00 Ry     beta= 0.30
     Davidson diagonalization with overlap
     ethr =  9.23E-04,  avg # of iterations =  1.9

     total cpu time spent up to now is       38.0 secs

     total energy              =    -360.90381455 Ry
     estimated scf accuracy    <       1.04527355 Ry

     iteration #  6     ecut=    50.00 Ry     beta= 0.30
     Davidson diagonalization with overlap
     ethr =  9.23E-04,  avg # of iterations =  1.0

     total cpu time spent up to now is       42.6 secs

     total energy              =    -360.66512333 Ry
     estimated scf accuracy    <       1.01074452 Ry

     iteration #  7     ecut=    50.00 Ry     beta= 0.30
     Davidson diagonalization with overlap
     ethr =  9.23E-04,  avg # of iterations =  8.2

     total cpu time spent up to now is       50.2 secs

     total energy              =    -360.79611445 Ry
     estimated scf accuracy    <       0.04040548 Ry

     iteration #  8     ecut=    50.00 Ry     beta= 0.30
     Davidson diagonalization with overlap
     ethr =  1.12E-04,  avg # of iterations =  3.2

     total cpu time spent up to now is       56.2 secs

     total energy              =    -360.79665734 Ry
     estimated scf accuracy    <       0.03483147 Ry

     iteration #  9     ecut=    50.00 Ry     beta= 0.30
     Davidson diagonalization with overlap
     ethr =  9.68E-05,  avg # of iterations =  1.6

     total cpu time spent up to now is       61.1 secs

     total energy              =    -360.81017900 Ry
     estimated scf accuracy    <       0.03147592 Ry

     iteration # 10     ecut=    50.00 Ry     beta= 0.30
     Davidson diagonalization with overlap
     c_bands:  2 eigenvalues not converged
     c_bands:  1 eigenvalues not converged
     c_bands:  1 eigenvalues not converged
     c_bands:  2 eigenvalues not converged
     c_bands:  2 eigenvalues not converged
     c_bands:  1 eigenvalues not converged
     c_bands:  1 eigenvalues not converged
     c_bands:  1 eigenvalues not converged
     c_bands:  1 eigenvalues not converged
     c_bands:  1 eigenvalues not converged
     c_bands:  1 eigenvalues not converged
     c_bands:  1 eigenvalues not converged
     c_bands:  1 eigenvalues not converged
     c_bands:  1 eigenvalues not converged
     c_bands:  1 eigenvalues not converged
     c_bands:  1 eigenvalues not converged
     c_bands:  1 eigenvalues not converged
     c_bands:  1 eigenvalues not converged
     c_bands:  1 eigenvalues not converged
     c_bands:  1 eigenvalues not converged
     c_bands:  1 eigenvalues not converged
     c_bands:  1 eigenvalues not converged
     c_bands:  2 eigenvalues not converged
     c_bands:  2 eigenvalues not converged
     c_bands:  2 eigenvalues not converged
     c_bands:  1 eigenvalues not converged
     c_bands:  1 eigenvalues not converged
     c_bands:  1 eigenvalues not converged
     c_bands:  1 eigenvalues not converged
     c_bands:  1 eigenvalues not converged
     c_bands:  1 eigenvalues not converged
     c_bands:  1 eigenvalues not converged
     c_bands:  1 eigenvalues not converged
     c_bands:  1 eigenvalues not converged
     c_bands:  1 eigenvalues not converged
     c_bands:  1 eigenvalues not converged
     c_bands:  1 eigenvalues not converged
     c_bands:  1 eigenvalues not converged
     c_bands:  1 eigenvalues not converged
     c_bands:  1 eigenvalues not converged
     c_bands:  1 eigenvalues not converged
     c_bands:  1 eigenvalues not converged
     c_bands:  1 eigenvalues not converged
     c_bands:  1 eigenvalues not converged
     c_bands:  1 eigenvalues not converged
     c_bands:  1 eigenvalues not converged
     c_bands:  1 eigenvalues not converged
     c_bands:  1 eigenvalues not converged
     c_bands:  1 eigenvalues not converged
     c_bands:  1 eigenvalues not converged
     c_bands:  1 eigenvalues not converged
     c_bands:  1 eigenvalues not converged
     c_bands:  1 eigenvalues not converged
     c_bands:  1 eigenvalues not converged
     c_bands:  1 eigenvalues not converged
     ethr =  8.74E-05,  avg # of iterations = 18.5

     total cpu time spent up to now is       76.6 secs

     total energy              =    -361.18607068 Ry
     estimated scf accuracy    <       4.08931057 Ry

     iteration # 11     ecut=    50.00 Ry     beta= 0.30
     Davidson diagonalization with overlap
     ethr =  8.74E-05,  avg # of iterations =  5.5

     total cpu time spent up to now is       82.4 secs

     total energy              =    -361.27866103 Ry
     estimated scf accuracy    <       4.37092800 Ry

     iteration # 12     ecut=    50.00 Ry     beta= 0.30
     Davidson diagonalization with overlap
     ethr =  8.74E-05,  avg # of iterations =  6.6

     total cpu time spent up to now is       89.2 secs

     total energy              =    -361.25562533 Ry
     estimated scf accuracy    <       5.33888450 Ry

     iteration # 13     ecut=    50.00 Ry     beta= 0.30
     Davidson diagonalization with overlap
     ethr =  8.74E-05,  avg # of iterations =  1.1

     total cpu time spent up to now is       93.9 secs

     total energy              =    -360.36741694 Ry
     estimated scf accuracy    <       5.30557998 Ry

     iteration # 14     ecut=    50.00 Ry     beta= 0.30
     Davidson diagonalization with overlap
     c_bands:  1 eigenvalues not converged
     c_bands:  1 eigenvalues not converged
     c_bands:  1 eigenvalues not converged
     c_bands:  1 eigenvalues not converged
     c_bands:  1 eigenvalues not converged
     c_bands:  1 eigenvalues not converged
     c_bands:  1 eigenvalues not converged
     c_bands:  1 eigenvalues not converged
     c_bands:  1 eigenvalues not converged
     c_bands:  1 eigenvalues not converged
     c_bands:  1 eigenvalues not converged
     c_bands:  1 eigenvalues not converged
     c_bands:  1 eigenvalues not converged
     c_bands:  1 eigenvalues not converged
     c_bands:  1 eigenvalues not converged
     c_bands:  1 eigenvalues not converged
     c_bands:  1 eigenvalues not converged
     c_bands:  1 eigenvalues not converged
     c_bands:  1 eigenvalues not converged
     c_bands:  1 eigenvalues not converged
     c_bands:  1 eigenvalues not converged
     c_bands:  1 eigenvalues not converged
     c_bands:  1 eigenvalues not converged
     c_bands:  1 eigenvalues not converged
     c_bands:  1 eigenvalues not converged
     c_bands:  1 eigenvalues not converged
     c_bands:  1 eigenvalues not converged
     c_bands:  1 eigenvalues not converged
     c_bands:  1 eigenvalues not converged
     c_bands:  1 eigenvalues not converged
     c_bands:  1 eigenvalues not converged
     c_bands:  1 eigenvalues not converged
     c_bands:  1 eigenvalues not converged
     c_bands:  1 eigenvalues not converged
     c_bands:  1 eigenvalues not converged
     c_bands:  1 eigenvalues not converged
     c_bands:  1 eigenvalues not converged
     c_bands:  1 eigenvalues not converged
     c_bands:  1 eigenvalues not converged
     c_bands:  1 eigenvalues not converged
     c_bands:  1 eigenvalues not converged
     c_bands:  1 eigenvalues not converged
     c_bands:  1 eigenvalues not converged
     c_bands:  1 eigenvalues not converged
     c_bands:  1 eigenvalues not converged
     c_bands:  1 eigenvalues not converged
     c_bands:  1 eigenvalues not converged
     c_bands:  1 eigenvalues not converged
     c_bands:  1 eigenvalues not converged
     c_bands:  1 eigenvalues not converged
     c_bands:  1 eigenvalues not converged
     c_bands:  1 eigenvalues not converged
     c_bands:  1 eigenvalues not converged
     c_bands:  1 eigenvalues not converged
     c_bands:  1 eigenvalues not converged
     c_bands:  1 eigenvalues not converged
     c_bands:  1 eigenvalues not converged
     c_bands:  1 eigenvalues not converged
     c_bands:  1 eigenvalues not converged
     c_bands:  1 eigenvalues not converged
     c_bands:  1 eigenvalues not converged
     c_bands:  1 eigenvalues not converged
     c_bands:  1 eigenvalues not converged
     c_bands:  1 eigenvalues not converged
     c_bands:  1 eigenvalues not converged
     c_bands:  1 eigenvalues not converged
     c_bands:  1 eigenvalues not converged
     c_bands:  1 eigenvalues not converged
     ethr =  8.74E-05,  avg # of iterations = 19.0

     total cpu time spent up to now is      109.0 secs

     total energy              =    -360.85354473 Ry
     estimated scf accuracy    <       0.02155614 Ry

     iteration # 15     ecut=    50.00 Ry     beta= 0.30
     Davidson diagonalization with overlap
     c_bands:  1 eigenvalues not converged
     c_bands:  5 eigenvalues not converged
     ethr =  5.99E-05,  avg # of iterations = 13.0

     total cpu time spent up to now is      131.7 secs

     total energy              =    -361.14835856 Ry
     estimated scf accuracy    <       2.13735450 Ry

     iteration # 16     ecut=    50.00 Ry     beta= 0.30
     Davidson diagonalization with overlap
     ethr =  5.99E-05,  avg # of iterations =  4.7

     total cpu time spent up to now is      138.3 secs

     total energy              =    -361.00337453 Ry
     estimated scf accuracy    <       1.73152997 Ry

     iteration # 17     ecut=    50.00 Ry     beta= 0.30
     Davidson diagonalization with overlap
     ethr =  5.99E-05,  avg # of iterations =  5.4

     total cpu time spent up to now is      146.2 secs

     total energy              =    -360.52399930 Ry
     estimated scf accuracy    <       1.16546075 Ry

     iteration # 18     ecut=    50.00 Ry     beta= 0.30
     Davidson diagonalization with overlap
     c_bands:  2 eigenvalues not converged
     c_bands:  1 eigenvalues not converged
     c_bands:  2 eigenvalues not converged
     c_bands:  2 eigenvalues not converged
     c_bands:  1 eigenvalues not converged
     c_bands:  2 eigenvalues not converged
     c_bands:  2 eigenvalues not converged
     c_bands:  1 eigenvalues not converged
     c_bands:  1 eigenvalues not converged
     c_bands:  2 eigenvalues not converged
     c_bands:  1 eigenvalues not converged
     c_bands:  1 eigenvalues not converged
     c_bands:  1 eigenvalues not converged
     c_bands:  1 eigenvalues not converged
     c_bands:  1 eigenvalues not converged
     ethr =  5.99E-05,  avg # of iterations = 17.1

     total cpu time spent up to now is      162.4 secs

     total energy              =    -360.75203203 Ry
     estimated scf accuracy    <       0.62512098 Ry

     iteration # 19     ecut=    50.00 Ry     beta= 0.30
     Davidson diagonalization with overlap
     c_bands:  1 eigenvalues not converged
     ethr =  5.99E-05,  avg # of iterations =  9.6

     total cpu time spent up to now is      171.1 secs

     total energy              =    -360.78775507 Ry
     estimated scf accuracy    <       0.03156233 Ry

     iteration # 20     ecut=    50.00 Ry     beta= 0.30
     Davidson diagonalization with overlap
     c_bands:  1 eigenvalues not converged
     ethr =  5.99E-05,  avg # of iterations =  7.5

     total cpu time spent up to now is      179.4 secs

     total energy              =    -360.84078174 Ry
     estimated scf accuracy    <       0.12425546 Ry

     iteration # 21     ecut=    50.00 Ry     beta= 0.30
     Davidson diagonalization with overlap
     ethr =  5.99E-05,  avg # of iterations =  6.7

     total cpu time spent up to now is      187.0 secs

     total energy              =    -360.82890328 Ry
     estimated scf accuracy    <       0.35264520 Ry

     iteration # 22     ecut=    50.00 Ry     beta= 0.30
     Davidson diagonalization with overlap
     ethr =  5.99E-05,  avg # of iterations =  1.0

     total cpu time spent up to now is      191.6 secs

     total energy              =    -360.79468555 Ry
     estimated scf accuracy    <       0.31132225 Ry

     iteration # 23     ecut=    50.00 Ry     beta= 0.30
     Davidson diagonalization with overlap
     ethr =  5.99E-05,  avg # of iterations =  8.0

     total cpu time spent up to now is      198.7 secs

     total energy              =    -360.80690593 Ry
     estimated scf accuracy    <       0.09391573 Ry

     iteration # 24     ecut=    50.00 Ry     beta= 0.30
     Davidson diagonalization with overlap
     ethr =  5.99E-05,  avg # of iterations =  1.1

     total cpu time spent up to now is      203.3 secs

     total energy              =    -360.78228715 Ry
     estimated scf accuracy    <       0.09664579 Ry

     iteration # 25     ecut=    50.00 Ry     beta= 0.30
     Davidson diagonalization with overlap
     ethr =  5.99E-05,  avg # of iterations =  7.0

     total cpu time spent up to now is      211.0 secs

     total energy              =    -360.79510496 Ry
     estimated scf accuracy    <       0.00962004 Ry

     iteration # 26     ecut=    50.00 Ry     beta= 0.30
     Davidson diagonalization with overlap
     ethr =  2.67E-05,  avg # of iterations =  1.7

     total cpu time spent up to now is      215.9 secs

     total energy              =    -360.79530168 Ry
     estimated scf accuracy    <       0.00819271 Ry

     iteration # 27     ecut=    50.00 Ry     beta= 0.30
     Davidson diagonalization with overlap
     ethr =  2.28E-05,  avg # of iterations =  1.0

     total cpu time spent up to now is      220.4 secs

     total energy              =    -360.79208106 Ry
     estimated scf accuracy    <       0.00789858 Ry

     iteration # 28     ecut=    50.00 Ry     beta= 0.30
     Davidson diagonalization with overlap
     ethr =  2.19E-05,  avg # of iterations =  9.2

     total cpu time spent up to now is      230.9 secs

     total energy              =    -360.79846768 Ry
     estimated scf accuracy    <       0.03408790 Ry

     iteration # 29     ecut=    50.00 Ry     beta= 0.30
     Davidson diagonalization with overlap
     ethr =  2.19E-05,  avg # of iterations =  6.2

     total cpu time spent up to now is      238.0 secs

     total energy              =    -360.79525105 Ry
     estimated scf accuracy    <       0.05087412 Ry

     iteration # 30     ecut=    50.00 Ry     beta= 0.30
     Davidson diagonalization with overlap
     ethr =  2.19E-05,  avg # of iterations =  2.3

     total cpu time spent up to now is      243.4 secs

     total energy              =    -360.79026871 Ry
     estimated scf accuracy    <       0.03992094 Ry

     iteration # 31     ecut=    50.00 Ry     beta= 0.30
     Davidson diagonalization with overlap
     ethr =  2.19E-05,  avg # of iterations =  8.1

     total cpu time spent up to now is      250.8 secs

     total energy              =    -360.79307307 Ry
     estimated scf accuracy    <       0.00434485 Ry

     iteration # 32     ecut=    50.00 Ry     beta= 0.30
     Davidson diagonalization with overlap
     ethr =  1.21E-05,  avg # of iterations =  2.2

     total cpu time spent up to now is      255.9 secs

     total energy              =    -360.79299507 Ry
     estimated scf accuracy    <       0.00289849 Ry

     iteration # 33     ecut=    50.00 Ry     beta= 0.30
     Davidson diagonalization with overlap
     ethr =  8.05E-06,  avg # of iterations =  8.1

     total cpu time spent up to now is      263.6 secs

     total energy              =    -360.79222608 Ry
     estimated scf accuracy    <       0.00519410 Ry

     iteration # 34     ecut=    50.00 Ry     beta= 0.30
     Davidson diagonalization with overlap
     ethr =  8.05E-06,  avg # of iterations =  9.6

     total cpu time spent up to now is      272.9 secs

     total energy              =    -360.79734575 Ry
     estimated scf accuracy    <       0.03462646 Ry

     iteration # 35     ecut=    50.00 Ry     beta= 0.30
     Davidson diagonalization with overlap
     ethr =  8.05E-06,  avg # of iterations =  1.0

     total cpu time spent up to now is      277.5 secs

     total energy              =    -360.79878611 Ry
     estimated scf accuracy    <       0.03256782 Ry

     iteration # 36     ecut=    50.00 Ry     beta= 0.30
     Davidson diagonalization with overlap
     ethr =  8.05E-06,  avg # of iterations =  1.1

     total cpu time spent up to now is      282.2 secs

     total energy              =    -360.79900338 Ry
     estimated scf accuracy    <       0.03497144 Ry

     iteration # 37     ecut=    50.00 Ry     beta= 0.30
     Davidson diagonalization with overlap
     ethr =  8.05E-06,  avg # of iterations =  1.1

     total cpu time spent up to now is      286.8 secs

     total energy              =    -360.79647239 Ry
     estimated scf accuracy    <       0.03680036 Ry

     iteration # 38     ecut=    50.00 Ry     beta= 0.30
     Davidson diagonalization with overlap
     ethr =  8.05E-06,  avg # of iterations =  1.5

     total cpu time spent up to now is      291.7 secs

     total energy              =    -360.80346656 Ry
     estimated scf accuracy    <       0.03134165 Ry

     iteration # 39     ecut=    50.00 Ry     beta= 0.30
     Davidson diagonalization with overlap
     c_bands:  2 eigenvalues not converged
     ethr =  8.05E-06,  avg # of iterations =  8.0

     total cpu time spent up to now is      300.5 secs

     total energy              =    -360.79183259 Ry
     estimated scf accuracy    <       0.09211413 Ry

     iteration # 40     ecut=    50.00 Ry     beta= 0.30
     Davidson diagonalization with overlap
     c_bands:  2 eigenvalues not converged
     ethr =  8.05E-06,  avg # of iterations =  8.4

     total cpu time spent up to now is      309.2 secs

     total energy              =    -360.79595586 Ry
     estimated scf accuracy    <       0.02148527 Ry

     iteration # 41     ecut=    50.00 Ry     beta= 0.30
     Davidson diagonalization with overlap
     ethr =  8.05E-06,  avg # of iterations =  1.3

     total cpu time spent up to now is      314.1 secs

     total energy              =    -360.79273682 Ry
     estimated scf accuracy    <       0.02263370 Ry

     iteration # 42     ecut=    50.00 Ry     beta= 0.30
     Davidson diagonalization with overlap
     ethr =  8.05E-06,  avg # of iterations =  8.0

     total cpu time spent up to now is      321.9 secs

     total energy              =    -360.79179197 Ry
     estimated scf accuracy    <       0.00529769 Ry

     iteration # 43     ecut=    50.00 Ry     beta= 0.30
     Davidson diagonalization with overlap
     ethr =  8.05E-06,  avg # of iterations =  7.7

     total cpu time spent up to now is      329.9 secs

     total energy              =    -360.79268819 Ry
     estimated scf accuracy    <       0.00386666 Ry

     iteration # 44     ecut=    50.00 Ry     beta= 0.30
     Davidson diagonalization with overlap
     ethr =  8.05E-06,  avg # of iterations =  2.0

     total cpu time spent up to now is      335.0 secs

     total energy              =    -360.79272570 Ry
     estimated scf accuracy    <       0.00200698 Ry

     iteration # 45     ecut=    50.00 Ry     beta= 0.30
     Davidson diagonalization with overlap
     ethr =  5.57E-06,  avg # of iterations =  8.3

     total cpu time spent up to now is      342.3 secs

     total energy              =    -360.79322574 Ry
     estimated scf accuracy    <       0.00014348 Ry

     iteration # 46     ecut=    50.00 Ry     beta= 0.30
     Davidson diagonalization with overlap
     c_bands:  1 eigenvalues not converged
     c_bands:  2 eigenvalues not converged
     ethr =  3.99E-07,  avg # of iterations =  6.5

     total cpu time spent up to now is      349.7 secs

     total energy              =    -360.79329027 Ry
     estimated scf accuracy    <       0.00059267 Ry

     iteration # 47     ecut=    50.00 Ry     beta= 0.30
     Davidson diagonalization with overlap
     ethr =  3.99E-07,  avg # of iterations =  1.2

     total cpu time spent up to now is      354.2 secs

     total energy              =    -360.79325991 Ry
     estimated scf accuracy    <       0.00055551 Ry

     iteration # 48     ecut=    50.00 Ry     beta= 0.30
     Davidson diagonalization with overlap
     ethr =  3.99E-07,  avg # of iterations =  1.8

     total cpu time spent up to now is      359.3 secs

     total energy              =    -360.79320216 Ry
     estimated scf accuracy    <       0.00041112 Ry

     iteration # 49     ecut=    50.00 Ry     beta= 0.30
     Davidson diagonalization with overlap
     ethr =  3.99E-07,  avg # of iterations =  5.5

     total cpu time spent up to now is      365.3 secs

     total energy              =    -360.79322688 Ry
     estimated scf accuracy    <       0.00009430 Ry

     iteration # 50     ecut=    50.00 Ry     beta= 0.30
     Davidson diagonalization with overlap
     ethr =  2.62E-07,  avg # of iterations =  1.9

     total cpu time spent up to now is      370.3 secs

     total energy              =    -360.79322742 Ry
     estimated scf accuracy    <       0.00008225 Ry

     iteration # 51     ecut=    50.00 Ry     beta= 0.30
     Davidson diagonalization with overlap
     ethr =  2.28E-07,  avg # of iterations =  2.3

     total cpu time spent up to now is      375.5 secs

     total energy              =    -360.79323014 Ry
     estimated scf accuracy    <       0.00006040 Ry

     iteration # 52     ecut=    50.00 Ry     beta= 0.30
     Davidson diagonalization with overlap
     ethr =  1.68E-07,  avg # of iterations =  1.8

     total cpu time spent up to now is      380.4 secs

     total energy              =    -360.79322782 Ry
     estimated scf accuracy    <       0.00005322 Ry

     iteration # 53     ecut=    50.00 Ry     beta= 0.30
     Davidson diagonalization with overlap
     ethr =  1.48E-07,  avg # of iterations =  2.1

     total cpu time spent up to now is      385.5 secs

     total energy              =    -360.79322129 Ry
     estimated scf accuracy    <       0.00003489 Ry

     iteration # 54     ecut=    50.00 Ry     beta= 0.30
     Davidson diagonalization with overlap
     ethr =  9.69E-08,  avg # of iterations =  7.4

     total cpu time spent up to now is      392.8 secs

     total energy              =    -360.79323177 Ry
     estimated scf accuracy    <       0.00001045 Ry

     iteration # 55     ecut=    50.00 Ry     beta= 0.30
     Davidson diagonalization with overlap
     ethr =  2.90E-08,  avg # of iterations =  2.7

     total cpu time spent up to now is      398.0 secs

     total energy              =    -360.79323065 Ry
     estimated scf accuracy    <       0.00000747 Ry

     iteration # 56     ecut=    50.00 Ry     beta= 0.30
     Davidson diagonalization with overlap
     ethr =  2.08E-08,  avg # of iterations =  7.1

     total cpu time spent up to now is      405.1 secs

     total energy              =    -360.79323318 Ry
     estimated scf accuracy    <       0.00000157 Ry

     iteration # 57     ecut=    50.00 Ry     beta= 0.30
     Davidson diagonalization with overlap
     ethr =  4.37E-09,  avg # of iterations =  3.3

     total cpu time spent up to now is      410.5 secs

     total energy              =    -360.79323328 Ry
     estimated scf accuracy    <       0.00000222 Ry

     iteration # 58     ecut=    50.00 Ry     beta= 0.30
     Davidson diagonalization with overlap
     ethr =  4.37E-09,  avg # of iterations =  1.1

     total cpu time spent up to now is      415.3 secs

     total energy              =    -360.79323328 Ry
     estimated scf accuracy    <       0.00000219 Ry

     iteration # 59     ecut=    50.00 Ry     beta= 0.30
     Davidson diagonalization with overlap
     ethr =  4.37E-09,  avg # of iterations =  1.0

     total cpu time spent up to now is      419.9 secs

     total energy              =    -360.79323330 Ry
     estimated scf accuracy    <       0.00000220 Ry

     iteration # 60     ecut=    50.00 Ry     beta= 0.30
     Davidson diagonalization with overlap
     ethr =  4.37E-09,  avg # of iterations =  1.0

     total cpu time spent up to now is      424.5 secs

     total energy              =    -360.79323304 Ry
     estimated scf accuracy    <       0.00000222 Ry

     iteration # 61     ecut=    50.00 Ry     beta= 0.30
     Davidson diagonalization with overlap
     ethr =  4.37E-09,  avg # of iterations =  1.6

     total cpu time spent up to now is      429.4 secs

     total energy              =    -360.79323327 Ry
     estimated scf accuracy    <       0.00000142 Ry

     iteration # 62     ecut=    50.00 Ry     beta= 0.30
     Davidson diagonalization with overlap
     ethr =  3.96E-09,  avg # of iterations =  1.0

     total cpu time spent up to now is      434.0 secs

     total energy              =    -360.79323432 Ry
     estimated scf accuracy    <       0.00000176 Ry

     iteration # 63     ecut=    50.00 Ry     beta= 0.30
     Davidson diagonalization with overlap
     ethr =  3.96E-09,  avg # of iterations =  7.9

     total cpu time spent up to now is      442.0 secs

     total energy              =    -360.79323539 Ry
     estimated scf accuracy    <       0.00001858 Ry

     iteration # 64     ecut=    50.00 Ry     beta= 0.30
     Davidson diagonalization with overlap
     ethr =  3.96E-09,  avg # of iterations =  1.0

     total cpu time spent up to now is      446.6 secs

     total energy              =    -360.79323483 Ry
     estimated scf accuracy    <       0.00001901 Ry

     iteration # 65     ecut=    50.00 Ry     beta= 0.30
     Davidson diagonalization with overlap
     ethr =  3.96E-09,  avg # of iterations =  1.0

     total cpu time spent up to now is      451.3 secs

     total energy              =    -360.79323376 Ry
     estimated scf accuracy    <       0.00001781 Ry

     iteration # 66     ecut=    50.00 Ry     beta= 0.30
     Davidson diagonalization with overlap
     ethr =  3.96E-09,  avg # of iterations =  4.6

     total cpu time spent up to now is      457.1 secs

     total energy              =    -360.79323392 Ry
     estimated scf accuracy    <       0.00001230 Ry

     iteration # 67     ecut=    50.00 Ry     beta= 0.30
     Davidson diagonalization with overlap
     ethr =  3.96E-09,  avg # of iterations =  1.2

     total cpu time spent up to now is      461.8 secs

     total energy              =    -360.79323451 Ry
     estimated scf accuracy    <       0.00001183 Ry

     iteration # 68     ecut=    50.00 Ry     beta= 0.30
     Davidson diagonalization with overlap
     ethr =  3.96E-09,  avg # of iterations =  1.6

     total cpu time spent up to now is      466.7 secs

     total energy              =    -360.79323384 Ry
     estimated scf accuracy    <       0.00001325 Ry

     iteration # 69     ecut=    50.00 Ry     beta= 0.30
     Davidson diagonalization with overlap
     ethr =  3.96E-09,  avg # of iterations =  1.2

     total cpu time spent up to now is      471.4 secs

     total energy              =    -360.79323369 Ry
     estimated scf accuracy    <       0.00001167 Ry

     iteration # 70     ecut=    50.00 Ry     beta= 0.30
     Davidson diagonalization with overlap
     ethr =  3.96E-09,  avg # of iterations =  1.2

     total cpu time spent up to now is      476.1 secs

     total energy              =    -360.79323267 Ry
     estimated scf accuracy    <       0.00001087 Ry

     iteration # 71     ecut=    50.00 Ry     beta= 0.30
     Davidson diagonalization with overlap
     ethr =  3.96E-09,  avg # of iterations =  8.1

     total cpu time spent up to now is      483.4 secs

     total energy              =    -360.79323303 Ry
     estimated scf accuracy    <       0.00000185 Ry

     iteration # 72     ecut=    50.00 Ry     beta= 0.30
     Davidson diagonalization with overlap
     ethr =  3.96E-09,  avg # of iterations =  2.2

     total cpu time spent up to now is      488.4 secs

     total energy              =    -360.79323281 Ry
     estimated scf accuracy    <       0.00000137 Ry

     iteration # 73     ecut=    50.00 Ry     beta= 0.30
     Davidson diagonalization with overlap
     ethr =  3.82E-09,  avg # of iterations =  3.5

     total cpu time spent up to now is      494.1 secs

     total energy              =    -360.79323294 Ry
     estimated scf accuracy    <       0.00000016 Ry

     iteration # 74     ecut=    50.00 Ry     beta= 0.30
     Davidson diagonalization with overlap
     ethr =  4.45E-10,  avg # of iterations =  8.2

     total cpu time spent up to now is      502.2 secs

     total energy              =    -360.79323305 Ry
     estimated scf accuracy    <       0.00000014 Ry

     iteration # 75     ecut=    50.00 Ry     beta= 0.30
     Davidson diagonalization with overlap
     ethr =  4.00E-10,  avg # of iterations =  1.0

     total cpu time spent up to now is      506.8 secs

     total energy              =    -360.79323304 Ry
     estimated scf accuracy    <       0.00000015 Ry

     iteration # 76     ecut=    50.00 Ry     beta= 0.30
     Davidson diagonalization with overlap
     ethr =  4.00E-10,  avg # of iterations =  1.0

     total cpu time spent up to now is      511.5 secs

     total energy              =    -360.79323305 Ry
     estimated scf accuracy    <       0.00000012 Ry

     iteration # 77     ecut=    50.00 Ry     beta= 0.30
     Davidson diagonalization with overlap
     ethr =  3.36E-10,  avg # of iterations =  1.0

     total cpu time spent up to now is      516.1 secs

     total energy              =    -360.79323305 Ry
     estimated scf accuracy    <       0.00000012 Ry

     iteration # 78     ecut=    50.00 Ry     beta= 0.30
     Davidson diagonalization with overlap
     ethr =  3.36E-10,  avg # of iterations =  1.0

     total cpu time spent up to now is      520.8 secs

     total energy              =    -360.79323305 Ry
     estimated scf accuracy    <       0.00000012 Ry

     iteration # 79     ecut=    50.00 Ry     beta= 0.30
     Davidson diagonalization with overlap
     ethr =  3.36E-10,  avg # of iterations =  1.0

     total cpu time spent up to now is      525.4 secs

     total energy              =    -360.79323305 Ry
     estimated scf accuracy    <       0.00000013 Ry

     iteration # 80     ecut=    50.00 Ry     beta= 0.30
     Davidson diagonalization with overlap
     ethr =  3.36E-10,  avg # of iterations =  1.0

     total cpu time spent up to now is      530.1 secs

     total energy              =    -360.79323305 Ry
     estimated scf accuracy    <       0.00000012 Ry

     iteration # 81     ecut=    50.00 Ry     beta= 0.30
     Davidson diagonalization with overlap
     ethr =  3.29E-10,  avg # of iterations =  1.0

     total cpu time spent up to now is      534.7 secs

     total energy              =    -360.79323305 Ry
     estimated scf accuracy    <       0.00000012 Ry

     iteration # 82     ecut=    50.00 Ry     beta= 0.30
     Davidson diagonalization with overlap
     ethr =  3.28E-10,  avg # of iterations =  1.0

     total cpu time spent up to now is      539.4 secs

     total energy              =    -360.79323299 Ry
     estimated scf accuracy    <       0.00000011 Ry

     iteration # 83     ecut=    50.00 Ry     beta= 0.30
     Davidson diagonalization with overlap
     ethr =  3.00E-10,  avg # of iterations =  7.8

     total cpu time spent up to now is      547.4 secs

     total energy              =    -360.79323303 Ry
     estimated scf accuracy    <       0.00000036 Ry

     iteration # 84     ecut=    50.00 Ry     beta= 0.30
     Davidson diagonalization with overlap
     ethr =  3.00E-10,  avg # of iterations =  2.0

     total cpu time spent up to now is      552.5 secs

     total energy              =    -360.79323306 Ry
     estimated scf accuracy    <       0.00000025 Ry

     iteration # 85     ecut=    50.00 Ry     beta= 0.30
     Davidson diagonalization with overlap
     ethr =  3.00E-10,  avg # of iterations =  1.0

     total cpu time spent up to now is      557.2 secs

     total energy              =    -360.79323307 Ry
     estimated scf accuracy    <       0.00000028 Ry

     iteration # 86     ecut=    50.00 Ry     beta= 0.30
     Davidson diagonalization with overlap
     ethr =  3.00E-10,  avg # of iterations =  1.0

     total cpu time spent up to now is      561.8 secs

     total energy              =    -360.79323300 Ry
     estimated scf accuracy    <       0.00000029 Ry

     iteration # 87     ecut=    50.00 Ry     beta= 0.30
     Davidson diagonalization with overlap
     ethr =  3.00E-10,  avg # of iterations =  8.1

     total cpu time spent up to now is      569.1 secs

     total energy              =    -360.79323304 Ry
     estimated scf accuracy    <       0.00000002 Ry

     iteration # 88     ecut=    50.00 Ry     beta= 0.30
     Davidson diagonalization with overlap
     ethr =  6.08E-11,  avg # of iterations =  5.0

     total cpu time spent up to now is      575.2 secs

     total energy              =    -360.79323304 Ry
     estimated scf accuracy    <       0.00000003 Ry

     iteration # 89     ecut=    50.00 Ry     beta= 0.30
     Davidson diagonalization with overlap
     ethr =  6.08E-11,  avg # of iterations =  1.1

     total cpu time spent up to now is      579.9 secs

     total energy              =    -360.79323306 Ry
     estimated scf accuracy    <       0.00000003 Ry

     iteration # 90     ecut=    50.00 Ry     beta= 0.30
     Davidson diagonalization with overlap
     c_bands:  2 eigenvalues not converged
     c_bands:  1 eigenvalues not converged
     c_bands:  1 eigenvalues not converged
     ethr =  6.08E-11,  avg # of iterations = 10.9

     total cpu time spent up to now is      590.2 secs

     total energy              =    -360.79323303 Ry
     estimated scf accuracy    <       0.00000058 Ry

     iteration # 91     ecut=    50.00 Ry     beta= 0.30
     Davidson diagonalization with overlap
     ethr =  6.08E-11,  avg # of iterations =  7.8

     total cpu time spent up to now is      598.3 secs

     total energy              =    -360.79323304 Ry
     estimated scf accuracy    <       0.00000014 Ry

     iteration # 92     ecut=    50.00 Ry     beta= 0.30
     Davidson diagonalization with overlap
     ethr =  6.08E-11,  avg # of iterations =  1.2

     total cpu time spent up to now is      603.1 secs

     total energy              =    -360.79323303 Ry
     estimated scf accuracy    <       0.00000012 Ry

     iteration # 93     ecut=    50.00 Ry     beta= 0.30
     Davidson diagonalization with overlap
     ethr =  6.08E-11,  avg # of iterations =  8.1

     total cpu time spent up to now is      610.7 secs

     End of self-consistent calculation

     Number of k-points >= 100: set verbosity='high' to print the bands.

     highest occupied level (ev):     8.0275

!    total energy              =    -360.79323303 Ry
     estimated scf accuracy    <          9.8E-09 Ry

     The total energy is the sum of the following terms:
     one-electron contribution =    -217.38875583 Ry
     hartree contribution      =     146.75638777 Ry
     xc contribution           =    -109.63788448 Ry
     ewald contribution        =    -180.52298048 Ry

     convergence has been achieved in  93 iterations

     Forces acting on atoms (cartesian axes, Ry/au):

     atom    1 type  1   force =     0.49798465   -0.58790178    0.13583051
     atom    2 type  1   force =    -0.15323371   -0.01864224   -0.81650166
     atom    3 type  2   force =    -0.00032516   -0.01365997    0.13702259
     atom    4 type  2   force =    -0.34442579    0.62020398    0.54364856
     The non-local contrib.  to forces
     atom    1 type  1   force =     0.42093848   -0.59487247   -0.34847826
     atom    2 type  1   force =    -0.13424841   -0.07822246    0.03605074
     atom    3 type  2   force =    -0.00409228   -0.19714721    0.55670636
     atom    4 type  2   force =    -0.00515954   -0.13666428   -1.44725251
     The ionic contribution  to forces
     atom    1 type  1   force =     5.81772847   -4.45273309   14.79060826
     atom    2 type  1   force =    -3.95483631   -2.09070556  -30.45561037
     atom    3 type  2   force =     0.43015519    0.79653626   -3.98711837
     atom    4 type  2   force =    -2.29304734    5.74690239   19.65212048
     The local contribution  to forces
     atom    1 type  1   force =    -5.66938777    4.37733304  -14.31337639
     atom    2 type  1   force =     3.90415474    2.14470669   29.50980066
     atom    3 type  2   force =    -0.42634060   -0.61507040    3.57333194
     atom    4 type  2   force =     1.95195141   -4.98801159  -17.67047786
     The core correction contribution to forces
     atom    1 type  1   force =    -0.07130076    0.08237516    0.00689386
     atom    2 type  1   force =     0.03168623    0.00557052    0.09338627
     atom    3 type  2   force =    -0.00004256    0.00201865   -0.00580920
     atom    4 type  2   force =     0.00182752   -0.00201967    0.00914780
     The Hubbard contrib.    to forces
     atom    1 type  1   force =     0.00000000    0.00000000    0.00000000
     atom    2 type  1   force =     0.00000000    0.00000000    0.00000000
     atom    3 type  2   force =     0.00000000    0.00000000    0.00000000
     atom    4 type  2   force =     0.00000000    0.00000000    0.00000000
     The SCF correction term to forces
     atom    1 type  1   force =     0.00000982   -0.00000269    0.00019372
     atom    2 type  1   force =     0.00001362    0.00001028   -0.00011827
     atom    3 type  2   force =    -0.00000133    0.00000446   -0.00007745
     atom    4 type  2   force =     0.00000574   -0.00000115    0.00012133

     Total force =     1.456148     Total SCF correction =     0.000270

     Writing all to output data dir ./ZnO_ANN.save/

     init_run     :      3.44s CPU      3.53s WALL (       1 calls)
     electrons    :    596.07s CPU    606.71s WALL (       1 calls)
     forces       :      1.07s CPU      1.08s WALL (       1 calls)

     Called by init_run:
     wfcinit      :      2.61s CPU      2.66s WALL (       1 calls)
     potinit      :      0.21s CPU      0.21s WALL (       1 calls)
     hinit0       :      0.55s CPU      0.56s WALL (       1 calls)

     Called by electrons:
     c_bands      :    521.33s CPU    530.26s WALL (      93 calls)
     sum_band     :     67.51s CPU     69.02s WALL (      93 calls)
     v_of_rho     :      1.46s CPU      1.57s WALL (      94 calls)
     newd         :      5.40s CPU      5.45s WALL (      94 calls)
     mix_rho      :      0.27s CPU      0.31s WALL (      93 calls)

     Called by c_bands:
     init_us_2    :      4.66s CPU      4.73s WALL (   21056 calls)
     init_us_2:cp :      4.59s CPU      4.67s WALL (   21056 calls)
     cegterg      :    505.95s CPU    514.65s WALL (   10416 calls)

     Called by *egterg:
     cdiaghg      :     58.39s CPU     58.90s WALL (   57204 calls)
     h_psi        :    297.78s CPU    304.16s WALL (   57316 calls)
     s_psi        :     33.65s CPU     33.94s WALL (   57316 calls)
     g_psi        :      0.95s CPU      0.96s WALL (   46788 calls)

     Called by h_psi:
     h_psi:calbec :     40.74s CPU     41.92s WALL (   57316 calls)
     vloc_psi     :    222.30s CPU    227.24s WALL (   57316 calls)
     add_vuspsi   :     33.70s CPU     33.97s WALL (   57316 calls)

     General routines
     calbec       :     56.05s CPU     57.66s WALL (   68180 calls)
     fft          :      1.50s CPU      1.67s WALL (    1231 calls)
     ffts         :      0.12s CPU      0.13s WALL (     187 calls)
     fftw         :    236.62s CPU    241.96s WALL ( 1187554 calls)
     interpolate  :      0.16s CPU      0.18s WALL (      94 calls)

     Parallel routines

     PWSCF        :  10m 1.35s CPU  10m12.29s WALL


   This run was terminated on:  14:44: 5  23Jun2025            

=------------------------------------------------------------------------------=
   JOB DONE.
=------------------------------------------------------------------------------=
Note: The following floating-point exceptions are signalling: IEEE_INVALID_FLAG
