
     Program PWSCF v.7.2 starts on 23Jun2025 at 12:30:42 

     This program is part of the open-source Quantum ESPRESSO suite
     for quantum simulation of materials; please cite
         "P. Giannozzi et al., J. Phys.:Condens. Matter 21 395502 (2009);
         "P. Giannozzi et al., J. Phys.:Condens. Matter 29 465901 (2017);
         "P. Giannozzi et al., J. Chem. Phys. 152 154105 (2020);
          URL http://www.quantum-espresso.org", 
     in publications or presentations arising from this work. More details at
     http://www.quantum-espresso.org/quote

     Parallel version (MPI), running on     8 processors

     MPI processes distributed on     1 nodes
     91337 MiB available memory on the printing compute node when the environment starts

     Reading input from /home/jvc/QEspresso7.2/ZnO_DataBase/scfs_rnd025.in/scf-5.68-1.78-2.in

     Current dimensions of program PWSCF are:
     Max number of different atomic species (ntypx) = 10
     Max number of k-points (npk) =  40000
     Max angular momentum in pseudopotentials (lmaxx) =  4
     file Zn.upf: wavefunction(s)  3D renormalized

     R & G space division:  proc/nbgrp/npool/nimage =       8
     Subspace diagonalization in iterative solution of the eigenvalue problem:
     a serial algorithm will be used


     Parallelization info
     --------------------
     sticks:   dense  smooth     PW     G-vecs:    dense   smooth      PW
     Min         111      54     16                 4755     1680     288
     Max         112      55     18                 4758     1687     292
     Sum         889     439    139                38045    13467    2323

     Using Slab Decomposition



     bravais-lattice index     =            4
     lattice parameter (alat)  =       5.6845  a.u.
     unit-cell volume          =     282.4904 (a.u.)^3
     number of atoms/cell      =            4
     number of atomic types    =            2
     number of electrons       =        36.00
     number of Kohn-Sham states=           18
     kinetic-energy cutoff     =      50.0000  Ry
     charge density cutoff     =     400.0000  Ry
     scf convergence threshold =      1.0E-08
     mixing beta               =       0.3000
     number of iterations used =            8  plain     mixing
     Exchange-correlation= PBE
                           (   1   4   3   4   0   0   0)

     celldm(1)=   5.684516  celldm(2)=   0.000000  celldm(3)=   1.775794
     celldm(4)=   0.000000  celldm(5)=   0.000000  celldm(6)=   0.000000

     crystal axes: (cart. coord. in units of alat)
               a(1) = (   1.000000   0.000000   0.000000 )  
               a(2) = (  -0.500000   0.866025   0.000000 )  
               a(3) = (   0.000000   0.000000   1.775794 )  

     reciprocal axes: (cart. coord. in units 2 pi/alat)
               b(1) = (  1.000000  0.577350 -0.000000 )  
               b(2) = (  0.000000  1.154701  0.000000 )  
               b(3) = (  0.000000 -0.000000  0.563128 )  


     PseudoPot. # 1 for Zn read from file:
     ./pseudos/Zn.upf
     MD5 check sum: 7f56cabf9682ed8c977c2f7d0c5985c5
     Pseudo is Ultrasoft + core correction, Zval = 12.0
     Generated using &quot;atomic&quot; code by A. Dal Corso  v.6.2.2
     Using radial grid of 1201 points,  6 beta functions with: 
                l(1) =   0
                l(2) =   0
                l(3) =   1
                l(4) =   1
                l(5) =   2
                l(6) =   2
     Q(r) pseudized with 0 coefficients 


     PseudoPot. # 2 for O  read from file:
     ./pseudos/O.upf
     MD5 check sum: 91400c9766925bcf19f520983a725ff0
     Pseudo is Ultrasoft + core correction, Zval =  6.0
     Generated using &quot;atomic&quot; code by A. Dal Corso  v.6.3MaX
     Using radial grid of 1095 points,  4 beta functions with: 
                l(1) =   0
                l(2) =   0
                l(3) =   1
                l(4) =   1
     Q(r) pseudized with 0 coefficients 


     atomic species   valence    mass     pseudopotential
        Zn            12.00    63.38000     Zn( 1.00)
        O              6.00    15.99900     O ( 1.00)

     No symmetry found



   Cartesian axes

     site n.     atom                  positions (alat units)
         1           Zn  tau(   1) = (   0.3955885   0.4291847   1.2953065  )
         2           Zn  tau(   2) = (  -0.1397456   0.4282139   0.3527167  )
         3           O   tau(   3) = (   0.4784364   0.2701862   1.2450435  )
         4           O   tau(   4) = (   0.1264355   0.5472051   1.0938933  )

     number of k points=   112

     Number of k-points >= 100: set verbosity='high' to print them.

     Dense  grid:    38045 G-vectors     FFT dimensions: (  40,  40,  72)

     Smooth grid:    13467 G-vectors     FFT dimensions: (  25,  25,  45)

     Estimated max dynamical RAM per process >      26.82 MB

     Estimated total dynamical RAM >     214.55 MB

     Check: negative core charge=   -0.000002

     Initial potential from superposition of free atoms

     starting charge      35.9925, renormalised to      36.0000
     Starting wfcs are   26 randomized atomic wfcs

     total cpu time spent up to now is        3.4 secs

     Self-consistent Calculation

     iteration #  1     ecut=    50.00 Ry     beta= 0.30
     Davidson diagonalization with overlap
     ethr =  1.00E-02,  avg # of iterations =  5.1

     total cpu time spent up to now is       11.4 secs

     total energy              =    -333.89261130 Ry
     estimated scf accuracy    <       1.90569366 Ry

     iteration #  2     ecut=    50.00 Ry     beta= 0.30
     Davidson diagonalization with overlap
     ethr =  5.29E-03,  avg # of iterations =  2.1

     total cpu time spent up to now is       15.8 secs

     total energy              =    -333.64390708 Ry
     estimated scf accuracy    <       0.57854425 Ry

     iteration #  3     ecut=    50.00 Ry     beta= 0.30
     Davidson diagonalization with overlap
     ethr =  1.61E-03,  avg # of iterations =  6.6

     total cpu time spent up to now is       23.3 secs

     total energy              =    -334.07825072 Ry
     estimated scf accuracy    <       0.67376191 Ry

     iteration #  4     ecut=    50.00 Ry     beta= 0.30
     Davidson diagonalization with overlap
     ethr =  1.61E-03,  avg # of iterations =  1.0

     total cpu time spent up to now is       27.1 secs

     total energy              =    -334.11163995 Ry
     estimated scf accuracy    <       0.65452362 Ry

     iteration #  5     ecut=    50.00 Ry     beta= 0.30
     Davidson diagonalization with overlap
     ethr =  1.61E-03,  avg # of iterations =  1.0

     total cpu time spent up to now is       30.8 secs

     total energy              =    -333.57003979 Ry
     estimated scf accuracy    <       0.73524537 Ry

     iteration #  6     ecut=    50.00 Ry     beta= 0.30
     Davidson diagonalization with overlap
     ethr =  1.61E-03,  avg # of iterations =  6.5

     total cpu time spent up to now is       38.3 secs

     total energy              =    -333.96909826 Ry
     estimated scf accuracy    <       0.62904312 Ry

     iteration #  7     ecut=    50.00 Ry     beta= 0.30
     Davidson diagonalization with overlap
     ethr =  1.61E-03,  avg # of iterations =  1.0

     total cpu time spent up to now is       42.0 secs

     total energy              =    -333.76073887 Ry
     estimated scf accuracy    <       0.33501958 Ry

     iteration #  8     ecut=    50.00 Ry     beta= 0.30
     Davidson diagonalization with overlap
     ethr =  9.31E-04,  avg # of iterations =  5.2

     total cpu time spent up to now is       48.2 secs

     total energy              =    -333.93442014 Ry
     estimated scf accuracy    <       0.15176515 Ry

     iteration #  9     ecut=    50.00 Ry     beta= 0.30
     Davidson diagonalization with overlap
     ethr =  4.22E-04,  avg # of iterations =  1.1

     total cpu time spent up to now is       51.8 secs

     total energy              =    -333.88574317 Ry
     estimated scf accuracy    <       0.10614347 Ry

     iteration # 10     ecut=    50.00 Ry     beta= 0.30
     Davidson diagonalization with overlap
     ethr =  2.95E-04,  avg # of iterations =  5.1

     total cpu time spent up to now is       57.5 secs

     total energy              =    -333.92671702 Ry
     estimated scf accuracy    <       0.00266677 Ry

     iteration # 11     ecut=    50.00 Ry     beta= 0.30
     Davidson diagonalization with overlap
     c_bands:  1 eigenvalues not converged
     ethr =  7.41E-06,  avg # of iterations =  9.8

     total cpu time spent up to now is       69.7 secs

     total energy              =    -333.90720186 Ry
     estimated scf accuracy    <       0.08977018 Ry

     iteration # 12     ecut=    50.00 Ry     beta= 0.30
     Davidson diagonalization with overlap
     c_bands:  1 eigenvalues not converged
     ethr =  7.41E-06,  avg # of iterations =  8.9

     total cpu time spent up to now is       80.9 secs

     total energy              =    -333.91985463 Ry
     estimated scf accuracy    <       0.00201183 Ry

     iteration # 13     ecut=    50.00 Ry     beta= 0.30
     Davidson diagonalization with overlap
     ethr =  5.59E-06,  avg # of iterations =  1.1

     total cpu time spent up to now is       84.5 secs

     total energy              =    -333.91958324 Ry
     estimated scf accuracy    <       0.00204433 Ry

     iteration # 14     ecut=    50.00 Ry     beta= 0.30
     Davidson diagonalization with overlap
     ethr =  5.59E-06,  avg # of iterations =  1.3

     total cpu time spent up to now is       88.3 secs

     total energy              =    -333.91936589 Ry
     estimated scf accuracy    <       0.00132344 Ry

     iteration # 15     ecut=    50.00 Ry     beta= 0.30
     Davidson diagonalization with overlap
     ethr =  3.68E-06,  avg # of iterations =  2.5

     total cpu time spent up to now is       92.6 secs

     total energy              =    -333.91943283 Ry
     estimated scf accuracy    <       0.00053685 Ry

     iteration # 16     ecut=    50.00 Ry     beta= 0.30
     Davidson diagonalization with overlap
     ethr =  1.49E-06,  avg # of iterations =  3.5

     total cpu time spent up to now is       97.0 secs

     total energy              =    -333.91936067 Ry
     estimated scf accuracy    <       0.00033407 Ry

     iteration # 17     ecut=    50.00 Ry     beta= 0.30
     Davidson diagonalization with overlap
     ethr =  9.28E-07,  avg # of iterations =  5.4

     total cpu time spent up to now is      102.7 secs

     total energy              =    -333.91946699 Ry
     estimated scf accuracy    <       0.00003635 Ry

     iteration # 18     ecut=    50.00 Ry     beta= 0.30
     Davidson diagonalization with overlap
     ethr =  1.01E-07,  avg # of iterations =  4.3

     total cpu time spent up to now is      108.0 secs

     total energy              =    -333.91947142 Ry
     estimated scf accuracy    <       0.00003919 Ry

     iteration # 19     ecut=    50.00 Ry     beta= 0.30
     Davidson diagonalization with overlap
     ethr =  1.01E-07,  avg # of iterations =  7.6

     total cpu time spent up to now is      117.5 secs

     total energy              =    -333.91950769 Ry
     estimated scf accuracy    <       0.00029611 Ry

     iteration # 20     ecut=    50.00 Ry     beta= 0.30
     Davidson diagonalization with overlap
     ethr =  1.01E-07,  avg # of iterations =  2.0

     total cpu time spent up to now is      121.5 secs

     total energy              =    -333.91940422 Ry
     estimated scf accuracy    <       0.00021372 Ry

     iteration # 21     ecut=    50.00 Ry     beta= 0.30
     Davidson diagonalization with overlap
     ethr =  1.01E-07,  avg # of iterations =  7.6

     total cpu time spent up to now is      130.6 secs

     total energy              =    -333.91946342 Ry
     estimated scf accuracy    <       0.00002593 Ry

     iteration # 22     ecut=    50.00 Ry     beta= 0.30
     Davidson diagonalization with overlap
     ethr =  7.20E-08,  avg # of iterations =  2.4

     total cpu time spent up to now is      134.8 secs

     total energy              =    -333.91946344 Ry
     estimated scf accuracy    <       0.00000631 Ry

     iteration # 23     ecut=    50.00 Ry     beta= 0.30
     Davidson diagonalization with overlap
     ethr =  1.75E-08,  avg # of iterations =  7.3

     total cpu time spent up to now is      143.8 secs

     total energy              =    -333.91946564 Ry
     estimated scf accuracy    <       0.00002538 Ry

     iteration # 24     ecut=    50.00 Ry     beta= 0.30
     Davidson diagonalization with overlap
     ethr =  1.75E-08,  avg # of iterations =  4.8

     total cpu time spent up to now is      149.5 secs

     total energy              =    -333.91946499 Ry
     estimated scf accuracy    <       0.00000477 Ry

     iteration # 25     ecut=    50.00 Ry     beta= 0.30
     Davidson diagonalization with overlap
     ethr =  1.33E-08,  avg # of iterations =  5.6

     total cpu time spent up to now is      155.2 secs

     total energy              =    -333.91946676 Ry
     estimated scf accuracy    <       0.00000031 Ry

     iteration # 26     ecut=    50.00 Ry     beta= 0.30
     Davidson diagonalization with overlap
     ethr =  8.54E-10,  avg # of iterations =  5.5

     total cpu time spent up to now is      161.6 secs

     total energy              =    -333.91946648 Ry
     estimated scf accuracy    <       0.00000096 Ry

     iteration # 27     ecut=    50.00 Ry     beta= 0.30
     Davidson diagonalization with overlap
     ethr =  8.54E-10,  avg # of iterations =  5.3

     total cpu time spent up to now is      168.1 secs

     End of self-consistent calculation

     Number of k-points >= 100: set verbosity='high' to print the bands.

     highest occupied level (ev):    12.7598

!    total energy              =    -333.91946666 Ry
     estimated scf accuracy    <          2.8E-09 Ry

     The total energy is the sum of the following terms:
     one-electron contribution =    -269.14731115 Ry
     hartree contribution      =     170.86621777 Ry
     xc contribution           =    -114.31606524 Ry
     ewald contribution        =    -121.32230805 Ry

     convergence has been achieved in  27 iterations

     Forces acting on atoms (cartesian axes, Ry/au):

     atom    1 type  1   force =   -24.51226733   53.27349486   20.61987964
     atom    2 type  1   force =     0.01158159    0.00302540    0.01718231
     atom    3 type  2   force =    29.08604751  -55.31974549  -17.11927808
     atom    4 type  2   force =    -4.58536177    2.04322523   -3.51778387
     The non-local contrib.  to forces
     atom    1 type  1   force =    11.27151832  -22.69588990   -7.82195820
     atom    2 type  1   force =     0.00016314    0.05670097    0.12388312
     atom    3 type  2   force =    -3.26745833    6.13868575    1.99945544
     atom    4 type  2   force =     1.57249970   -1.32093536    0.51207197
     The ionic contribution  to forces
     atom    1 type  1   force =   -34.87685764   96.74982527   54.80133009
     atom    2 type  1   force =    -0.15442355   -0.13720951   -1.47930932
     atom    3 type  2   force =    58.33074026 -108.00958289  -30.33401298
     atom    4 type  2   force =   -23.29945907   11.39696714  -22.98800780
     The local contribution  to forces
     atom    1 type  1   force =    -1.38817146  -19.52010187  -25.76540590
     atom    2 type  1   force =     0.16474624    0.08448296    1.37551852
     atom    3 type  2   force =   -25.88377329   46.37525691   11.16269536
     atom    4 type  2   force =    17.14112791   -8.03715739   18.95163196
     The core correction contribution to forces
     atom    1 type  1   force =     0.48139819   -1.26044422   -0.59406010
     atom    2 type  1   force =     0.00099038   -0.00081582   -0.00292144
     atom    3 type  2   force =    -0.09346536    0.17596384    0.05266269
     atom    4 type  2   force =     0.00051458    0.00436040    0.00662073
     The Hubbard contrib.    to forces
     atom    1 type  1   force =     0.00000000    0.00000000    0.00000000
     atom    2 type  1   force =     0.00000000    0.00000000    0.00000000
     atom    3 type  2   force =     0.00000000    0.00000000    0.00000000
     atom    4 type  2   force =     0.00000000    0.00000000    0.00000000
     The SCF correction term to forces
     atom    1 type  1   force =    -0.00015022    0.00011532    0.00002473
     atom    2 type  1   force =     0.00010991   -0.00012347    0.00006242
     atom    3 type  2   force =     0.00000874   -0.00005937   -0.00002761
     atom    4 type  2   force =    -0.00004036    0.00000018   -0.00004975

     Total force =    90.005631     Total SCF correction =     0.000276

     Writing all to output data dir ./ZnO_ANN.save/

     init_run     :      2.83s CPU      2.93s WALL (       1 calls)
     electrons    :    161.47s CPU    164.71s WALL (       1 calls)
     forces       :      0.88s CPU      0.89s WALL (       1 calls)

     Called by init_run:
     wfcinit      :      2.05s CPU      2.11s WALL (       1 calls)
     potinit      :      0.17s CPU      0.17s WALL (       1 calls)
     hinit0       :      0.54s CPU      0.56s WALL (       1 calls)

     Called by electrons:
     c_bands      :    144.69s CPU    147.47s WALL (      27 calls)
     sum_band     :     14.92s CPU     15.33s WALL (      27 calls)
     v_of_rho     :      0.42s CPU      0.45s WALL (      28 calls)
     newd         :      1.38s CPU      1.40s WALL (      28 calls)
     mix_rho      :      0.07s CPU      0.07s WALL (      27 calls)

     Called by c_bands:
     init_us_2    :      1.07s CPU      1.08s WALL (    6272 calls)
     init_us_2:cp :      1.05s CPU      1.07s WALL (    6272 calls)
     cegterg      :    140.84s CPU    143.57s WALL (    3024 calls)

     Called by *egterg:
     cdiaghg      :     16.49s CPU     16.61s WALL (   16419 calls)
     h_psi        :     75.92s CPU     77.92s WALL (   16531 calls)
     s_psi        :      8.50s CPU      8.58s WALL (   16531 calls)
     g_psi        :      0.31s CPU      0.31s WALL (   13395 calls)

     Called by h_psi:
     h_psi:calbec :     12.22s CPU     12.63s WALL (   16531 calls)
     vloc_psi     :     54.99s CPU     56.49s WALL (   16531 calls)
     add_vuspsi   :      8.46s CPU      8.55s WALL (   16531 calls)

     General routines
     calbec       :     16.36s CPU     16.91s WALL (   20003 calls)
     fft          :      0.75s CPU      0.79s WALL (     373 calls)
     ffts         :      0.06s CPU      0.06s WALL (      55 calls)
     fftw         :     56.06s CPU     57.58s WALL (  410074 calls)
     interpolate  :      0.07s CPU      0.07s WALL (      28 calls)

     Parallel routines

     PWSCF        :   2m45.89s CPU   2m49.36s WALL


   This run was terminated on:  12:33:32  23Jun2025            

=------------------------------------------------------------------------------=
   JOB DONE.
=------------------------------------------------------------------------------=
Note: The following floating-point exceptions are signalling: IEEE_INVALID_FLAG
