
     Program PWSCF v.7.2 starts on 23Jun2025 at 12:16:30 

     This program is part of the open-source Quantum ESPRESSO suite
     for quantum simulation of materials; please cite
         "P. Giannozzi et al., J. Phys.:Condens. Matter 21 395502 (2009);
         "P. Giannozzi et al., J. Phys.:Condens. Matter 29 465901 (2017);
         "P. Giannozzi et al., J. Chem. Phys. 152 154105 (2020);
          URL http://www.quantum-espresso.org", 
     in publications or presentations arising from this work. More details at
     http://www.quantum-espresso.org/quote

     Parallel version (MPI), running on     8 processors

     MPI processes distributed on     1 nodes
     91453 MiB available memory on the printing compute node when the environment starts

     Reading input from /home/jvc/QEspresso7.2/ZnO_DataBase/scfs_rnd025.in/scf-5.68-1.58-2.in

     Current dimensions of program PWSCF are:
     Max number of different atomic species (ntypx) = 10
     Max number of k-points (npk) =  40000
     Max angular momentum in pseudopotentials (lmaxx) =  4
     file Zn.upf: wavefunction(s)  3D renormalized

     R & G space division:  proc/nbgrp/npool/nimage =       8
     Subspace diagonalization in iterative solution of the eigenvalue problem:
     a serial algorithm will be used


     Parallelization info
     --------------------
     sticks:   dense  smooth     PW     G-vecs:    dense   smooth      PW
     Min         111      54     16                 4237     1496     257
     Max         112      55     18                 4242     1503     260
     Sum         889     439    139                33909    11999    2069

     Using Slab Decomposition



     bravais-lattice index     =            4
     lattice parameter (alat)  =       5.6845  a.u.
     unit-cell volume          =     251.6733 (a.u.)^3
     number of atoms/cell      =            4
     number of atomic types    =            2
     number of electrons       =        36.00
     number of Kohn-Sham states=           18
     kinetic-energy cutoff     =      50.0000  Ry
     charge density cutoff     =     400.0000  Ry
     scf convergence threshold =      1.0E-08
     mixing beta               =       0.3000
     number of iterations used =            8  plain     mixing
     Exchange-correlation= PBE
                           (   1   4   3   4   0   0   0)

     celldm(1)=   5.684516  celldm(2)=   0.000000  celldm(3)=   1.582071
     celldm(4)=   0.000000  celldm(5)=   0.000000  celldm(6)=   0.000000

     crystal axes: (cart. coord. in units of alat)
               a(1) = (   1.000000   0.000000   0.000000 )  
               a(2) = (  -0.500000   0.866025   0.000000 )  
               a(3) = (   0.000000   0.000000   1.582071 )  

     reciprocal axes: (cart. coord. in units 2 pi/alat)
               b(1) = (  1.000000  0.577350 -0.000000 )  
               b(2) = (  0.000000  1.154701  0.000000 )  
               b(3) = (  0.000000 -0.000000  0.632083 )  


     PseudoPot. # 1 for Zn read from file:
     ./pseudos/Zn.upf
     MD5 check sum: 7f56cabf9682ed8c977c2f7d0c5985c5
     Pseudo is Ultrasoft + core correction, Zval = 12.0
     Generated using &quot;atomic&quot; code by A. Dal Corso  v.6.2.2
     Using radial grid of 1201 points,  6 beta functions with: 
                l(1) =   0
                l(2) =   0
                l(3) =   1
                l(4) =   1
                l(5) =   2
                l(6) =   2
     Q(r) pseudized with 0 coefficients 


     PseudoPot. # 2 for O  read from file:
     ./pseudos/O.upf
     MD5 check sum: 91400c9766925bcf19f520983a725ff0
     Pseudo is Ultrasoft + core correction, Zval =  6.0
     Generated using &quot;atomic&quot; code by A. Dal Corso  v.6.3MaX
     Using radial grid of 1095 points,  4 beta functions with: 
                l(1) =   0
                l(2) =   0
                l(3) =   1
                l(4) =   1
     Q(r) pseudized with 0 coefficients 


     atomic species   valence    mass     pseudopotential
        Zn            12.00    63.38000     Zn( 1.00)
        O              6.00    15.99900     O ( 1.00)

     No symmetry found



   Cartesian axes

     site n.     atom                  positions (alat units)
         1           Zn  tau(   1) = (   0.5143831   0.1398770   0.6396319  )
         2           Zn  tau(   2) = (   0.2261796   0.3720507  -0.2524584  )
         3           O   tau(   3) = (   0.4691893   0.2622162   1.0306818  )
         4           O   tau(   4) = (  -0.2875270   0.7047428   0.4650893  )

     number of k points=   112

     Number of k-points >= 100: set verbosity='high' to print them.

     Dense  grid:    33909 G-vectors     FFT dimensions: (  40,  40,  60)

     Smooth grid:    11999 G-vectors     FFT dimensions: (  25,  25,  45)

     Estimated max dynamical RAM per process >      24.24 MB

     Estimated total dynamical RAM >     193.94 MB

     Check: negative core charge=   -0.000002

     Initial potential from superposition of free atoms

     starting charge      35.9925, renormalised to      36.0000
     Starting wfcs are   26 randomized atomic wfcs

     total cpu time spent up to now is        3.2 secs

     Self-consistent Calculation

     iteration #  1     ecut=    50.00 Ry     beta= 0.30
     Davidson diagonalization with overlap
     ethr =  1.00E-02,  avg # of iterations =  3.0

     total cpu time spent up to now is        7.9 secs

     total energy              =    -358.95798825 Ry
     estimated scf accuracy    <       1.74617049 Ry

     iteration #  2     ecut=    50.00 Ry     beta= 0.30
     Davidson diagonalization with overlap
     ethr =  4.85E-03,  avg # of iterations =  2.0

     total cpu time spent up to now is       12.1 secs

     total energy              =    -358.93406682 Ry
     estimated scf accuracy    <       0.36393914 Ry

     iteration #  3     ecut=    50.00 Ry     beta= 0.30
     Davidson diagonalization with overlap
     ethr =  1.01E-03,  avg # of iterations =  8.8

     total cpu time spent up to now is       21.8 secs

     total energy              =    -359.30691685 Ry
     estimated scf accuracy    <       0.82601681 Ry

     iteration #  4     ecut=    50.00 Ry     beta= 0.30
     Davidson diagonalization with overlap
     ethr =  1.01E-03,  avg # of iterations =  1.8

     total cpu time spent up to now is       25.5 secs

     total energy              =    -359.03549083 Ry
     estimated scf accuracy    <       0.46094874 Ry

     iteration #  5     ecut=    50.00 Ry     beta= 0.30
     Davidson diagonalization with overlap
     ethr =  1.01E-03,  avg # of iterations =  7.6

     total cpu time spent up to now is       34.2 secs

     total energy              =    -359.26179396 Ry
     estimated scf accuracy    <       0.37650144 Ry

     iteration #  6     ecut=    50.00 Ry     beta= 0.30
     Davidson diagonalization with overlap
     ethr =  1.01E-03,  avg # of iterations =  1.6

     total cpu time spent up to now is       37.9 secs

     total energy              =    -359.21746996 Ry
     estimated scf accuracy    <       0.13809246 Ry

     iteration #  7     ecut=    50.00 Ry     beta= 0.30
     Davidson diagonalization with overlap
     ethr =  3.84E-04,  avg # of iterations =  6.4

     total cpu time spent up to now is       44.3 secs

     total energy              =    -359.28636563 Ry
     estimated scf accuracy    <       0.06109638 Ry

     iteration #  8     ecut=    50.00 Ry     beta= 0.30
     Davidson diagonalization with overlap
     ethr =  1.70E-04,  avg # of iterations =  2.9

     total cpu time spent up to now is       48.7 secs

     total energy              =    -359.25068486 Ry
     estimated scf accuracy    <       0.06181331 Ry

     iteration #  9     ecut=    50.00 Ry     beta= 0.30
     Davidson diagonalization with overlap
     c_bands:  1 eigenvalues not converged
     ethr =  1.70E-04,  avg # of iterations =  7.9

     total cpu time spent up to now is       56.1 secs

     total energy              =    -359.26359590 Ry
     estimated scf accuracy    <       0.08916631 Ry

     iteration # 10     ecut=    50.00 Ry     beta= 0.30
     Davidson diagonalization with overlap
     ethr =  1.70E-04,  avg # of iterations =  4.8

     total cpu time spent up to now is       61.1 secs

     total energy              =    -359.27834175 Ry
     estimated scf accuracy    <       0.00161086 Ry

     iteration # 11     ecut=    50.00 Ry     beta= 0.30
     Davidson diagonalization with overlap
     c_bands:  1 eigenvalues not converged
     c_bands:  1 eigenvalues not converged
     c_bands:  1 eigenvalues not converged
     c_bands:  1 eigenvalues not converged
     ethr =  4.47E-06,  avg # of iterations = 10.6

     total cpu time spent up to now is       71.0 secs

     total energy              =    -359.28025715 Ry
     estimated scf accuracy    <       0.00655830 Ry

     iteration # 12     ecut=    50.00 Ry     beta= 0.30
     Davidson diagonalization with overlap
     c_bands:  1 eigenvalues not converged
     ethr =  4.47E-06,  avg # of iterations =  7.8

     total cpu time spent up to now is       77.9 secs

     total energy              =    -359.28142256 Ry
     estimated scf accuracy    <       0.00042835 Ry

     iteration # 13     ecut=    50.00 Ry     beta= 0.30
     Davidson diagonalization with overlap
     ethr =  1.19E-06,  avg # of iterations =  3.2

     total cpu time spent up to now is       82.3 secs

     total energy              =    -359.28133336 Ry
     estimated scf accuracy    <       0.00020269 Ry

     iteration # 14     ecut=    50.00 Ry     beta= 0.30
     Davidson diagonalization with overlap
     c_bands:  1 eigenvalues not converged
     ethr =  5.63E-07,  avg # of iterations =  8.4

     total cpu time spent up to now is       90.7 secs

     total energy              =    -359.28145843 Ry
     estimated scf accuracy    <       0.00048709 Ry

     iteration # 15     ecut=    50.00 Ry     beta= 0.30
     Davidson diagonalization with overlap
     ethr =  5.63E-07,  avg # of iterations =  2.5

     total cpu time spent up to now is       94.6 secs

     total energy              =    -359.28146413 Ry
     estimated scf accuracy    <       0.00020375 Ry

     iteration # 16     ecut=    50.00 Ry     beta= 0.30
     Davidson diagonalization with overlap
     ethr =  5.63E-07,  avg # of iterations =  2.8

     total cpu time spent up to now is       98.9 secs

     total energy              =    -359.28149939 Ry
     estimated scf accuracy    <       0.00015550 Ry

     iteration # 17     ecut=    50.00 Ry     beta= 0.30
     Davidson diagonalization with overlap
     ethr =  4.32E-07,  avg # of iterations =  1.6

     total cpu time spent up to now is      102.6 secs

     total energy              =    -359.28147686 Ry
     estimated scf accuracy    <       0.00018459 Ry

     iteration # 18     ecut=    50.00 Ry     beta= 0.30
     Davidson diagonalization with overlap
     ethr =  4.32E-07,  avg # of iterations =  1.2

     total cpu time spent up to now is      106.1 secs

     total energy              =    -359.28146444 Ry
     estimated scf accuracy    <       0.00012321 Ry

     iteration # 19     ecut=    50.00 Ry     beta= 0.30
     Davidson diagonalization with overlap
     ethr =  3.42E-07,  avg # of iterations =  2.0

     total cpu time spent up to now is      109.9 secs

     total energy              =    -359.28144793 Ry
     estimated scf accuracy    <       0.00005956 Ry

     iteration # 20     ecut=    50.00 Ry     beta= 0.30
     Davidson diagonalization with overlap
     c_bands:  1 eigenvalues not converged
     ethr =  1.65E-07,  avg # of iterations =  7.0

     total cpu time spent up to now is      115.7 secs

     total energy              =    -359.28147069 Ry
     estimated scf accuracy    <       0.00001571 Ry

     iteration # 21     ecut=    50.00 Ry     beta= 0.30
     Davidson diagonalization with overlap
     ethr =  4.36E-08,  avg # of iterations =  2.2

     total cpu time spent up to now is      119.7 secs

     total energy              =    -359.28146834 Ry
     estimated scf accuracy    <       0.00000717 Ry

     iteration # 22     ecut=    50.00 Ry     beta= 0.30
     Davidson diagonalization with overlap
     c_bands:  1 eigenvalues not converged
     ethr =  1.99E-08,  avg # of iterations =  8.2

     total cpu time spent up to now is      127.2 secs

     total energy              =    -359.28146933 Ry
     estimated scf accuracy    <       0.00001778 Ry

     iteration # 23     ecut=    50.00 Ry     beta= 0.30
     Davidson diagonalization with overlap
     ethr =  1.99E-08,  avg # of iterations =  6.0

     total cpu time spent up to now is      132.8 secs

     total energy              =    -359.28147143 Ry
     estimated scf accuracy    <       0.00000052 Ry

     iteration # 24     ecut=    50.00 Ry     beta= 0.30
     Davidson diagonalization with overlap
     c_bands:  1 eigenvalues not converged
     ethr =  1.45E-09,  avg # of iterations =  9.0

     total cpu time spent up to now is      140.8 secs

     total energy              =    -359.28147185 Ry
     estimated scf accuracy    <       0.00000067 Ry

     iteration # 25     ecut=    50.00 Ry     beta= 0.30
     Davidson diagonalization with overlap
     ethr =  1.45E-09,  avg # of iterations =  3.3

     total cpu time spent up to now is      145.1 secs

     total energy              =    -359.28147193 Ry
     estimated scf accuracy    <       0.00000010 Ry

     iteration # 26     ecut=    50.00 Ry     beta= 0.30
     Davidson diagonalization with overlap
     ethr =  2.83E-10,  avg # of iterations =  5.5

     total cpu time spent up to now is      151.0 secs

     total energy              =    -359.28147198 Ry
     estimated scf accuracy    <       0.00000009 Ry

     iteration # 27     ecut=    50.00 Ry     beta= 0.30
     Davidson diagonalization with overlap
     ethr =  2.60E-10,  avg # of iterations =  3.7

     total cpu time spent up to now is      155.4 secs

     total energy              =    -359.28147193 Ry
     estimated scf accuracy    <       0.00000015 Ry

     iteration # 28     ecut=    50.00 Ry     beta= 0.30
     Davidson diagonalization with overlap
     ethr =  2.60E-10,  avg # of iterations =  4.1

     total cpu time spent up to now is      160.0 secs

     total energy              =    -359.28147195 Ry
     estimated scf accuracy    <       0.00000001 Ry

     iteration # 29     ecut=    50.00 Ry     beta= 0.30
     Davidson diagonalization with overlap
     c_bands:  1 eigenvalues not converged
     c_bands:  1 eigenvalues not converged
     c_bands:  1 eigenvalues not converged
     ethr =  3.74E-11,  avg # of iterations = 11.1

     total cpu time spent up to now is      169.7 secs

     total energy              =    -359.28147197 Ry
     estimated scf accuracy    <       0.00000009 Ry

     iteration # 30     ecut=    50.00 Ry     beta= 0.30
     Davidson diagonalization with overlap
     ethr =  3.74E-11,  avg # of iterations =  1.3

     total cpu time spent up to now is      173.0 secs

     total energy              =    -359.28147194 Ry
     estimated scf accuracy    <       0.00000008 Ry

     iteration # 31     ecut=    50.00 Ry     beta= 0.30
     Davidson diagonalization with overlap
     ethr =  3.74E-11,  avg # of iterations =  8.1

     total cpu time spent up to now is      180.1 secs

     End of self-consistent calculation

     Number of k-points >= 100: set verbosity='high' to print the bands.

     highest occupied level (ev):    13.3542

!    total energy              =    -359.28147195 Ry
     estimated scf accuracy    <          5.7E-10 Ry

     The total energy is the sum of the following terms:
     one-electron contribution =    -168.16727235 Ry
     hartree contribution      =     128.36495889 Ry
     xc contribution           =    -110.96728946 Ry
     ewald contribution        =    -208.51186904 Ry

     convergence has been achieved in  31 iterations

     Forces acting on atoms (cartesian axes, Ry/au):

     atom    1 type  1   force =     0.95961805   -0.03231607   -1.87113970
     atom    2 type  1   force =    -1.62910660    0.74904008    2.12239642
     atom    3 type  2   force =     1.36311403   -0.02478999    0.32266717
     atom    4 type  2   force =    -0.69362547   -0.69193402   -0.57392389
     The non-local contrib.  to forces
     atom    1 type  1   force =     0.59456858    0.27393689   -0.09630043
     atom    2 type  1   force =    -0.69485654    0.30369804    0.59215883
     atom    3 type  2   force =    -0.37112931    0.04501799    0.31131621
     atom    4 type  2   force =     0.44936185    0.17856455    0.15382800
     The ionic contribution  to forces
     atom    1 type  1   force =    10.12392668   -1.02541338  -22.38780964
     atom    2 type  1   force =   -13.27603705    6.47507700   28.48955069
     atom    3 type  2   force =     9.98999842    0.27934653    6.94287565
     atom    4 type  2   force =    -6.83788806   -5.72901015  -13.04461671
     The local contribution  to forces
     atom    1 type  1   force =    -9.62668927    0.73354994   20.45240455
     atom    2 type  1   force =    12.17477181   -5.95226593  -26.75495915
     atom    3 type  2   force =    -8.25297727   -0.34884198   -6.92751375
     atom    4 type  2   force =     5.69573979    4.85703068   12.31490993
     The core correction contribution to forces
     atom    1 type  1   force =    -0.13218267   -0.01440092    0.16048593
     atom    2 type  1   force =     0.16698948   -0.07745658   -0.20424868
     atom    3 type  2   force =    -0.00277736   -0.00030804   -0.00394685
     atom    4 type  2   force =    -0.00084118    0.00147868    0.00190192
     The Hubbard contrib.    to forces
     atom    1 type  1   force =     0.00000000    0.00000000    0.00000000
     atom    2 type  1   force =     0.00000000    0.00000000    0.00000000
     atom    3 type  2   force =     0.00000000    0.00000000    0.00000000
     atom    4 type  2   force =     0.00000000    0.00000000    0.00000000
     The SCF correction term to forces
     atom    1 type  1   force =    -0.00000224    0.00001205    0.00008333
     atom    2 type  1   force =     0.00002873   -0.00001179   -0.00010182
     atom    3 type  2   force =     0.00000259   -0.00000384   -0.00006064
     atom    4 type  2   force =     0.00000516    0.00000287    0.00005642

     Total force =     3.923618     Total SCF correction =     0.000159

     Writing all to output data dir ./ZnO_ANN.save/

     init_run     :      2.66s CPU      2.74s WALL (       1 calls)
     electrons    :    173.24s CPU    176.94s WALL (       1 calls)
     forces       :      0.84s CPU      0.86s WALL (       1 calls)

     Called by init_run:
     wfcinit      :      1.91s CPU      1.96s WALL (       1 calls)
     potinit      :      0.17s CPU      0.17s WALL (       1 calls)
     hinit0       :      0.52s CPU      0.53s WALL (       1 calls)

     Called by electrons:
     c_bands      :    155.23s CPU    158.47s WALL (      31 calls)
     sum_band     :     16.16s CPU     16.58s WALL (      31 calls)
     v_of_rho     :      0.43s CPU      0.46s WALL (      32 calls)
     newd         :      1.36s CPU      1.38s WALL (      32 calls)
     mix_rho      :      0.07s CPU      0.07s WALL (      31 calls)

     Called by c_bands:
     init_us_2    :      1.13s CPU      1.14s WALL (    7168 calls)
     init_us_2:cp :      1.11s CPU      1.13s WALL (    7168 calls)
     cegterg      :    151.36s CPU    154.53s WALL (    3472 calls)

     Called by *egterg:
     cdiaghg      :     21.04s CPU     21.23s WALL (   20976 calls)
     h_psi        :     81.68s CPU     83.98s WALL (   21088 calls)
     s_psi        :      8.72s CPU      8.83s WALL (   21088 calls)
     g_psi        :      0.31s CPU      0.31s WALL (   17504 calls)

     Called by h_psi:
     h_psi:calbec :     12.20s CPU     12.71s WALL (   21088 calls)
     vloc_psi     :     60.39s CPU     62.07s WALL (   21088 calls)
     add_vuspsi   :      8.80s CPU      8.92s WALL (   21088 calls)

     General routines
     calbec       :     16.37s CPU     17.03s WALL (   25008 calls)
     fft          :      0.64s CPU      0.67s WALL (     425 calls)
     ffts         :      0.06s CPU      0.06s WALL (      63 calls)
     fftw         :     61.92s CPU     63.62s WALL (  458784 calls)
     interpolate  :      0.07s CPU      0.07s WALL (      32 calls)

     Parallel routines

     PWSCF        :   2m57.44s CPU   3m 1.40s WALL


   This run was terminated on:  12:19:31  23Jun2025            

=------------------------------------------------------------------------------=
   JOB DONE.
=------------------------------------------------------------------------------=
Note: The following floating-point exceptions are signalling: IEEE_INVALID_FLAG
