
     Program PWSCF v.7.2 starts on 23Jun2025 at 15:46:25 

     This program is part of the open-source Quantum ESPRESSO suite
     for quantum simulation of materials; please cite
         "P. Giannozzi et al., J. Phys.:Condens. Matter 21 395502 (2009);
         "P. Giannozzi et al., J. Phys.:Condens. Matter 29 465901 (2017);
         "P. Giannozzi et al., J. Chem. Phys. 152 154105 (2020);
          URL http://www.quantum-espresso.org", 
     in publications or presentations arising from this work. More details at
     http://www.quantum-espresso.org/quote

     Parallel version (MPI), running on     8 processors

     MPI processes distributed on     1 nodes
     90940 MiB available memory on the printing compute node when the environment starts

     Reading input from /home/jvc/QEspresso7.2/ZnO_DataBase/scfs_rnd025.in/scf-6.43-1.49-4.in

     Current dimensions of program PWSCF are:
     Max number of different atomic species (ntypx) = 10
     Max number of k-points (npk) =  40000
     Max angular momentum in pseudopotentials (lmaxx) =  4
     file Zn.upf: wavefunction(s)  3D renormalized

     R & G space division:  proc/nbgrp/npool/nimage =       8
     Subspace diagonalization in iterative solution of the eigenvalue problem:
     a serial algorithm will be used


     Parallelization info
     --------------------
     sticks:   dense  smooth     PW     G-vecs:    dense   smooth      PW
     Min         143      71     20                 5777     2031     336
     Max         145      73     21                 5779     2034     343
     Sum        1147     571    163                46219    16261    2705

     Using Slab Decomposition



     bravais-lattice index     =            4
     lattice parameter (alat)  =       6.4260  a.u.
     unit-cell volume          =     341.2993 (a.u.)^3
     number of atoms/cell      =            4
     number of atomic types    =            2
     number of electrons       =        36.00
     number of Kohn-Sham states=           18
     kinetic-energy cutoff     =      50.0000  Ry
     charge density cutoff     =     400.0000  Ry
     scf convergence threshold =      1.0E-08
     mixing beta               =       0.3000
     number of iterations used =            8  plain     mixing
     Exchange-correlation= PBE
                           (   1   4   3   4   0   0   0)

     celldm(1)=   6.425974  celldm(2)=   0.000000  celldm(3)=   1.485210
     celldm(4)=   0.000000  celldm(5)=   0.000000  celldm(6)=   0.000000

     crystal axes: (cart. coord. in units of alat)
               a(1) = (   1.000000   0.000000   0.000000 )  
               a(2) = (  -0.500000   0.866025   0.000000 )  
               a(3) = (   0.000000   0.000000   1.485210 )  

     reciprocal axes: (cart. coord. in units 2 pi/alat)
               b(1) = (  1.000000  0.577350 -0.000000 )  
               b(2) = (  0.000000  1.154701  0.000000 )  
               b(3) = (  0.000000 -0.000000  0.673306 )  


     PseudoPot. # 1 for Zn read from file:
     ./pseudos/Zn.upf
     MD5 check sum: 7f56cabf9682ed8c977c2f7d0c5985c5
     Pseudo is Ultrasoft + core correction, Zval = 12.0
     Generated using &quot;atomic&quot; code by A. Dal Corso  v.6.2.2
     Using radial grid of 1201 points,  6 beta functions with: 
                l(1) =   0
                l(2) =   0
                l(3) =   1
                l(4) =   1
                l(5) =   2
                l(6) =   2
     Q(r) pseudized with 0 coefficients 


     PseudoPot. # 2 for O  read from file:
     ./pseudos/O.upf
     MD5 check sum: 91400c9766925bcf19f520983a725ff0
     Pseudo is Ultrasoft + core correction, Zval =  6.0
     Generated using &quot;atomic&quot; code by A. Dal Corso  v.6.3MaX
     Using radial grid of 1095 points,  4 beta functions with: 
                l(1) =   0
                l(2) =   0
                l(3) =   1
                l(4) =   1
     Q(r) pseudized with 0 coefficients 


     atomic species   valence    mass     pseudopotential
        Zn            12.00    63.38000     Zn( 1.00)
        O              6.00    15.99900     O ( 1.00)

     No symmetry found



   Cartesian axes

     site n.     atom                  positions (alat units)
         1           Zn  tau(   1) = (   0.5989365   0.1106110   0.9468155  )
         2           Zn  tau(   2) = (  -0.2189917   0.6919729  -0.2868314  )
         3           O   tau(   3) = (   0.7163384   0.0855042   1.2431515  )
         4           O   tau(   4) = (   0.1298499   0.5148190   0.8819042  )

     number of k points=   112

     Number of k-points >= 100: set verbosity='high' to print them.

     Dense  grid:    46219 G-vectors     FFT dimensions: (  45,  45,  64)

     Smooth grid:    16261 G-vectors     FFT dimensions: (  30,  30,  45)

     Estimated max dynamical RAM per process >      31.76 MB

     Estimated total dynamical RAM >     254.07 MB

     Check: negative core charge=   -0.000002

     Initial potential from superposition of free atoms

     starting charge      35.9925, renormalised to      36.0000
     Starting wfcs are   26 randomized atomic wfcs

     total cpu time spent up to now is        4.0 secs

     Self-consistent Calculation

     iteration #  1     ecut=    50.00 Ry     beta= 0.30
     Davidson diagonalization with overlap
     ethr =  1.00E-02,  avg # of iterations =  4.0

     total cpu time spent up to now is       10.5 secs

     total energy              =    -358.45134539 Ry
     estimated scf accuracy    <       1.69225767 Ry

     iteration #  2     ecut=    50.00 Ry     beta= 0.30
     Davidson diagonalization with overlap
     ethr =  4.70E-03,  avg # of iterations =  2.0

     total cpu time spent up to now is       16.4 secs

     total energy              =    -358.39350028 Ry
     estimated scf accuracy    <       0.38556648 Ry

     iteration #  3     ecut=    50.00 Ry     beta= 0.30
     Davidson diagonalization with overlap
     ethr =  1.07E-03,  avg # of iterations =  9.2

     total cpu time spent up to now is       28.6 secs

     total energy              =    -358.81327799 Ry
     estimated scf accuracy    <       0.97813258 Ry

     iteration #  4     ecut=    50.00 Ry     beta= 0.30
     Davidson diagonalization with overlap
     ethr =  1.07E-03,  avg # of iterations =  1.7

     total cpu time spent up to now is       33.7 secs

     total energy              =    -358.47663106 Ry
     estimated scf accuracy    <       0.58977292 Ry

     iteration #  5     ecut=    50.00 Ry     beta= 0.30
     Davidson diagonalization with overlap
     ethr =  1.07E-03,  avg # of iterations =  8.3

     total cpu time spent up to now is       45.7 secs

     total energy              =    -358.89993204 Ry
     estimated scf accuracy    <       0.32733387 Ry

     iteration #  6     ecut=    50.00 Ry     beta= 0.30
     Davidson diagonalization with overlap
     ethr =  9.09E-04,  avg # of iterations =  1.3

     total cpu time spent up to now is       50.6 secs

     total energy              =    -358.76500686 Ry
     estimated scf accuracy    <       0.41927714 Ry

     iteration #  7     ecut=    50.00 Ry     beta= 0.30
     Davidson diagonalization with overlap
     ethr =  9.09E-04,  avg # of iterations =  1.2

     total cpu time spent up to now is       55.5 secs

     total energy              =    -358.75181499 Ry
     estimated scf accuracy    <       0.17819671 Ry

     iteration #  8     ecut=    50.00 Ry     beta= 0.30
     Davidson diagonalization with overlap
     ethr =  4.95E-04,  avg # of iterations =  2.1

     total cpu time spent up to now is       61.3 secs

     total energy              =    -358.77455554 Ry
     estimated scf accuracy    <       0.06291819 Ry

     iteration #  9     ecut=    50.00 Ry     beta= 0.30
     Davidson diagonalization with overlap
     ethr =  1.75E-04,  avg # of iterations =  1.9

     total cpu time spent up to now is       66.4 secs

     total energy              =    -358.77670781 Ry
     estimated scf accuracy    <       0.05989645 Ry

     iteration # 10     ecut=    50.00 Ry     beta= 0.30
     Davidson diagonalization with overlap
     ethr =  1.66E-04,  avg # of iterations =  1.1

     total cpu time spent up to now is       71.3 secs

     total energy              =    -358.76686448 Ry
     estimated scf accuracy    <       0.05365247 Ry

     iteration # 11     ecut=    50.00 Ry     beta= 0.30
     Davidson diagonalization with overlap
     ethr =  1.49E-04,  avg # of iterations =  1.9

     total cpu time spent up to now is       76.6 secs

     total energy              =    -358.76034831 Ry
     estimated scf accuracy    <       0.02693774 Ry

     iteration # 12     ecut=    50.00 Ry     beta= 0.30
     Davidson diagonalization with overlap
     ethr =  7.48E-05,  avg # of iterations =  5.6

     total cpu time spent up to now is       83.6 secs

     total energy              =    -358.76753220 Ry
     estimated scf accuracy    <       0.00046218 Ry

     iteration # 13     ecut=    50.00 Ry     beta= 0.30
     Davidson diagonalization with overlap
     ethr =  1.28E-06,  avg # of iterations =  9.6

     total cpu time spent up to now is       98.3 secs

     total energy              =    -358.76934286 Ry
     estimated scf accuracy    <       0.00047610 Ry

     iteration # 14     ecut=    50.00 Ry     beta= 0.30
     Davidson diagonalization with overlap
     ethr =  1.28E-06,  avg # of iterations =  1.3

     total cpu time spent up to now is      103.3 secs

     total energy              =    -358.76940985 Ry
     estimated scf accuracy    <       0.00067034 Ry

     iteration # 15     ecut=    50.00 Ry     beta= 0.30
     Davidson diagonalization with overlap
     ethr =  1.28E-06,  avg # of iterations =  1.9

     total cpu time spent up to now is      108.5 secs

     total energy              =    -358.76963068 Ry
     estimated scf accuracy    <       0.00090760 Ry

     iteration # 16     ecut=    50.00 Ry     beta= 0.30
     Davidson diagonalization with overlap
     ethr =  1.28E-06,  avg # of iterations =  2.8

     total cpu time spent up to now is      114.4 secs

     total energy              =    -358.76949673 Ry
     estimated scf accuracy    <       0.00164470 Ry

     iteration # 17     ecut=    50.00 Ry     beta= 0.30
     Davidson diagonalization with overlap
     ethr =  1.28E-06,  avg # of iterations =  1.1

     total cpu time spent up to now is      119.3 secs

     total energy              =    -358.76934569 Ry
     estimated scf accuracy    <       0.00136613 Ry

     iteration # 18     ecut=    50.00 Ry     beta= 0.30
     Davidson diagonalization with overlap
     ethr =  1.28E-06,  avg # of iterations =  1.2

     total cpu time spent up to now is      124.2 secs

     total energy              =    -358.76920598 Ry
     estimated scf accuracy    <       0.00102986 Ry

     iteration # 19     ecut=    50.00 Ry     beta= 0.30
     Davidson diagonalization with overlap
     ethr =  1.28E-06,  avg # of iterations =  2.0

     total cpu time spent up to now is      129.5 secs

     total energy              =    -358.76917665 Ry
     estimated scf accuracy    <       0.00061346 Ry

     iteration # 20     ecut=    50.00 Ry     beta= 0.30
     Davidson diagonalization with overlap
     ethr =  1.28E-06,  avg # of iterations =  1.2

     total cpu time spent up to now is      134.3 secs

     total energy              =    -358.76913600 Ry
     estimated scf accuracy    <       0.00045369 Ry

     iteration # 21     ecut=    50.00 Ry     beta= 0.30
     Davidson diagonalization with overlap
     ethr =  1.26E-06,  avg # of iterations =  1.5

     total cpu time spent up to now is      139.2 secs

     total energy              =    -358.76904374 Ry
     estimated scf accuracy    <       0.00028797 Ry

     iteration # 22     ecut=    50.00 Ry     beta= 0.30
     Davidson diagonalization with overlap
     ethr =  8.00E-07,  avg # of iterations =  6.3

     total cpu time spent up to now is      146.7 secs

     total energy              =    -358.76914453 Ry
     estimated scf accuracy    <       0.00002491 Ry

     iteration # 23     ecut=    50.00 Ry     beta= 0.30
     Davidson diagonalization with overlap
     ethr =  6.92E-08,  avg # of iterations =  6.8

     total cpu time spent up to now is      155.0 secs

     total energy              =    -358.76915407 Ry
     estimated scf accuracy    <       0.00000873 Ry

     iteration # 24     ecut=    50.00 Ry     beta= 0.30
     Davidson diagonalization with overlap
     ethr =  2.42E-08,  avg # of iterations =  3.4

     total cpu time spent up to now is      160.9 secs

     total energy              =    -358.76915533 Ry
     estimated scf accuracy    <       0.00000326 Ry

     iteration # 25     ecut=    50.00 Ry     beta= 0.30
     Davidson diagonalization with overlap
     ethr =  9.06E-09,  avg # of iterations =  4.8

     total cpu time spent up to now is      167.4 secs

     total energy              =    -358.76915516 Ry
     estimated scf accuracy    <       0.00000344 Ry

     iteration # 26     ecut=    50.00 Ry     beta= 0.30
     Davidson diagonalization with overlap
     ethr =  9.06E-09,  avg # of iterations =  1.6

     total cpu time spent up to now is      172.4 secs

     total energy              =    -358.76915420 Ry
     estimated scf accuracy    <       0.00000177 Ry

     iteration # 27     ecut=    50.00 Ry     beta= 0.30
     Davidson diagonalization with overlap
     ethr =  4.91E-09,  avg # of iterations =  8.3

     total cpu time spent up to now is      182.6 secs

     total energy              =    -358.76915502 Ry
     estimated scf accuracy    <       0.00000257 Ry

     iteration # 28     ecut=    50.00 Ry     beta= 0.30
     Davidson diagonalization with overlap
     ethr =  4.91E-09,  avg # of iterations =  2.0

     total cpu time spent up to now is      187.9 secs

     total energy              =    -358.76915480 Ry
     estimated scf accuracy    <       0.00000090 Ry

     iteration # 29     ecut=    50.00 Ry     beta= 0.30
     Davidson diagonalization with overlap
     ethr =  2.49E-09,  avg # of iterations =  6.4

     total cpu time spent up to now is      196.3 secs

     total energy              =    -358.76915526 Ry
     estimated scf accuracy    <       0.00000020 Ry

     iteration # 30     ecut=    50.00 Ry     beta= 0.30
     Davidson diagonalization with overlap
     ethr =  5.59E-10,  avg # of iterations =  2.5

     total cpu time spent up to now is      201.7 secs

     total energy              =    -358.76915525 Ry
     estimated scf accuracy    <       0.00000009 Ry

     iteration # 31     ecut=    50.00 Ry     beta= 0.30
     Davidson diagonalization with overlap
     ethr =  2.45E-10,  avg # of iterations =  3.8

     total cpu time spent up to now is      207.9 secs

     total energy              =    -358.76915526 Ry
     estimated scf accuracy    <       0.00000001 Ry

     iteration # 32     ecut=    50.00 Ry     beta= 0.30
     Davidson diagonalization with overlap
     ethr =  3.86E-11,  avg # of iterations =  6.6

     total cpu time spent up to now is      217.2 secs

     End of self-consistent calculation

     Number of k-points >= 100: set verbosity='high' to print the bands.

     highest occupied level (ev):     9.3481

!    total energy              =    -358.76915527 Ry
     estimated scf accuracy    <          2.0E-09 Ry

     The total energy is the sum of the following terms:
     one-electron contribution =    -345.55785552 Ry
     hartree contribution      =     210.83624042 Ry
     xc contribution           =    -111.11817715 Ry
     ewald contribution        =    -112.92936302 Ry

     convergence has been achieved in  32 iterations

     Forces acting on atoms (cartesian axes, Ry/au):

     atom    1 type  1   force =    -1.46486120    1.23576999   -5.28651774
     atom    2 type  1   force =    -0.80512102   -0.44775784    0.61140937
     atom    3 type  2   force =     2.11251267   -0.18359963    5.08201202
     atom    4 type  2   force =     0.15746956   -0.60441251   -0.40690365
     The non-local contrib.  to forces
     atom    1 type  1   force =    -0.66617555    0.15774434   -0.23594309
     atom    2 type  1   force =    -0.24257056    0.30289385    0.02267897
     atom    3 type  2   force =    -0.47136650    0.23808605   -0.24870545
     atom    4 type  2   force =    -0.31857524    0.27665694   -0.05117749
     The ionic contribution  to forces
     atom    1 type  1   force =    -2.48946549   14.98824804  -49.08094758
     atom    2 type  1   force =   -15.89680600   -5.37056753   29.14775358
     atom    3 type  2   force =    14.00206973    0.60060842   39.18810290
     atom    4 type  2   force =     4.38420175  -10.21828892  -19.25490889
     The local contribution  to forces
     atom    1 type  1   force =     1.56938657  -13.80065621   43.65061471
     atom    2 type  1   force =    15.24662402    4.60301632  -28.50141558
     atom    3 type  2   force =   -11.41538207   -1.02045010  -33.84298144
     atom    4 type  2   force =    -3.90984664    9.33562359   18.89534428
     The core correction contribution to forces
     atom    1 type  1   force =     0.12142540   -0.10960435    0.37984986
     atom    2 type  1   force =     0.08767378    0.01689685   -0.05765479
     atom    3 type  2   force =    -0.00281940   -0.00185289   -0.01442371
     atom    4 type  2   force =     0.00168283    0.00160290    0.00383388
     The Hubbard contrib.    to forces
     atom    1 type  1   force =     0.00000000    0.00000000    0.00000000
     atom    2 type  1   force =     0.00000000    0.00000000    0.00000000
     atom    3 type  2   force =     0.00000000    0.00000000    0.00000000
     atom    4 type  2   force =     0.00000000    0.00000000    0.00000000
     The SCF correction term to forces
     atom    1 type  1   force =    -0.00004991    0.00004808   -0.00010342
     atom    2 type  1   force =    -0.00006004    0.00001258    0.00003541
     atom    3 type  2   force =    -0.00000688    0.00001880    0.00000794
     atom    4 type  2   force =    -0.00001092    0.00000289   -0.00000721

     Total force =     7.982587     Total SCF correction =     0.000145

     Writing all to output data dir ./ZnO_ANN.save/

     init_run     :      3.45s CPU      3.54s WALL (       1 calls)
     electrons    :    209.63s CPU    213.26s WALL (       1 calls)
     forces       :      1.07s CPU      1.08s WALL (       1 calls)

     Called by init_run:
     wfcinit      :      2.65s CPU      2.71s WALL (       1 calls)
     potinit      :      0.26s CPU      0.26s WALL (       1 calls)
     hinit0       :      0.44s CPU      0.45s WALL (       1 calls)

     Called by electrons:
     c_bands      :    182.86s CPU    185.92s WALL (      32 calls)
     sum_band     :     24.11s CPU     24.62s WALL (      32 calls)
     v_of_rho     :      0.56s CPU      0.60s WALL (      33 calls)
     newd         :      2.03s CPU      2.06s WALL (      33 calls)
     mix_rho      :      0.09s CPU      0.10s WALL (      32 calls)

     Called by c_bands:
     init_us_2    :      1.62s CPU      1.65s WALL (    7392 calls)
     init_us_2:cp :      1.60s CPU      1.63s WALL (    7392 calls)
     cegterg      :    177.43s CPU    180.40s WALL (    3584 calls)

     Called by *egterg:
     cdiaghg      :     17.06s CPU     17.21s WALL (   16501 calls)
     h_psi        :    107.76s CPU    110.02s WALL (   16613 calls)
     s_psi        :     11.70s CPU     11.79s WALL (   16613 calls)
     g_psi        :      0.33s CPU      0.33s WALL (   12917 calls)

     Called by h_psi:
     h_psi:calbec :     14.41s CPU     14.85s WALL (   16613 calls)
     vloc_psi     :     81.31s CPU     83.05s WALL (   16613 calls)
     add_vuspsi   :     11.72s CPU     11.81s WALL (   16613 calls)

     General routines
     calbec       :     20.19s CPU     20.77s WALL (   20645 calls)
     fft          :      0.70s CPU      0.75s WALL (     438 calls)
     ffts         :      0.12s CPU      0.13s WALL (      65 calls)
     fftw         :     85.54s CPU     87.38s WALL (  417034 calls)
     interpolate  :      0.14s CPU      0.14s WALL (      33 calls)

     Parallel routines

     PWSCF        :   3m34.85s CPU   3m38.78s WALL


   This run was terminated on:  15:50: 4  23Jun2025            

=------------------------------------------------------------------------------=
   JOB DONE.
=------------------------------------------------------------------------------=
Note: The following floating-point exceptions are signalling: IEEE_INVALID_FLAG
