
     Program PWSCF v.7.2 starts on 23Jun2025 at 14:12:25 

     This program is part of the open-source Quantum ESPRESSO suite
     for quantum simulation of materials; please cite
         "P. Giannozzi et al., J. Phys.:Condens. Matter 21 395502 (2009);
         "P. Giannozzi et al., J. Phys.:Condens. Matter 29 465901 (2017);
         "P. Giannozzi et al., J. Chem. Phys. 152 154105 (2020);
          URL http://www.quantum-espresso.org", 
     in publications or presentations arising from this work. More details at
     http://www.quantum-espresso.org/quote

     Parallel version (MPI), running on     8 processors

     MPI processes distributed on     1 nodes
     91049 MiB available memory on the printing compute node when the environment starts

     Reading input from /home/jvc/QEspresso7.2/ZnO_DataBase/scfs_rnd025.in/scf-6.06-1.78-1.in

     Current dimensions of program PWSCF are:
     Max number of different atomic species (ntypx) = 10
     Max number of k-points (npk) =  40000
     Max angular momentum in pseudopotentials (lmaxx) =  4
     file Zn.upf: wavefunction(s)  3D renormalized

     R & G space division:  proc/nbgrp/npool/nimage =       8
     Subspace diagonalization in iterative solution of the eigenvalue problem:
     a serial algorithm will be used


     Parallelization info
     --------------------
     sticks:   dense  smooth     PW     G-vecs:    dense   smooth      PW
     Min         126      63     18                 5776     2044     334
     Max         127      65     19                 5781     2047     341
     Sum        1015     511    151                46227    16363    2721

     Using Slab Decomposition



     bravais-lattice index     =            4
     lattice parameter (alat)  =       6.0552  a.u.
     unit-cell volume          =     341.4432 (a.u.)^3
     number of atoms/cell      =            4
     number of atomic types    =            2
     number of electrons       =        36.00
     number of Kohn-Sham states=           18
     kinetic-energy cutoff     =      50.0000  Ry
     charge density cutoff     =     400.0000  Ry
     scf convergence threshold =      1.0E-08
     mixing beta               =       0.3000
     number of iterations used =            8  plain     mixing
     Exchange-correlation= PBE
                           (   1   4   3   4   0   0   0)

     celldm(1)=   6.055245  celldm(2)=   0.000000  celldm(3)=   1.775794
     celldm(4)=   0.000000  celldm(5)=   0.000000  celldm(6)=   0.000000

     crystal axes: (cart. coord. in units of alat)
               a(1) = (   1.000000   0.000000   0.000000 )  
               a(2) = (  -0.500000   0.866025   0.000000 )  
               a(3) = (   0.000000   0.000000   1.775794 )  

     reciprocal axes: (cart. coord. in units 2 pi/alat)
               b(1) = (  1.000000  0.577350 -0.000000 )  
               b(2) = (  0.000000  1.154701  0.000000 )  
               b(3) = (  0.000000 -0.000000  0.563128 )  


     PseudoPot. # 1 for Zn read from file:
     ./pseudos/Zn.upf
     MD5 check sum: 7f56cabf9682ed8c977c2f7d0c5985c5
     Pseudo is Ultrasoft + core correction, Zval = 12.0
     Generated using &quot;atomic&quot; code by A. Dal Corso  v.6.2.2
     Using radial grid of 1201 points,  6 beta functions with: 
                l(1) =   0
                l(2) =   0
                l(3) =   1
                l(4) =   1
                l(5) =   2
                l(6) =   2
     Q(r) pseudized with 0 coefficients 


     PseudoPot. # 2 for O  read from file:
     ./pseudos/O.upf
     MD5 check sum: 91400c9766925bcf19f520983a725ff0
     Pseudo is Ultrasoft + core correction, Zval =  6.0
     Generated using &quot;atomic&quot; code by A. Dal Corso  v.6.3MaX
     Using radial grid of 1095 points,  4 beta functions with: 
                l(1) =   0
                l(2) =   0
                l(3) =   1
                l(4) =   1
     Q(r) pseudized with 0 coefficients 


     atomic species   valence    mass     pseudopotential
        Zn            12.00    63.38000     Zn( 1.00)
        O              6.00    15.99900     O ( 1.00)

     No symmetry found



   Cartesian axes

     site n.     atom                  positions (alat units)
         1           Zn  tau(   1) = (   0.3626576   0.2541451   1.0515595  )
         2           Zn  tau(   2) = (   0.0210160   0.7172469  -0.0620257  )
         3           O   tau(   3) = (   0.6729300   0.2481034   1.1517910  )
         4           O   tau(   4) = (  -0.1516899   0.7888662   1.0852306  )

     number of k points=   112

     Number of k-points >= 100: set verbosity='high' to print them.

     Dense  grid:    46227 G-vectors     FFT dimensions: (  40,  40,  72)

     Smooth grid:    16363 G-vectors     FFT dimensions: (  27,  27,  50)

     Estimated max dynamical RAM per process >      31.65 MB

     Estimated total dynamical RAM >     253.18 MB

     Check: negative core charge=   -0.000002

     Initial potential from superposition of free atoms

     starting charge      35.9925, renormalised to      36.0000
     Starting wfcs are   26 randomized atomic wfcs

     total cpu time spent up to now is        4.2 secs

     Self-consistent Calculation

     iteration #  1     ecut=    50.00 Ry     beta= 0.30
     Davidson diagonalization with overlap
     ethr =  1.00E-02,  avg # of iterations =  3.6

     total cpu time spent up to now is       11.3 secs

     total energy              =    -356.50138070 Ry
     estimated scf accuracy    <       1.80049900 Ry

     iteration #  2     ecut=    50.00 Ry     beta= 0.30
     Davidson diagonalization with overlap
     ethr =  5.00E-03,  avg # of iterations =  2.0

     total cpu time spent up to now is       17.3 secs

     total energy              =    -356.42239370 Ry
     estimated scf accuracy    <       0.43256636 Ry

     iteration #  3     ecut=    50.00 Ry     beta= 0.30
     Davidson diagonalization with overlap
     ethr =  1.20E-03,  avg # of iterations =  6.7

     total cpu time spent up to now is       29.1 secs

     total energy              =    -356.75265823 Ry
     estimated scf accuracy    <       0.52207474 Ry

     iteration #  4     ecut=    50.00 Ry     beta= 0.30
     Davidson diagonalization with overlap
     ethr =  1.20E-03,  avg # of iterations =  1.9

     total cpu time spent up to now is       34.5 secs

     total energy              =    -356.65264002 Ry
     estimated scf accuracy    <       0.16102282 Ry

     iteration #  5     ecut=    50.00 Ry     beta= 0.30
     Davidson diagonalization with overlap
     ethr =  4.47E-04,  avg # of iterations =  8.2

     total cpu time spent up to now is       49.5 secs

     total energy              =    -356.81970476 Ry
     estimated scf accuracy    <       0.49975551 Ry

     iteration #  6     ecut=    50.00 Ry     beta= 0.30
     Davidson diagonalization with overlap
     ethr =  4.47E-04,  avg # of iterations =  1.6

     total cpu time spent up to now is       54.7 secs

     total energy              =    -356.68532474 Ry
     estimated scf accuracy    <       0.26200928 Ry

     iteration #  7     ecut=    50.00 Ry     beta= 0.30
     Davidson diagonalization with overlap
     ethr =  4.47E-04,  avg # of iterations =  6.5

     total cpu time spent up to now is       65.6 secs

     total energy              =    -356.80306750 Ry
     estimated scf accuracy    <       0.03117194 Ry

     iteration #  8     ecut=    50.00 Ry     beta= 0.30
     Davidson diagonalization with overlap
     ethr =  8.66E-05,  avg # of iterations =  3.3

     total cpu time spent up to now is       72.4 secs

     total energy              =    -356.78581022 Ry
     estimated scf accuracy    <       0.04474086 Ry

     iteration #  9     ecut=    50.00 Ry     beta= 0.30
     Davidson diagonalization with overlap
     ethr =  8.66E-05,  avg # of iterations =  4.3

     total cpu time spent up to now is       79.8 secs

     total energy              =    -356.79430350 Ry
     estimated scf accuracy    <       0.00126618 Ry

     iteration # 10     ecut=    50.00 Ry     beta= 0.30
     Davidson diagonalization with overlap
     ethr =  3.52E-06,  avg # of iterations =  6.7

     total cpu time spent up to now is       91.4 secs

     total energy              =    -356.79593947 Ry
     estimated scf accuracy    <       0.00022073 Ry

     iteration # 11     ecut=    50.00 Ry     beta= 0.30
     Davidson diagonalization with overlap
     ethr =  6.13E-07,  avg # of iterations =  6.6

     total cpu time spent up to now is      102.4 secs

     total energy              =    -356.79579048 Ry
     estimated scf accuracy    <       0.00074772 Ry

     iteration # 12     ecut=    50.00 Ry     beta= 0.30
     Davidson diagonalization with overlap
     ethr =  6.13E-07,  avg # of iterations =  5.9

     total cpu time spent up to now is      112.8 secs

     total energy              =    -356.79593139 Ry
     estimated scf accuracy    <       0.00000526 Ry

     iteration # 13     ecut=    50.00 Ry     beta= 0.30
     Davidson diagonalization with overlap
     c_bands:  1 eigenvalues not converged
     c_bands:  1 eigenvalues not converged
     c_bands:  1 eigenvalues not converged
     ethr =  1.46E-08,  avg # of iterations = 11.1

     total cpu time spent up to now is      130.2 secs

     total energy              =    -356.79594985 Ry
     estimated scf accuracy    <       0.00003198 Ry

     iteration # 14     ecut=    50.00 Ry     beta= 0.30
     Davidson diagonalization with overlap
     ethr =  1.46E-08,  avg # of iterations =  1.1

     total cpu time spent up to now is      135.1 secs

     total energy              =    -356.79593765 Ry
     estimated scf accuracy    <       0.00002865 Ry

     iteration # 15     ecut=    50.00 Ry     beta= 0.30
     Davidson diagonalization with overlap
     ethr =  1.46E-08,  avg # of iterations =  6.8

     total cpu time spent up to now is      146.6 secs

     total energy              =    -356.79594201 Ry
     estimated scf accuracy    <       0.00000065 Ry

     iteration # 16     ecut=    50.00 Ry     beta= 0.30
     Davidson diagonalization with overlap
     ethr =  1.82E-09,  avg # of iterations =  7.4

     total cpu time spent up to now is      158.0 secs

     total energy              =    -356.79594240 Ry
     estimated scf accuracy    <       0.00000045 Ry

     iteration # 17     ecut=    50.00 Ry     beta= 0.30
     Davidson diagonalization with overlap
     ethr =  1.25E-09,  avg # of iterations =  2.5

     total cpu time spent up to now is      164.2 secs

     total energy              =    -356.79594241 Ry
     estimated scf accuracy    <       0.00000008 Ry

     iteration # 18     ecut=    50.00 Ry     beta= 0.30
     Davidson diagonalization with overlap
     ethr =  2.16E-10,  avg # of iterations =  8.7

     total cpu time spent up to now is      178.6 secs

     total energy              =    -356.79594257 Ry
     estimated scf accuracy    <       0.00000030 Ry

     iteration # 19     ecut=    50.00 Ry     beta= 0.30
     Davidson diagonalization with overlap
     ethr =  2.16E-10,  avg # of iterations =  1.5

     total cpu time spent up to now is      183.8 secs

     total energy              =    -356.79594252 Ry
     estimated scf accuracy    <       0.00000031 Ry

     iteration # 20     ecut=    50.00 Ry     beta= 0.30
     Davidson diagonalization with overlap
     ethr =  2.16E-10,  avg # of iterations =  5.6

     total cpu time spent up to now is      191.4 secs

     total energy              =    -356.79594247 Ry
     estimated scf accuracy    <       0.00000019 Ry

     iteration # 21     ecut=    50.00 Ry     beta= 0.30
     Davidson diagonalization with overlap
     ethr =  2.16E-10,  avg # of iterations =  2.8

     total cpu time spent up to now is      197.7 secs

     total energy              =    -356.79594248 Ry
     estimated scf accuracy    <       0.00000006 Ry

     iteration # 22     ecut=    50.00 Ry     beta= 0.30
     Davidson diagonalization with overlap
     ethr =  1.55E-10,  avg # of iterations =  4.0

     total cpu time spent up to now is      204.5 secs

     total energy              =    -356.79594248 Ry
     estimated scf accuracy    <       0.00000001 Ry

     iteration # 23     ecut=    50.00 Ry     beta= 0.30
     Davidson diagonalization with overlap
     ethr =  4.04E-11,  avg # of iterations =  7.1

     total cpu time spent up to now is      216.3 secs

     total energy              =    -356.79594249 Ry
     estimated scf accuracy    <       0.00000001 Ry

     iteration # 24     ecut=    50.00 Ry     beta= 0.30
     Davidson diagonalization with overlap
     ethr =  2.81E-11,  avg # of iterations =  1.2

     total cpu time spent up to now is      221.2 secs

     End of self-consistent calculation

     Number of k-points >= 100: set verbosity='high' to print the bands.

     highest occupied level (ev):     9.9225

!    total energy              =    -356.79594249 Ry
     estimated scf accuracy    <          5.6E-09 Ry

     The total energy is the sum of the following terms:
     one-electron contribution =    -303.32114537 Ry
     hartree contribution      =     188.69384561 Ry
     xc contribution           =    -111.26612483 Ry
     ewald contribution        =    -130.90251790 Ry

     convergence has been achieved in  24 iterations

     Forces acting on atoms (cartesian axes, Ry/au):

     atom    1 type  1   force =    -5.61546414    5.45365977   -2.46680178
     atom    2 type  1   force =     0.01376050   -0.03119679    0.14958286
     atom    3 type  2   force =     6.12653515    0.16434140    1.93000780
     atom    4 type  2   force =    -0.52483152   -5.58680438    0.38721112
     The non-local contrib.  to forces
     atom    1 type  1   force =     0.48305530   -0.65731827    0.22722167
     atom    2 type  1   force =    -0.17495516    0.18459453   -0.44904603
     atom    3 type  2   force =    -1.33836645   -0.21039897   -0.49887887
     atom    4 type  2   force =     0.32227864    1.64651451   -0.13187804
     The ionic contribution  to forces
     atom    1 type  1   force =   -27.01514946   28.91384243  -30.99682198
     atom    2 type  1   force =     0.91490460   -1.85536191   32.72439198
     atom    3 type  2   force =    30.95708035    2.00276669    5.67731214
     atom    4 type  2   force =    -4.85683549  -29.06124721   -7.40488214
     The local contribution  to forces
     atom    1 type  1   force =    20.56186245  -22.44742316   28.13857218
     atom    2 type  1   force =    -0.72812067    1.64010144  -32.12038380
     atom    3 type  2   force =   -23.48352366   -1.62989648   -3.24641390
     atom    4 type  2   force =     4.01129400   21.82351157    7.92380994
     The core correction contribution to forces
     atom    1 type  1   force =     0.35458184   -0.35527506    0.16399691
     atom    2 type  1   force =     0.00194244   -0.00053956   -0.00518443
     atom    3 type  2   force =    -0.00864141    0.00187823   -0.00206688
     atom    4 type  2   force =    -0.00158453    0.00441664    0.00008243
     The Hubbard contrib.    to forces
     atom    1 type  1   force =     0.00000000    0.00000000    0.00000000
     atom    2 type  1   force =     0.00000000    0.00000000    0.00000000
     atom    3 type  2   force =     0.00000000    0.00000000    0.00000000
     atom    4 type  2   force =     0.00000000    0.00000000    0.00000000
     The SCF correction term to forces
     atom    1 type  1   force =     0.00021114   -0.00018643    0.00023321
     atom    2 type  1   force =     0.00001471   -0.00001155   -0.00019109
     atom    3 type  2   force =     0.00001174   -0.00002832    0.00005908
     atom    4 type  2   force =     0.00004128   -0.00002014    0.00008270

     Total force =    11.845194     Total SCF correction =     0.000429

     Writing all to output data dir ./ZnO_ANN.save/

     init_run     :      3.65s CPU      3.73s WALL (       1 calls)
     electrons    :    213.26s CPU    217.05s WALL (       1 calls)
     forces       :      1.07s CPU      1.09s WALL (       1 calls)

     Called by init_run:
     wfcinit      :      2.71s CPU      2.76s WALL (       1 calls)
     potinit      :      0.22s CPU      0.23s WALL (       1 calls)
     hinit0       :      0.61s CPU      0.62s WALL (       1 calls)

     Called by electrons:
     c_bands      :    192.74s CPU    196.04s WALL (      24 calls)
     sum_band     :     18.57s CPU     19.02s WALL (      24 calls)
     v_of_rho     :      0.40s CPU      0.43s WALL (      25 calls)
     newd         :      1.54s CPU      1.56s WALL (      25 calls)
     mix_rho      :      0.07s CPU      0.08s WALL (      24 calls)

     Called by c_bands:
     init_us_2    :      1.31s CPU      1.33s WALL (    5600 calls)
     init_us_2:cp :      1.28s CPU      1.31s WALL (    5600 calls)
     cegterg      :    188.73s CPU    191.97s WALL (    2688 calls)

     Called by *egterg:
     cdiaghg      :     18.64s CPU     18.77s WALL (   15784 calls)
     h_psi        :    113.44s CPU    115.88s WALL (   15896 calls)
     s_psi        :     13.72s CPU     13.83s WALL (   15896 calls)
     g_psi        :      0.38s CPU      0.38s WALL (   13096 calls)

     Called by h_psi:
     h_psi:calbec :     14.45s CPU     14.96s WALL (   15896 calls)
     vloc_psi     :     84.89s CPU     86.71s WALL (   15896 calls)
     add_vuspsi   :     13.76s CPU     13.88s WALL (   15896 calls)

     General routines
     calbec       :     18.89s CPU     19.54s WALL (   19032 calls)
     fft          :      0.61s CPU      0.65s WALL (     334 calls)
     ffts         :      0.09s CPU      0.09s WALL (      49 calls)
     fftw         :     86.28s CPU     88.18s WALL (  400702 calls)
     interpolate  :      0.10s CPU      0.10s WALL (      25 calls)

     Parallel routines

     PWSCF        :   3m38.72s CPU   3m42.86s WALL


   This run was terminated on:  14:16: 8  23Jun2025            

=------------------------------------------------------------------------------=
   JOB DONE.
=------------------------------------------------------------------------------=
Note: The following floating-point exceptions are signalling: IEEE_INVALID_FLAG
