
     Program PWSCF v.7.2 starts on 23Jun2025 at 18:10:49 

     This program is part of the open-source Quantum ESPRESSO suite
     for quantum simulation of materials; please cite
         "P. Giannozzi et al., J. Phys.:Condens. Matter 21 395502 (2009);
         "P. Giannozzi et al., J. Phys.:Condens. Matter 29 465901 (2017);
         "P. Giannozzi et al., J. Chem. Phys. 152 154105 (2020);
          URL http://www.quantum-espresso.org", 
     in publications or presentations arising from this work. More details at
     http://www.quantum-espresso.org/quote

     Parallel version (MPI), running on     8 processors

     MPI processes distributed on     1 nodes
     90709 MiB available memory on the printing compute node when the environment starts

     Reading input from /home/jvc/QEspresso7.2/ZnO_DataBase/scfs_rnd025.in/scf-6.80-1.45-2.in

     Current dimensions of program PWSCF are:
     Max number of different atomic species (ntypx) = 10
     Max number of k-points (npk) =  40000
     Max angular momentum in pseudopotentials (lmaxx) =  4
     file Zn.upf: wavefunction(s)  3D renormalized

     R & G space division:  proc/nbgrp/npool/nimage =       8
     Subspace diagonalization in iterative solution of the eigenvalue problem:
     a serial algorithm will be used


     Parallelization info
     --------------------
     sticks:   dense  smooth     PW     G-vecs:    dense   smooth      PW
     Min         159      81     24                 6670     2353     391
     Max         162      82     25                 6672     2356     393
     Sum        1285     649    199                53367    18837    3139

     Using Slab Decomposition



     bravais-lattice index     =            4
     lattice parameter (alat)  =       6.7967  a.u.
     unit-cell volume          =     395.0646 (a.u.)^3
     number of atoms/cell      =            4
     number of atomic types    =            2
     number of electrons       =        36.00
     number of Kohn-Sham states=           18
     kinetic-energy cutoff     =      50.0000  Ry
     charge density cutoff     =     400.0000  Ry
     scf convergence threshold =      1.0E-08
     mixing beta               =       0.3000
     number of iterations used =            8  plain     mixing
     Exchange-correlation= PBE
                           (   1   4   3   4   0   0   0)

     celldm(1)=   6.796704  celldm(2)=   0.000000  celldm(3)=   1.452923
     celldm(4)=   0.000000  celldm(5)=   0.000000  celldm(6)=   0.000000

     crystal axes: (cart. coord. in units of alat)
               a(1) = (   1.000000   0.000000   0.000000 )  
               a(2) = (  -0.500000   0.866025   0.000000 )  
               a(3) = (   0.000000   0.000000   1.452923 )  

     reciprocal axes: (cart. coord. in units 2 pi/alat)
               b(1) = (  1.000000  0.577350 -0.000000 )  
               b(2) = (  0.000000  1.154701  0.000000 )  
               b(3) = (  0.000000 -0.000000  0.688268 )  


     PseudoPot. # 1 for Zn read from file:
     ./pseudos/Zn.upf
     MD5 check sum: 7f56cabf9682ed8c977c2f7d0c5985c5
     Pseudo is Ultrasoft + core correction, Zval = 12.0
     Generated using &quot;atomic&quot; code by A. Dal Corso  v.6.2.2
     Using radial grid of 1201 points,  6 beta functions with: 
                l(1) =   0
                l(2) =   0
                l(3) =   1
                l(4) =   1
                l(5) =   2
                l(6) =   2
     Q(r) pseudized with 0 coefficients 


     PseudoPot. # 2 for O  read from file:
     ./pseudos/O.upf
     MD5 check sum: 91400c9766925bcf19f520983a725ff0
     Pseudo is Ultrasoft + core correction, Zval =  6.0
     Generated using &quot;atomic&quot; code by A. Dal Corso  v.6.3MaX
     Using radial grid of 1095 points,  4 beta functions with: 
                l(1) =   0
                l(2) =   0
                l(3) =   1
                l(4) =   1
     Q(r) pseudized with 0 coefficients 


     atomic species   valence    mass     pseudopotential
        Zn            12.00    63.38000     Zn( 1.00)
        O              6.00    15.99900     O ( 1.00)

     No symmetry found



   Cartesian axes

     site n.     atom                  positions (alat units)
         1           Zn  tau(   1) = (   0.3348792   0.2904083   1.0487495  )
         2           Zn  tau(   2) = (   0.0101121   0.5337836   0.1980259  )
         3           O   tau(   3) = (   0.3989312   0.1416036   1.1601383  )
         4           O   tau(   4) = (  -0.1227445   0.5760460   0.7407859  )

     number of k points=   112

     Number of k-points >= 100: set verbosity='high' to print them.

     Dense  grid:    53367 G-vectors     FFT dimensions: (  45,  45,  64)

     Smooth grid:    18837 G-vectors     FFT dimensions: (  32,  32,  45)

     Estimated max dynamical RAM per process >      36.02 MB

     Estimated total dynamical RAM >     288.20 MB

     Check: negative core charge=   -0.000002

     Initial potential from superposition of free atoms

     starting charge      35.9925, renormalised to      36.0000
     Starting wfcs are   26 randomized atomic wfcs

     total cpu time spent up to now is        4.1 secs

     Self-consistent Calculation

     iteration #  1     ecut=    50.00 Ry     beta= 0.30
     Davidson diagonalization with overlap
     ethr =  1.00E-02,  avg # of iterations =  4.3

     total cpu time spent up to now is       12.5 secs

     total energy              =    -348.76364388 Ry
     estimated scf accuracy    <       1.25824259 Ry

     iteration #  2     ecut=    50.00 Ry     beta= 0.30
     Davidson diagonalization with overlap
     ethr =  3.50E-03,  avg # of iterations =  5.5

     total cpu time spent up to now is       19.5 secs

     total energy              =    -348.91445157 Ry
     estimated scf accuracy    <       0.23222354 Ry

     iteration #  3     ecut=    50.00 Ry     beta= 0.30
     Davidson diagonalization with overlap
     ethr =  6.45E-04,  avg # of iterations =  4.9

     total cpu time spent up to now is       27.2 secs

     total energy              =    -348.94324485 Ry
     estimated scf accuracy    <       0.10631484 Ry

     iteration #  4     ecut=    50.00 Ry     beta= 0.30
     Davidson diagonalization with overlap
     ethr =  2.95E-04,  avg # of iterations =  6.6

     total cpu time spent up to now is       35.6 secs

     total energy              =    -348.96086931 Ry
     estimated scf accuracy    <       0.06552453 Ry

     iteration #  5     ecut=    50.00 Ry     beta= 0.30
     Davidson diagonalization with overlap
     ethr =  1.82E-04,  avg # of iterations =  1.8

     total cpu time spent up to now is       41.0 secs

     total energy              =    -348.94339909 Ry
     estimated scf accuracy    <       0.02794064 Ry

     iteration #  6     ecut=    50.00 Ry     beta= 0.30
     Davidson diagonalization with overlap
     c_bands:  1 eigenvalues not converged
     ethr =  7.76E-05,  avg # of iterations = 11.6

     total cpu time spent up to now is       52.7 secs

     total energy              =    -348.97517524 Ry
     estimated scf accuracy    <       0.31763099 Ry

     iteration #  7     ecut=    50.00 Ry     beta= 0.30
     Davidson diagonalization with overlap
     ethr =  7.76E-05,  avg # of iterations =  4.3

     total cpu time spent up to now is       58.9 secs

     total energy              =    -348.88443166 Ry
     estimated scf accuracy    <       0.20364353 Ry

     iteration #  8     ecut=    50.00 Ry     beta= 0.30
     Davidson diagonalization with overlap
     c_bands:  1 eigenvalues not converged
     c_bands:  1 eigenvalues not converged
     ethr =  7.76E-05,  avg # of iterations = 13.5

     total cpu time spent up to now is       73.2 secs

     total energy              =    -348.96386261 Ry
     estimated scf accuracy    <       0.18762516 Ry

     iteration #  9     ecut=    50.00 Ry     beta= 0.30
     Davidson diagonalization with overlap
     ethr =  7.76E-05,  avg # of iterations =  6.1

     total cpu time spent up to now is       80.5 secs

     total energy              =    -348.96240797 Ry
     estimated scf accuracy    <       0.05633994 Ry

     iteration # 10     ecut=    50.00 Ry     beta= 0.30
     Davidson diagonalization with overlap
     ethr =  7.76E-05,  avg # of iterations =  2.9

     total cpu time spent up to now is       86.4 secs

     total energy              =    -348.95030714 Ry
     estimated scf accuracy    <       0.02620339 Ry

     iteration # 11     ecut=    50.00 Ry     beta= 0.30
     Davidson diagonalization with overlap
     ethr =  7.28E-05,  avg # of iterations =  8.4

     total cpu time spent up to now is       95.9 secs

     total energy              =    -348.96221974 Ry
     estimated scf accuracy    <       0.06506848 Ry

     iteration # 12     ecut=    50.00 Ry     beta= 0.30
     Davidson diagonalization with overlap
     ethr =  7.28E-05,  avg # of iterations =  2.2

     total cpu time spent up to now is      101.5 secs

     total energy              =    -348.95799670 Ry
     estimated scf accuracy    <       0.03645169 Ry

     iteration # 13     ecut=    50.00 Ry     beta= 0.30
     Davidson diagonalization with overlap
     ethr =  7.28E-05,  avg # of iterations =  6.1

     total cpu time spent up to now is      108.7 secs

     total energy              =    -348.96394907 Ry
     estimated scf accuracy    <       0.00088593 Ry

     iteration # 14     ecut=    50.00 Ry     beta= 0.30
     Davidson diagonalization with overlap
     c_bands:  1 eigenvalues not converged
     c_bands:  1 eigenvalues not converged
     ethr =  2.46E-06,  avg # of iterations =  8.2

     total cpu time spent up to now is      118.0 secs

     total energy              =    -348.96524730 Ry
     estimated scf accuracy    <       0.00032036 Ry

     iteration # 15     ecut=    50.00 Ry     beta= 0.30
     Davidson diagonalization with overlap
     ethr =  8.90E-07,  avg # of iterations =  6.6

     total cpu time spent up to now is      126.2 secs

     total energy              =    -348.96528355 Ry
     estimated scf accuracy    <       0.00025593 Ry

     iteration # 16     ecut=    50.00 Ry     beta= 0.30
     Davidson diagonalization with overlap
     ethr =  7.11E-07,  avg # of iterations =  5.6

     total cpu time spent up to now is      132.9 secs

     total energy              =    -348.96532405 Ry
     estimated scf accuracy    <       0.00002158 Ry

     iteration # 17     ecut=    50.00 Ry     beta= 0.30
     Davidson diagonalization with overlap
     ethr =  6.00E-08,  avg # of iterations =  8.9

     total cpu time spent up to now is      143.5 secs

     total energy              =    -348.96534266 Ry
     estimated scf accuracy    <       0.00007212 Ry

     iteration # 18     ecut=    50.00 Ry     beta= 0.30
     Davidson diagonalization with overlap
     ethr =  6.00E-08,  avg # of iterations =  6.6

     total cpu time spent up to now is      151.8 secs

     total energy              =    -348.96535223 Ry
     estimated scf accuracy    <       0.00010751 Ry

     iteration # 19     ecut=    50.00 Ry     beta= 0.30
     Davidson diagonalization with overlap
     ethr =  6.00E-08,  avg # of iterations =  1.1

     total cpu time spent up to now is      156.7 secs

     total energy              =    -348.96536078 Ry
     estimated scf accuracy    <       0.00010909 Ry

     iteration # 20     ecut=    50.00 Ry     beta= 0.30
     Davidson diagonalization with overlap
     ethr =  6.00E-08,  avg # of iterations =  5.8

     total cpu time spent up to now is      163.3 secs

     total energy              =    -348.96535945 Ry
     estimated scf accuracy    <       0.00018047 Ry

     iteration # 21     ecut=    50.00 Ry     beta= 0.30
     Davidson diagonalization with overlap
     ethr =  6.00E-08,  avg # of iterations =  1.1

     total cpu time spent up to now is      168.1 secs

     total energy              =    -348.96536775 Ry
     estimated scf accuracy    <       0.00017494 Ry

     iteration # 22     ecut=    50.00 Ry     beta= 0.30
     Davidson diagonalization with overlap
     ethr =  6.00E-08,  avg # of iterations =  1.6

     total cpu time spent up to now is      173.3 secs

     total energy              =    -348.96534255 Ry
     estimated scf accuracy    <       0.00020250 Ry

     iteration # 23     ecut=    50.00 Ry     beta= 0.30
     Davidson diagonalization with overlap
     ethr =  6.00E-08,  avg # of iterations =  3.2

     total cpu time spent up to now is      179.1 secs

     total energy              =    -348.96526488 Ry
     estimated scf accuracy    <       0.00013833 Ry

     iteration # 24     ecut=    50.00 Ry     beta= 0.30
     Davidson diagonalization with overlap
     c_bands:  2 eigenvalues not converged
     c_bands:  1 eigenvalues not converged
     c_bands:  1 eigenvalues not converged
     c_bands:  1 eigenvalues not converged
     c_bands:  1 eigenvalues not converged
     c_bands:  1 eigenvalues not converged
     c_bands:  1 eigenvalues not converged
     c_bands:  1 eigenvalues not converged
     c_bands:  1 eigenvalues not converged
     ethr =  6.00E-08,  avg # of iterations = 14.8

     total cpu time spent up to now is      194.0 secs

     total energy              =    -348.96529789 Ry
     estimated scf accuracy    <       0.00033032 Ry

     iteration # 25     ecut=    50.00 Ry     beta= 0.30
     Davidson diagonalization with overlap
     ethr =  6.00E-08,  avg # of iterations = 10.9

     total cpu time spent up to now is      204.7 secs

     total energy              =    -348.96533226 Ry
     estimated scf accuracy    <       0.00000826 Ry

     iteration # 26     ecut=    50.00 Ry     beta= 0.30
     Davidson diagonalization with overlap
     ethr =  2.30E-08,  avg # of iterations =  2.2

     total cpu time spent up to now is      210.0 secs

     total energy              =    -348.96533314 Ry
     estimated scf accuracy    <       0.00000805 Ry

     iteration # 27     ecut=    50.00 Ry     beta= 0.30
     Davidson diagonalization with overlap
     ethr =  2.24E-08,  avg # of iterations =  1.1

     total cpu time spent up to now is      214.9 secs

     total energy              =    -348.96533330 Ry
     estimated scf accuracy    <       0.00000958 Ry

     iteration # 28     ecut=    50.00 Ry     beta= 0.30
     Davidson diagonalization with overlap
     ethr =  2.24E-08,  avg # of iterations =  1.1

     total cpu time spent up to now is      219.8 secs

     total energy              =    -348.96533215 Ry
     estimated scf accuracy    <       0.00000979 Ry

     iteration # 29     ecut=    50.00 Ry     beta= 0.30
     Davidson diagonalization with overlap
     ethr =  2.24E-08,  avg # of iterations =  1.5

     total cpu time spent up to now is      224.8 secs

     total energy              =    -348.96533087 Ry
     estimated scf accuracy    <       0.00000686 Ry

     iteration # 30     ecut=    50.00 Ry     beta= 0.30
     Davidson diagonalization with overlap
     ethr =  1.90E-08,  avg # of iterations =  4.6

     total cpu time spent up to now is      230.9 secs

     total energy              =    -348.96533154 Ry
     estimated scf accuracy    <       0.00000090 Ry

     iteration # 31     ecut=    50.00 Ry     beta= 0.30
     Davidson diagonalization with overlap
     c_bands:  1 eigenvalues not converged
     ethr =  2.49E-09,  avg # of iterations =  8.2

     total cpu time spent up to now is      239.5 secs

     total energy              =    -348.96533211 Ry
     estimated scf accuracy    <       0.00000026 Ry

     iteration # 32     ecut=    50.00 Ry     beta= 0.30
     Davidson diagonalization with overlap
     ethr =  7.28E-10,  avg # of iterations =  6.0

     total cpu time spent up to now is      246.4 secs

     End of self-consistent calculation

     Number of k-points >= 100: set verbosity='high' to print the bands.

     highest occupied level (ev):     6.7755

!    total energy              =    -348.96533216 Ry
     estimated scf accuracy    <          4.0E-09 Ry

     The total energy is the sum of the following terms:
     one-electron contribution =    -249.85125985 Ry
     hartree contribution      =     158.47994573 Ry
     xc contribution           =    -111.52178254 Ry
     ewald contribution        =    -146.07223549 Ry

     convergence has been achieved in  32 iterations

     Forces acting on atoms (cartesian axes, Ry/au):

     atom    1 type  1   force =   -10.25512030   23.71539588  -17.75105124
     atom    2 type  1   force =    -0.01234682    0.00306007    0.08935559
     atom    3 type  2   force =    10.23664511  -23.66873730   17.82392262
     atom    4 type  2   force =     0.03082201   -0.04971865   -0.16222697
     The non-local contrib.  to forces
     atom    1 type  1   force =     4.08866398   -9.66917137    7.63140986
     atom    2 type  1   force =     0.06117177    0.02332023   -0.41950770
     atom    3 type  2   force =    -1.19949688    2.83482180   -1.56026137
     atom    4 type  2   force =     0.28215639   -0.30978863   -0.60682190
     The ionic contribution  to forces
     atom    1 type  1   force =   -23.26535784   57.55931814  -45.43622695
     atom    2 type  1   force =    -0.07966800   -0.13215080    5.31029714
     atom    3 type  2   force =    25.35506597  -57.09490859   43.98110193
     atom    4 type  2   force =    -2.01004013   -0.33225876   -3.85517213
     The local contribution  to forces
     atom    1 type  1   force =     8.57574944  -23.36893576   19.45306864
     atom    2 type  1   force =     0.00810805    0.11278130   -4.81946318
     atom    3 type  2   force =   -13.89931552   30.54675215  -24.56053218
     atom    4 type  2   force =     1.76122262    0.58886127    4.29322675
     The core correction contribution to forces
     atom    1 type  1   force =     0.34581112   -0.80574490    0.60051760
     atom    2 type  1   force =    -0.00197443   -0.00090667    0.01809805
     atom    3 type  2   force =    -0.01959253    0.04459946   -0.03647817
     atom    4 type  2   force =    -0.00250078    0.00348551    0.00664590
     The Hubbard contrib.    to forces
     atom    1 type  1   force =     0.00000000    0.00000000    0.00000000
     atom    2 type  1   force =     0.00000000    0.00000000    0.00000000
     atom    3 type  2   force =     0.00000000    0.00000000    0.00000000
     atom    4 type  2   force =     0.00000000    0.00000000    0.00000000
     The SCF correction term to forces
     atom    1 type  1   force =     0.00001485   -0.00005943    0.00019279
     atom    2 type  1   force =     0.00001764    0.00002683   -0.00005555
     atom    3 type  2   force =    -0.00001408    0.00000869    0.00010558
     atom    4 type  2   force =    -0.00001425   -0.00000723   -0.00009241

     Total force =    44.333006     Total SCF correction =     0.000255

     Writing all to output data dir ./ZnO_ANN.save/

     init_run     :      3.60s CPU      3.70s WALL (       1 calls)
     electrons    :    238.20s CPU    242.26s WALL (       1 calls)
     forces       :      1.22s CPU      1.24s WALL (       1 calls)

     Called by init_run:
     wfcinit      :      2.70s CPU      2.76s WALL (       1 calls)
     potinit      :      0.28s CPU      0.29s WALL (       1 calls)
     hinit0       :      0.48s CPU      0.49s WALL (       1 calls)

     Called by electrons:
     c_bands      :    210.98s CPU    214.49s WALL (      32 calls)
     sum_band     :     24.25s CPU     24.74s WALL (      32 calls)
     v_of_rho     :      0.59s CPU      0.63s WALL (      33 calls)
     newd         :      2.34s CPU      2.37s WALL (      33 calls)
     mix_rho      :      0.10s CPU      0.11s WALL (      32 calls)

     Called by c_bands:
     init_us_2    :      1.90s CPU      1.93s WALL (    7392 calls)
     init_us_2:cp :      1.87s CPU      1.91s WALL (    7392 calls)
     cegterg      :    204.54s CPU    207.96s WALL (    3584 calls)

     Called by *egterg:
     cdiaghg      :     24.25s CPU     24.45s WALL (   23445 calls)
     h_psi        :    112.49s CPU    115.05s WALL (   23557 calls)
     s_psi        :     14.71s CPU     14.83s WALL (   23557 calls)
     g_psi        :      0.43s CPU      0.44s WALL (   19861 calls)

     Called by h_psi:
     h_psi:calbec :     18.06s CPU     18.60s WALL (   23557 calls)
     vloc_psi     :     79.23s CPU     81.11s WALL (   23557 calls)
     add_vuspsi   :     14.76s CPU     14.90s WALL (   23557 calls)

     General routines
     calbec       :     24.70s CPU     25.40s WALL (   27589 calls)
     fft          :      0.87s CPU      0.93s WALL (     438 calls)
     ffts         :      0.13s CPU      0.13s WALL (      65 calls)
     fftw         :     80.77s CPU     82.65s WALL (  442362 calls)
     interpolate  :      0.15s CPU      0.15s WALL (      33 calls)

     Parallel routines

     PWSCF        :   4m 3.75s CPU   4m 8.17s WALL


   This run was terminated on:  18:14:57  23Jun2025            

=------------------------------------------------------------------------------=
   JOB DONE.
=------------------------------------------------------------------------------=
Note: The following floating-point exceptions are signalling: IEEE_INVALID_FLAG
