
     Program PWSCF v.7.2 starts on 23Jun2025 at 12:11:39 

     This program is part of the open-source Quantum ESPRESSO suite
     for quantum simulation of materials; please cite
         "P. Giannozzi et al., J. Phys.:Condens. Matter 21 395502 (2009);
         "P. Giannozzi et al., J. Phys.:Condens. Matter 29 465901 (2017);
         "P. Giannozzi et al., J. Chem. Phys. 152 154105 (2020);
          URL http://www.quantum-espresso.org", 
     in publications or presentations arising from this work. More details at
     http://www.quantum-espresso.org/quote

     Parallel version (MPI), running on     8 processors

     MPI processes distributed on     1 nodes
     91468 MiB available memory on the printing compute node when the environment starts

     Reading input from /home/jvc/QEspresso7.2/ZnO_DataBase/scfs_rnd025.in/scf-5.68-1.49-4.in

     Current dimensions of program PWSCF are:
     Max number of different atomic species (ntypx) = 10
     Max number of k-points (npk) =  40000
     Max angular momentum in pseudopotentials (lmaxx) =  4
     file Zn.upf: wavefunction(s)  3D renormalized

     R & G space division:  proc/nbgrp/npool/nimage =       8
     Subspace diagonalization in iterative solution of the eigenvalue problem:
     a serial algorithm will be used


     Parallelization info
     --------------------
     sticks:   dense  smooth     PW     G-vecs:    dense   smooth      PW
     Min         111      54     16                 3991     1398     243
     Max         112      55     18                 3996     1405     246
     Sum         889     439    139                31949    11217    1959

     Using Slab Decomposition



     bravais-lattice index     =            4
     lattice parameter (alat)  =       5.6845  a.u.
     unit-cell volume          =     236.2647 (a.u.)^3
     number of atoms/cell      =            4
     number of atomic types    =            2
     number of electrons       =        36.00
     number of Kohn-Sham states=           18
     kinetic-energy cutoff     =      50.0000  Ry
     charge density cutoff     =     400.0000  Ry
     scf convergence threshold =      1.0E-08
     mixing beta               =       0.3000
     number of iterations used =            8  plain     mixing
     Exchange-correlation= PBE
                           (   1   4   3   4   0   0   0)

     celldm(1)=   5.684516  celldm(2)=   0.000000  celldm(3)=   1.485210
     celldm(4)=   0.000000  celldm(5)=   0.000000  celldm(6)=   0.000000

     crystal axes: (cart. coord. in units of alat)
               a(1) = (   1.000000   0.000000   0.000000 )  
               a(2) = (  -0.500000   0.866025   0.000000 )  
               a(3) = (   0.000000   0.000000   1.485210 )  

     reciprocal axes: (cart. coord. in units 2 pi/alat)
               b(1) = (  1.000000  0.577350 -0.000000 )  
               b(2) = (  0.000000  1.154701  0.000000 )  
               b(3) = (  0.000000 -0.000000  0.673306 )  


     PseudoPot. # 1 for Zn read from file:
     ./pseudos/Zn.upf
     MD5 check sum: 7f56cabf9682ed8c977c2f7d0c5985c5
     Pseudo is Ultrasoft + core correction, Zval = 12.0
     Generated using &quot;atomic&quot; code by A. Dal Corso  v.6.2.2
     Using radial grid of 1201 points,  6 beta functions with: 
                l(1) =   0
                l(2) =   0
                l(3) =   1
                l(4) =   1
                l(5) =   2
                l(6) =   2
     Q(r) pseudized with 0 coefficients 


     PseudoPot. # 2 for O  read from file:
     ./pseudos/O.upf
     MD5 check sum: 91400c9766925bcf19f520983a725ff0
     Pseudo is Ultrasoft + core correction, Zval =  6.0
     Generated using &quot;atomic&quot; code by A. Dal Corso  v.6.3MaX
     Using radial grid of 1095 points,  4 beta functions with: 
                l(1) =   0
                l(2) =   0
                l(3) =   1
                l(4) =   1
     Q(r) pseudized with 0 coefficients 


     atomic species   valence    mass     pseudopotential
        Zn            12.00    63.38000     Zn( 1.00)
        O              6.00    15.99900     O ( 1.00)

     No symmetry found



   Cartesian axes

     site n.     atom                  positions (alat units)
         1           Zn  tau(   1) = (   0.6354875   0.4594809   0.9676233  )
         2           Zn  tau(   2) = (  -0.0990268   0.6431791   0.0514362  )
         3           O   tau(   3) = (   0.6065494   0.4216771   1.3865204  )
         4           O   tau(   4) = (  -0.1086275   0.7835689   0.2774019  )

     number of k points=   112

     Number of k-points >= 100: set verbosity='high' to print them.

     Dense  grid:    31949 G-vectors     FFT dimensions: (  40,  40,  54)

     Smooth grid:    11217 G-vectors     FFT dimensions: (  25,  25,  40)

     Estimated max dynamical RAM per process >      22.96 MB

     Estimated total dynamical RAM >     183.67 MB

     Check: negative core charge=   -0.000002

     Initial potential from superposition of free atoms

     starting charge      35.9925, renormalised to      36.0000
     Starting wfcs are   26 randomized atomic wfcs

     total cpu time spent up to now is        3.0 secs

     Self-consistent Calculation

     iteration #  1     ecut=    50.00 Ry     beta= 0.30
     Davidson diagonalization with overlap
     ethr =  1.00E-02,  avg # of iterations =  3.0

     total cpu time spent up to now is        8.2 secs

     total energy              =    -350.95330990 Ry
     estimated scf accuracy    <       1.52669363 Ry

     iteration #  2     ecut=    50.00 Ry     beta= 0.30
     Davidson diagonalization with overlap
     ethr =  4.24E-03,  avg # of iterations =  6.4

     total cpu time spent up to now is       13.9 secs

     total energy              =    -351.24530458 Ry
     estimated scf accuracy    <       0.45174775 Ry

     iteration #  3     ecut=    50.00 Ry     beta= 0.30
     Davidson diagonalization with overlap
     ethr =  1.25E-03,  avg # of iterations =  4.2

     total cpu time spent up to now is       18.6 secs

     total energy              =    -351.26068173 Ry
     estimated scf accuracy    <       0.10977122 Ry

     iteration #  4     ecut=    50.00 Ry     beta= 0.30
     Davidson diagonalization with overlap
     ethr =  3.05E-04,  avg # of iterations =  6.8

     total cpu time spent up to now is       25.5 secs

     total energy              =    -351.31179533 Ry
     estimated scf accuracy    <       0.08189030 Ry

     iteration #  5     ecut=    50.00 Ry     beta= 0.30
     Davidson diagonalization with overlap
     ethr =  2.27E-04,  avg # of iterations =  2.7

     total cpu time spent up to now is       29.4 secs

     total energy              =    -351.30516598 Ry
     estimated scf accuracy    <       0.02161520 Ry

     iteration #  6     ecut=    50.00 Ry     beta= 0.30
     Davidson diagonalization with overlap
     c_bands:  1 eigenvalues not converged
     c_bands:  1 eigenvalues not converged
     c_bands:  1 eigenvalues not converged
     c_bands:  1 eigenvalues not converged
     c_bands:  1 eigenvalues not converged
     c_bands:  1 eigenvalues not converged
     c_bands:  1 eigenvalues not converged
     ethr =  6.00E-05,  avg # of iterations = 13.7

     total cpu time spent up to now is       39.6 secs

     total energy              =    -351.33546674 Ry
     estimated scf accuracy    <       0.17615627 Ry

     iteration #  7     ecut=    50.00 Ry     beta= 0.30
     Davidson diagonalization with overlap
     ethr =  6.00E-05,  avg # of iterations =  2.8

     total cpu time spent up to now is       43.5 secs

     total energy              =    -351.26712178 Ry
     estimated scf accuracy    <       0.11790852 Ry

     iteration #  8     ecut=    50.00 Ry     beta= 0.30
     Davidson diagonalization with overlap
     c_bands:  1 eigenvalues not converged
     c_bands:  1 eigenvalues not converged
     c_bands:  1 eigenvalues not converged
     c_bands:  1 eigenvalues not converged
     c_bands:  1 eigenvalues not converged
     ethr =  6.00E-05,  avg # of iterations = 13.9

     total cpu time spent up to now is       53.8 secs

     total energy              =    -351.32179141 Ry
     estimated scf accuracy    <       0.15222690 Ry

     iteration #  9     ecut=    50.00 Ry     beta= 0.30
     Davidson diagonalization with overlap
     ethr =  6.00E-05,  avg # of iterations =  6.4

     total cpu time spent up to now is       59.1 secs

     total energy              =    -351.31794042 Ry
     estimated scf accuracy    <       0.04155086 Ry

     iteration # 10     ecut=    50.00 Ry     beta= 0.30
     Davidson diagonalization with overlap
     ethr =  6.00E-05,  avg # of iterations =  5.1

     total cpu time spent up to now is       63.7 secs

     total energy              =    -351.32043752 Ry
     estimated scf accuracy    <       0.00623262 Ry

     iteration # 11     ecut=    50.00 Ry     beta= 0.30
     Davidson diagonalization with overlap
     ethr =  1.73E-05,  avg # of iterations =  8.5

     total cpu time spent up to now is       69.8 secs

     total energy              =    -351.32364778 Ry
     estimated scf accuracy    <       0.00098783 Ry

     iteration # 12     ecut=    50.00 Ry     beta= 0.30
     Davidson diagonalization with overlap
     ethr =  2.74E-06,  avg # of iterations =  5.9

     total cpu time spent up to now is       74.3 secs

     total energy              =    -351.32378592 Ry
     estimated scf accuracy    <       0.00016657 Ry

     iteration # 13     ecut=    50.00 Ry     beta= 0.30
     Davidson diagonalization with overlap
     ethr =  4.63E-07,  avg # of iterations =  7.5

     total cpu time spent up to now is       80.3 secs

     total energy              =    -351.32387775 Ry
     estimated scf accuracy    <       0.00000614 Ry

     iteration # 14     ecut=    50.00 Ry     beta= 0.30
     Davidson diagonalization with overlap
     c_bands:  1 eigenvalues not converged
     c_bands:  1 eigenvalues not converged
     c_bands:  1 eigenvalues not converged
     c_bands:  1 eigenvalues not converged
     c_bands:  1 eigenvalues not converged
     ethr =  1.71E-08,  avg # of iterations = 12.2

     total cpu time spent up to now is       89.4 secs

     total energy              =    -351.32387691 Ry
     estimated scf accuracy    <       0.00004501 Ry

     iteration # 15     ecut=    50.00 Ry     beta= 0.30
     Davidson diagonalization with overlap
     c_bands:  1 eigenvalues not converged
     c_bands:  1 eigenvalues not converged
     ethr =  1.71E-08,  avg # of iterations = 10.2

     total cpu time spent up to now is       96.5 secs

     total energy              =    -351.32388303 Ry
     estimated scf accuracy    <       0.00000127 Ry

     iteration # 16     ecut=    50.00 Ry     beta= 0.30
     Davidson diagonalization with overlap
     c_bands:  1 eigenvalues not converged
     ethr =  3.54E-09,  avg # of iterations = 10.1

     total cpu time spent up to now is      104.1 secs

     total energy              =    -351.32388383 Ry
     estimated scf accuracy    <       0.00000409 Ry

     iteration # 17     ecut=    50.00 Ry     beta= 0.30
     Davidson diagonalization with overlap
     ethr =  3.54E-09,  avg # of iterations =  1.8

     total cpu time spent up to now is      107.6 secs

     total energy              =    -351.32388207 Ry
     estimated scf accuracy    <       0.00000328 Ry

     iteration # 18     ecut=    50.00 Ry     beta= 0.30
     Davidson diagonalization with overlap
     c_bands:  1 eigenvalues not converged
     c_bands:  1 eigenvalues not converged
     c_bands:  1 eigenvalues not converged
     ethr =  3.54E-09,  avg # of iterations = 10.9

     total cpu time spent up to now is      115.0 secs

     total energy              =    -351.32388315 Ry
     estimated scf accuracy    <       0.00000268 Ry

     iteration # 19     ecut=    50.00 Ry     beta= 0.30
     Davidson diagonalization with overlap
     ethr =  3.54E-09,  avg # of iterations =  4.8

     total cpu time spent up to now is      119.2 secs

     total energy              =    -351.32388320 Ry
     estimated scf accuracy    <       0.00000054 Ry

     iteration # 20     ecut=    50.00 Ry     beta= 0.30
     Davidson diagonalization with overlap
     ethr =  1.49E-09,  avg # of iterations =  6.8

     total cpu time spent up to now is      124.3 secs

     End of self-consistent calculation

     Number of k-points >= 100: set verbosity='high' to print the bands.

     highest occupied level (ev):    16.7785

!    total energy              =    -351.32388337 Ry
     estimated scf accuracy    <          7.9E-09 Ry

     The total energy is the sum of the following terms:
     one-electron contribution =    -212.72259246 Ry
     hartree contribution      =     148.84805842 Ry
     xc contribution           =    -112.68221350 Ry
     ewald contribution        =    -174.76713582 Ry

     convergence has been achieved in  20 iterations

     Forces acting on atoms (cartesian axes, Ry/au):

     atom    1 type  1   force =     0.01473054    0.07193798   -2.31993768
     atom    2 type  1   force =     2.95508996   -9.53010301  -16.58959942
     atom    3 type  2   force =    -2.22037025   -1.68044423    0.73015709
     atom    4 type  2   force =    -0.74945025   11.13860925   18.17938002
     The non-local contrib.  to forces
     atom    1 type  1   force =     0.33448216    0.22566820   -0.10393523
     atom    2 type  1   force =    -0.70257025    3.05188040    5.03163976
     atom    3 type  2   force =     1.00381170    0.90465029   -0.27557028
     atom    4 type  2   force =    -0.09845852   -0.93140721   -1.11701213
     The ionic contribution  to forces
     atom    1 type  1   force =    -2.11755713   -0.77924403  -37.49365887
     atom    2 type  1   force =    18.94451122  -18.02872081  -26.44864772
     atom    3 type  2   force =   -15.86701282  -12.29040565    5.64217990
     atom    4 type  2   force =    -0.95994127   31.09837050   58.30012669
     The local contribution  to forces
     atom    1 type  1   force =     1.80869410    0.64158527   35.04179835
     atom    2 type  1   force =   -15.10222510    5.13463179    4.24511660
     atom    3 type  2   force =    12.64237613    9.70596745   -4.63563486
     atom    4 type  2   force =     0.30822941  -19.01058219  -38.97314990
     The core correction contribution to forces
     atom    1 type  1   force =    -0.01084605   -0.01598927    0.23558190
     atom    2 type  1   force =    -0.18448266    0.31220185    0.58265446
     atom    3 type  2   force =     0.00042229   -0.00067737   -0.00074935
     atom    4 type  2   force =     0.00068368   -0.01781854   -0.03047202
     The Hubbard contrib.    to forces
     atom    1 type  1   force =     0.00000000    0.00000000    0.00000000
     atom    2 type  1   force =     0.00000000    0.00000000    0.00000000
     atom    3 type  2   force =     0.00000000    0.00000000    0.00000000
     atom    4 type  2   force =     0.00000000    0.00000000    0.00000000
     The SCF correction term to forces
     atom    1 type  1   force =    -0.00008355   -0.00008588    0.00030259
     atom    2 type  1   force =    -0.00018427   -0.00009993   -0.00033611
     atom    3 type  2   force =    -0.00000857    0.00001736   -0.00004191
     atom    4 type  2   force =    -0.00000456    0.00004300   -0.00008622

     Total force =    29.044190     Total SCF correction =     0.000524

     Writing all to output data dir ./ZnO_ANN.save/

     init_run     :      2.46s CPU      2.54s WALL (       1 calls)
     electrons    :    118.43s CPU    121.31s WALL (       1 calls)
     forces       :      0.76s CPU      0.77s WALL (       1 calls)

     Called by init_run:
     wfcinit      :      1.75s CPU      1.81s WALL (       1 calls)
     potinit      :      0.18s CPU      0.18s WALL (       1 calls)
     hinit0       :      0.47s CPU      0.48s WALL (       1 calls)

     Called by electrons:
     c_bands      :    107.75s CPU    110.29s WALL (      20 calls)
     sum_band     :      9.54s CPU      9.85s WALL (      20 calls)
     v_of_rho     :      0.25s CPU      0.27s WALL (      21 calls)
     newd         :      0.87s CPU      0.89s WALL (      21 calls)
     mix_rho      :      0.04s CPU      0.04s WALL (      20 calls)

     Called by c_bands:
     init_us_2    :      0.73s CPU      0.74s WALL (    4704 calls)
     init_us_2:cp :      0.71s CPU      0.73s WALL (    4704 calls)
     cegterg      :    105.37s CPU    107.86s WALL (    2240 calls)

     Called by *egterg:
     cdiaghg      :     19.62s CPU     19.87s WALL (   18341 calls)
     h_psi        :     52.97s CPU     54.74s WALL (   18453 calls)
     s_psi        :      6.63s CPU      6.73s WALL (   18453 calls)
     g_psi        :      0.22s CPU      0.22s WALL (   16101 calls)

     Called by h_psi:
     h_psi:calbec :      8.22s CPU      8.59s WALL (   18453 calls)
     vloc_psi     :     37.83s CPU     39.12s WALL (   18453 calls)
     add_vuspsi   :      6.68s CPU      6.79s WALL (   18453 calls)

     General routines
     calbec       :     10.92s CPU     11.40s WALL (   21141 calls)
     fft          :      0.44s CPU      0.47s WALL (     282 calls)
     ffts         :      0.08s CPU      0.08s WALL (      41 calls)
     fftw         :     37.84s CPU     39.13s WALL (  318884 calls)
     interpolate  :      0.09s CPU      0.09s WALL (      21 calls)

     Parallel routines

     PWSCF        :   2m 2.32s CPU   2m 5.43s WALL


   This run was terminated on:  12:13:44  23Jun2025            

=------------------------------------------------------------------------------=
   JOB DONE.
=------------------------------------------------------------------------------=
Note: The following floating-point exceptions are signalling: IEEE_INVALID_FLAG
