
     Program PWSCF v.7.2 starts on 23Jun2025 at 12: 4: 2 

     This program is part of the open-source Quantum ESPRESSO suite
     for quantum simulation of materials; please cite
         "P. Giannozzi et al., J. Phys.:Condens. Matter 21 395502 (2009);
         "P. Giannozzi et al., J. Phys.:Condens. Matter 29 465901 (2017);
         "P. Giannozzi et al., J. Chem. Phys. 152 154105 (2020);
          URL http://www.quantum-espresso.org", 
     in publications or presentations arising from this work. More details at
     http://www.quantum-espresso.org/quote

     Parallel version (MPI), running on     8 processors

     MPI processes distributed on     1 nodes
     91400 MiB available memory on the printing compute node when the environment starts

     Reading input from /home/jvc/QEspresso7.2/ZnO_DataBase/scfs_rnd025.in/scf-5.56-1.74-1.in

     Current dimensions of program PWSCF are:
     Max number of different atomic species (ntypx) = 10
     Max number of k-points (npk) =  40000
     Max angular momentum in pseudopotentials (lmaxx) =  4
     file Zn.upf: wavefunction(s)  3D renormalized

     R & G space division:  proc/nbgrp/npool/nimage =       8
     Subspace diagonalization in iterative solution of the eigenvalue problem:
     a serial algorithm will be used


     Parallelization info
     --------------------
     sticks:   dense  smooth     PW     G-vecs:    dense   smooth      PW
     Min         105      53     15                 4375     1553     257
     Max         106      55     16                 4384     1554     266
     Sum         847     433    127                35059    12427    2083

     Using Slab Decomposition



     bravais-lattice index     =            4
     lattice parameter (alat)  =       5.5609  a.u.
     unit-cell volume          =     259.6563 (a.u.)^3
     number of atoms/cell      =            4
     number of atomic types    =            2
     number of electrons       =        36.00
     number of Kohn-Sham states=           18
     kinetic-energy cutoff     =      50.0000  Ry
     charge density cutoff     =     400.0000  Ry
     scf convergence threshold =      1.0E-08
     mixing beta               =       0.3000
     number of iterations used =            8  plain     mixing
     Exchange-correlation= PBE
                           (   1   4   3   4   0   0   0)

     celldm(1)=   5.560939  celldm(2)=   0.000000  celldm(3)=   1.743507
     celldm(4)=   0.000000  celldm(5)=   0.000000  celldm(6)=   0.000000

     crystal axes: (cart. coord. in units of alat)
               a(1) = (   1.000000   0.000000   0.000000 )  
               a(2) = (  -0.500000   0.866025   0.000000 )  
               a(3) = (   0.000000   0.000000   1.743507 )  

     reciprocal axes: (cart. coord. in units 2 pi/alat)
               b(1) = (  1.000000  0.577350 -0.000000 )  
               b(2) = (  0.000000  1.154701  0.000000 )  
               b(3) = (  0.000000 -0.000000  0.573557 )  


     PseudoPot. # 1 for Zn read from file:
     ./pseudos/Zn.upf
     MD5 check sum: 7f56cabf9682ed8c977c2f7d0c5985c5
     Pseudo is Ultrasoft + core correction, Zval = 12.0
     Generated using &quot;atomic&quot; code by A. Dal Corso  v.6.2.2
     Using radial grid of 1201 points,  6 beta functions with: 
                l(1) =   0
                l(2) =   0
                l(3) =   1
                l(4) =   1
                l(5) =   2
                l(6) =   2
     Q(r) pseudized with 0 coefficients 


     PseudoPot. # 2 for O  read from file:
     ./pseudos/O.upf
     MD5 check sum: 91400c9766925bcf19f520983a725ff0
     Pseudo is Ultrasoft + core correction, Zval =  6.0
     Generated using &quot;atomic&quot; code by A. Dal Corso  v.6.3MaX
     Using radial grid of 1095 points,  4 beta functions with: 
                l(1) =   0
                l(2) =   0
                l(3) =   1
                l(4) =   1
     Q(r) pseudized with 0 coefficients 


     atomic species   valence    mass     pseudopotential
        Zn            12.00    63.38000     Zn( 1.00)
        O              6.00    15.99900     O ( 1.00)

     No symmetry found



   Cartesian axes

     site n.     atom                  positions (alat units)
         1           Zn  tau(   1) = (   0.6365987   0.1615903   1.2197215  )
         2           Zn  tau(   2) = (  -0.1318897   0.7316940  -0.3350850  )
         3           O   tau(   3) = (   0.5224160   0.3964695   1.3092703  )
         4           O   tau(   4) = (  -0.0256305   0.3675390   1.0227045  )

     number of k points=   112

     Number of k-points >= 100: set verbosity='high' to print them.

     Dense  grid:    35059 G-vectors     FFT dimensions: (  36,  36,  64)

     Smooth grid:    12427 G-vectors     FFT dimensions: (  25,  25,  45)

     Estimated max dynamical RAM per process >      24.75 MB

     Estimated total dynamical RAM >     198.02 MB

     Check: negative core charge=   -0.000002

     Initial potential from superposition of free atoms

     starting charge      35.9925, renormalised to      36.0000
     Starting wfcs are   26 randomized atomic wfcs

     total cpu time spent up to now is        3.2 secs

     Self-consistent Calculation

     iteration #  1     ecut=    50.00 Ry     beta= 0.30
     Davidson diagonalization with overlap
     ethr =  1.00E-02,  avg # of iterations =  5.0

     total cpu time spent up to now is       10.0 secs

     total energy              =    -349.65251792 Ry
     estimated scf accuracy    <       1.60379063 Ry

     iteration #  2     ecut=    50.00 Ry     beta= 0.30
     Davidson diagonalization with overlap
     ethr =  4.45E-03,  avg # of iterations =  2.3

     total cpu time spent up to now is       14.7 secs

     total energy              =    -349.62171055 Ry
     estimated scf accuracy    <       0.43441074 Ry

     iteration #  3     ecut=    50.00 Ry     beta= 0.30
     Davidson diagonalization with overlap
     ethr =  1.21E-03,  avg # of iterations =  7.1

     total cpu time spent up to now is       22.5 secs

     total energy              =    -349.84316983 Ry
     estimated scf accuracy    <       0.29225075 Ry

     iteration #  4     ecut=    50.00 Ry     beta= 0.30
     Davidson diagonalization with overlap
     ethr =  8.12E-04,  avg # of iterations =  1.9

     total cpu time spent up to now is       26.4 secs

     total energy              =    -349.75565368 Ry
     estimated scf accuracy    <       0.13035265 Ry

     iteration #  5     ecut=    50.00 Ry     beta= 0.30
     Davidson diagonalization with overlap
     c_bands:  1 eigenvalues not converged
     ethr =  3.62E-04,  avg # of iterations = 12.9

     total cpu time spent up to now is       37.7 secs

     total energy              =    -349.75966866 Ry
     estimated scf accuracy    <       1.37450979 Ry

     iteration #  6     ecut=    50.00 Ry     beta= 0.30
     Davidson diagonalization with overlap
     ethr =  3.62E-04,  avg # of iterations =  8.4

     total cpu time spent up to now is       45.3 secs

     total energy              =    -349.88029578 Ry
     estimated scf accuracy    <       0.13045769 Ry

     iteration #  7     ecut=    50.00 Ry     beta= 0.30
     Davidson diagonalization with overlap
     ethr =  3.62E-04,  avg # of iterations =  1.1

     total cpu time spent up to now is       48.8 secs

     total energy              =    -349.82092975 Ry
     estimated scf accuracy    <       0.13172742 Ry

     iteration #  8     ecut=    50.00 Ry     beta= 0.30
     Davidson diagonalization with overlap
     ethr =  3.62E-04,  avg # of iterations =  8.8

     total cpu time spent up to now is       54.4 secs

     total energy              =    -349.85690015 Ry
     estimated scf accuracy    <       0.01628681 Ry

     iteration #  9     ecut=    50.00 Ry     beta= 0.30
     Davidson diagonalization with overlap
     ethr =  4.52E-05,  avg # of iterations =  4.7

     total cpu time spent up to now is       60.1 secs

     total energy              =    -349.86143710 Ry
     estimated scf accuracy    <       0.01877597 Ry

     iteration # 10     ecut=    50.00 Ry     beta= 0.30
     Davidson diagonalization with overlap
     ethr =  4.52E-05,  avg # of iterations =  1.5

     total cpu time spent up to now is       63.7 secs

     total energy              =    -349.85630134 Ry
     estimated scf accuracy    <       0.01560512 Ry

     iteration # 11     ecut=    50.00 Ry     beta= 0.30
     Davidson diagonalization with overlap
     ethr =  4.33E-05,  avg # of iterations =  8.0

     total cpu time spent up to now is       68.8 secs

     total energy              =    -349.86015939 Ry
     estimated scf accuracy    <       0.00035043 Ry

     iteration # 12     ecut=    50.00 Ry     beta= 0.30
     Davidson diagonalization with overlap
     c_bands:  1 eigenvalues not converged
     ethr =  9.73E-07,  avg # of iterations =  9.7

     total cpu time spent up to now is       76.8 secs

     total energy              =    -349.86065997 Ry
     estimated scf accuracy    <       0.00002798 Ry

     iteration # 13     ecut=    50.00 Ry     beta= 0.30
     Davidson diagonalization with overlap
     c_bands:  1 eigenvalues not converged
     c_bands:  1 eigenvalues not converged
     c_bands:  1 eigenvalues not converged
     c_bands:  1 eigenvalues not converged
     c_bands:  1 eigenvalues not converged
     c_bands:  1 eigenvalues not converged
     c_bands:  1 eigenvalues not converged
     c_bands:  1 eigenvalues not converged
     c_bands:  1 eigenvalues not converged
     c_bands:  1 eigenvalues not converged
     c_bands:  1 eigenvalues not converged
     c_bands:  1 eigenvalues not converged
     c_bands:  1 eigenvalues not converged
     c_bands:  1 eigenvalues not converged
     ethr =  7.77E-08,  avg # of iterations = 13.0

     total cpu time spent up to now is       86.7 secs

     total energy              =    -349.86056144 Ry
     estimated scf accuracy    <       0.00049529 Ry

     iteration # 14     ecut=    50.00 Ry     beta= 0.30
     Davidson diagonalization with overlap
     c_bands:  1 eigenvalues not converged
     c_bands:  1 eigenvalues not converged
     c_bands:  1 eigenvalues not converged
     c_bands:  1 eigenvalues not converged
     c_bands:  1 eigenvalues not converged
     c_bands:  1 eigenvalues not converged
     c_bands:  1 eigenvalues not converged
     c_bands:  1 eigenvalues not converged
     c_bands:  1 eigenvalues not converged
     c_bands:  1 eigenvalues not converged
     c_bands:  1 eigenvalues not converged
     c_bands:  1 eigenvalues not converged
     c_bands:  1 eigenvalues not converged
     ethr =  7.77E-08,  avg # of iterations = 13.8

     total cpu time spent up to now is       97.0 secs

     total energy              =    -349.86064428 Ry
     estimated scf accuracy    <       0.00001160 Ry

     iteration # 15     ecut=    50.00 Ry     beta= 0.30
     Davidson diagonalization with overlap
     c_bands:  1 eigenvalues not converged
     ethr =  3.22E-08,  avg # of iterations = 11.5

     total cpu time spent up to now is      104.9 secs

     total energy              =    -349.86064630 Ry
     estimated scf accuracy    <       0.00010103 Ry

     iteration # 16     ecut=    50.00 Ry     beta= 0.30
     Davidson diagonalization with overlap
     ethr =  3.22E-08,  avg # of iterations =  2.4

     total cpu time spent up to now is      108.8 secs

     total energy              =    -349.86064105 Ry
     estimated scf accuracy    <       0.00007391 Ry

     iteration # 17     ecut=    50.00 Ry     beta= 0.30
     Davidson diagonalization with overlap
     ethr =  3.22E-08,  avg # of iterations =  5.5

     total cpu time spent up to now is      113.5 secs

     total energy              =    -349.86063530 Ry
     estimated scf accuracy    <       0.00003901 Ry

     iteration # 18     ecut=    50.00 Ry     beta= 0.30
     Davidson diagonalization with overlap
     ethr =  3.22E-08,  avg # of iterations =  6.5

     total cpu time spent up to now is      118.3 secs

     total energy              =    -349.86063281 Ry
     estimated scf accuracy    <       0.00001058 Ry

     iteration # 19     ecut=    50.00 Ry     beta= 0.30
     Davidson diagonalization with overlap
     ethr =  2.94E-08,  avg # of iterations =  8.8

     total cpu time spent up to now is      124.8 secs

     total energy              =    -349.86063741 Ry
     estimated scf accuracy    <       0.00000629 Ry

     iteration # 20     ecut=    50.00 Ry     beta= 0.30
     Davidson diagonalization with overlap
     ethr =  1.75E-08,  avg # of iterations =  2.6

     total cpu time spent up to now is      128.7 secs

     total energy              =    -349.86063714 Ry
     estimated scf accuracy    <       0.00000213 Ry

     iteration # 21     ecut=    50.00 Ry     beta= 0.30
     Davidson diagonalization with overlap
     ethr =  5.91E-09,  avg # of iterations =  7.1

     total cpu time spent up to now is      134.5 secs

     total energy              =    -349.86063801 Ry
     estimated scf accuracy    <       0.00000021 Ry

     iteration # 22     ecut=    50.00 Ry     beta= 0.30
     Davidson diagonalization with overlap
     ethr =  5.84E-10,  avg # of iterations =  6.9

     total cpu time spent up to now is      139.5 secs

     total energy              =    -349.86063806 Ry
     estimated scf accuracy    <       0.00000002 Ry

     iteration # 23     ecut=    50.00 Ry     beta= 0.30
     Davidson diagonalization with overlap
     c_bands:  1 eigenvalues not converged
     ethr =  4.86E-11,  avg # of iterations =  7.2

     total cpu time spent up to now is      146.1 secs

     End of self-consistent calculation

     Number of k-points >= 100: set verbosity='high' to print the bands.

     highest occupied level (ev):    15.0637

!    total energy              =    -349.86063807 Ry
     estimated scf accuracy    <          4.7E-10 Ry

     The total energy is the sum of the following terms:
     one-electron contribution =    -472.33863185 Ry
     hartree contribution      =     274.89763943 Ry
     xc contribution           =    -114.14813157 Ry
     ewald contribution        =     -38.27151408 Ry

     convergence has been achieved in  23 iterations

     Forces acting on atoms (cartesian axes, Ry/au):

     atom    1 type  1   force =     9.33024219  -15.77560390   -7.60315229
     atom    2 type  1   force =    -1.93265920   -1.96439479    2.53229038
     atom    3 type  2   force =    -8.88941446   17.18509930    6.66320738
     atom    4 type  2   force =     1.49183147    0.55489938   -1.59234547
     The non-local contrib.  to forces
     atom    1 type  1   force =    -3.53537870    2.49984255    2.64107569
     atom    2 type  1   force =     1.50148413    1.90117572   -1.73723773
     atom    3 type  2   force =     1.05397497   -0.50137163    0.03904933
     atom    4 type  2   force =    -0.73667760    0.00303951    0.51230321
     The ionic contribution  to forces
     atom    1 type  1   force =    27.91428276  -36.03464269  -35.61205451
     atom    2 type  1   force =   -12.23214221   -9.52341486   53.01654636
     atom    3 type  2   force =   -28.64342632   44.03107676   21.71946909
     atom    4 type  2   force =    12.96128577    1.52698080  -39.12396094
     The local contribution  to forces
     atom    1 type  1   force =   -14.74409542   17.15052434   25.08544551
     atom    2 type  1   force =     8.74496283    5.63806316  -48.59995157
     atom    3 type  2   force =    18.68962844  -26.31844513  -15.08300848
     atom    4 type  2   force =   -10.73149316   -0.97317167   37.01420103
     The core correction contribution to forces
     atom    1 type  1   force =    -0.30452882    0.60863755    0.28237754
     atom    2 type  1   force =     0.05301589    0.01978381   -0.14712148
     atom    3 type  2   force =     0.01040153   -0.02613942   -0.01231384
     atom    4 type  2   force =    -0.00128413   -0.00193008    0.00511236
     The Hubbard contrib.    to forces
     atom    1 type  1   force =     0.00000000    0.00000000    0.00000000
     atom    2 type  1   force =     0.00000000    0.00000000    0.00000000
     atom    3 type  2   force =     0.00000000    0.00000000    0.00000000
     atom    4 type  2   force =     0.00000000    0.00000000    0.00000000
     The SCF correction term to forces
     atom    1 type  1   force =    -0.00004075    0.00004361    0.00000395
     atom    2 type  1   force =     0.00001704    0.00000664    0.00005528
     atom    3 type  2   force =     0.00000380   -0.00001201    0.00001176
     atom    4 type  2   force =    -0.00000254   -0.00000992   -0.00000066

     Total force =    28.836682     Total SCF correction =     0.000086

     Writing all to output data dir ./ZnO_ANN.save/

     init_run     :      2.69s CPU      2.77s WALL (       1 calls)
     electrons    :    139.49s CPU    142.86s WALL (       1 calls)
     forces       :      0.82s CPU      0.83s WALL (       1 calls)

     Called by init_run:
     wfcinit      :      1.94s CPU      1.99s WALL (       1 calls)
     potinit      :      0.16s CPU      0.16s WALL (       1 calls)
     hinit0       :      0.53s CPU      0.54s WALL (       1 calls)

     Called by electrons:
     c_bands      :    126.17s CPU    129.12s WALL (      23 calls)
     sum_band     :     11.91s CPU     12.30s WALL (      23 calls)
     v_of_rho     :      0.27s CPU      0.29s WALL (      24 calls)
     newd         :      1.12s CPU      1.14s WALL (      24 calls)
     mix_rho      :      0.05s CPU      0.05s WALL (      23 calls)

     Called by c_bands:
     init_us_2    :      0.95s CPU      0.97s WALL (    5376 calls)
     init_us_2:cp :      0.93s CPU      0.96s WALL (    5376 calls)
     cegterg      :    123.27s CPU    126.14s WALL (    2576 calls)

     Called by *egterg:
     cdiaghg      :     22.51s CPU     22.83s WALL (   20121 calls)
     h_psi        :     64.02s CPU     66.03s WALL (   20233 calls)
     s_psi        :      9.00s CPU      9.10s WALL (   20233 calls)
     g_psi        :      0.25s CPU      0.26s WALL (   17545 calls)

     Called by h_psi:
     h_psi:calbec :      9.61s CPU     10.04s WALL (   20233 calls)
     vloc_psi     :     45.10s CPU     46.57s WALL (   20233 calls)
     add_vuspsi   :      9.00s CPU      9.11s WALL (   20233 calls)

     General routines
     calbec       :     12.88s CPU     13.43s WALL (   23257 calls)
     fft          :      0.45s CPU      0.48s WALL (     321 calls)
     ffts         :      0.05s CPU      0.06s WALL (      47 calls)
     fftw         :     45.51s CPU     47.01s WALL (  349144 calls)
     interpolate  :      0.06s CPU      0.07s WALL (      24 calls)

     Parallel routines

     PWSCF        :   2m23.71s CPU   2m27.28s WALL


   This run was terminated on:  12: 6:29  23Jun2025            

=------------------------------------------------------------------------------=
   JOB DONE.
=------------------------------------------------------------------------------=
Note: The following floating-point exceptions are signalling: IEEE_INVALID_FLAG
