
     Program PWSCF v.7.2 starts on 23Jun2025 at 16: 9:49 

     This program is part of the open-source Quantum ESPRESSO suite
     for quantum simulation of materials; please cite
         "P. Giannozzi et al., J. Phys.:Condens. Matter 21 395502 (2009);
         "P. Giannozzi et al., J. Phys.:Condens. Matter 29 465901 (2017);
         "P. Giannozzi et al., J. Chem. Phys. 152 154105 (2020);
          URL http://www.quantum-espresso.org", 
     in publications or presentations arising from this work. More details at
     http://www.quantum-espresso.org/quote

     Parallel version (MPI), running on     8 processors

     MPI processes distributed on     1 nodes
     90894 MiB available memory on the printing compute node when the environment starts

     Reading input from /home/jvc/QEspresso7.2/ZnO_DataBase/scfs_rnd025.in/scf-6.43-1.68-2.in

     Current dimensions of program PWSCF are:
     Max number of different atomic species (ntypx) = 10
     Max number of k-points (npk) =  40000
     Max angular momentum in pseudopotentials (lmaxx) =  4
     file Zn.upf: wavefunction(s)  3D renormalized

     R & G space division:  proc/nbgrp/npool/nimage =       8
     Subspace diagonalization in iterative solution of the eigenvalue problem:
     a serial algorithm will be used


     Parallelization info
     --------------------
     sticks:   dense  smooth     PW     G-vecs:    dense   smooth      PW
     Min         143      71     20                 6521     2309     376
     Max         145      73     21                 6524     2311     385
     Sum        1147     571    163                52179    18475    3033

     Using Slab Decomposition



     bravais-lattice index     =            4
     lattice parameter (alat)  =       6.4260  a.u.
     unit-cell volume          =     385.8166 (a.u.)^3
     number of atoms/cell      =            4
     number of atomic types    =            2
     number of electrons       =        36.00
     number of Kohn-Sham states=           18
     kinetic-energy cutoff     =      50.0000  Ry
     charge density cutoff     =     400.0000  Ry
     scf convergence threshold =      1.0E-08
     mixing beta               =       0.3000
     number of iterations used =            8  plain     mixing
     Exchange-correlation= PBE
                           (   1   4   3   4   0   0   0)

     celldm(1)=   6.425974  celldm(2)=   0.000000  celldm(3)=   1.678933
     celldm(4)=   0.000000  celldm(5)=   0.000000  celldm(6)=   0.000000

     crystal axes: (cart. coord. in units of alat)
               a(1) = (   1.000000   0.000000   0.000000 )  
               a(2) = (  -0.500000   0.866025   0.000000 )  
               a(3) = (   0.000000   0.000000   1.678933 )  

     reciprocal axes: (cart. coord. in units 2 pi/alat)
               b(1) = (  1.000000  0.577350 -0.000000 )  
               b(2) = (  0.000000  1.154701  0.000000 )  
               b(3) = (  0.000000 -0.000000  0.595616 )  


     PseudoPot. # 1 for Zn read from file:
     ./pseudos/Zn.upf
     MD5 check sum: 7f56cabf9682ed8c977c2f7d0c5985c5
     Pseudo is Ultrasoft + core correction, Zval = 12.0
     Generated using &quot;atomic&quot; code by A. Dal Corso  v.6.2.2
     Using radial grid of 1201 points,  6 beta functions with: 
                l(1) =   0
                l(2) =   0
                l(3) =   1
                l(4) =   1
                l(5) =   2
                l(6) =   2
     Q(r) pseudized with 0 coefficients 


     PseudoPot. # 2 for O  read from file:
     ./pseudos/O.upf
     MD5 check sum: 91400c9766925bcf19f520983a725ff0
     Pseudo is Ultrasoft + core correction, Zval =  6.0
     Generated using &quot;atomic&quot; code by A. Dal Corso  v.6.3MaX
     Using radial grid of 1095 points,  4 beta functions with: 
                l(1) =   0
                l(2) =   0
                l(3) =   1
                l(4) =   1
     Q(r) pseudized with 0 coefficients 


     atomic species   valence    mass     pseudopotential
        Zn            12.00    63.38000     Zn( 1.00)
        O              6.00    15.99900     O ( 1.00)

     No symmetry found



   Cartesian axes

     site n.     atom                  positions (alat units)
         1           Zn  tau(   1) = (   0.6156618   0.3298132   0.8185581  )
         2           Zn  tau(   2) = (  -0.2069169   0.6120065  -0.3510064  )
         3           O   tau(   3) = (   0.6881331   0.3820192   1.5600851  )
         4           O   tau(   4) = (  -0.0244911   0.5780143   0.4355402  )

     number of k points=   112

     Number of k-points >= 100: set verbosity='high' to print them.

     Dense  grid:    52179 G-vectors     FFT dimensions: (  45,  45,  72)

     Smooth grid:    18475 G-vectors     FFT dimensions: (  30,  30,  50)

     Estimated max dynamical RAM per process >      35.45 MB

     Estimated total dynamical RAM >     283.56 MB

     Check: negative core charge=   -0.000002

     Initial potential from superposition of free atoms

     starting charge      35.9925, renormalised to      36.0000
     Starting wfcs are   26 randomized atomic wfcs

     total cpu time spent up to now is        4.4 secs

     Self-consistent Calculation

     iteration #  1     ecut=    50.00 Ry     beta= 0.30
     Davidson diagonalization with overlap
     ethr =  1.00E-02,  avg # of iterations =  2.0

     total cpu time spent up to now is       10.6 secs

     total energy              =    -359.58173161 Ry
     estimated scf accuracy    <       1.74983686 Ry

     iteration #  2     ecut=    50.00 Ry     beta= 0.30
     Davidson diagonalization with overlap
     ethr =  4.86E-03,  avg # of iterations =  6.2

     total cpu time spent up to now is       19.4 secs

     total energy              =    -360.01878023 Ry
     estimated scf accuracy    <       0.50327142 Ry

     iteration #  3     ecut=    50.00 Ry     beta= 0.30
     Davidson diagonalization with overlap
     ethr =  1.40E-03,  avg # of iterations =  2.5

     total cpu time spent up to now is       25.8 secs

     total energy              =    -359.94639030 Ry
     estimated scf accuracy    <       0.21475488 Ry

     iteration #  4     ecut=    50.00 Ry     beta= 0.30
     Davidson diagonalization with overlap
     ethr =  5.97E-04,  avg # of iterations = 10.3

     total cpu time spent up to now is       38.8 secs

     total energy              =    -360.22225694 Ry
     estimated scf accuracy    <       0.94481787 Ry

     iteration #  5     ecut=    50.00 Ry     beta= 0.30
     Davidson diagonalization with overlap
     ethr =  5.97E-04,  avg # of iterations =  1.0

     total cpu time spent up to now is       44.1 secs

     total energy              =    -360.20489197 Ry
     estimated scf accuracy    <       0.80095440 Ry

     iteration #  6     ecut=    50.00 Ry     beta= 0.30
     Davidson diagonalization with overlap
     ethr =  5.97E-04,  avg # of iterations =  1.0

     total cpu time spent up to now is       49.4 secs

     total energy              =    -360.17126004 Ry
     estimated scf accuracy    <       0.73408966 Ry

     iteration #  7     ecut=    50.00 Ry     beta= 0.30
     Davidson diagonalization with overlap
     ethr =  5.97E-04,  avg # of iterations =  1.0

     total cpu time spent up to now is       54.6 secs

     total energy              =    -360.27782824 Ry
     estimated scf accuracy    <       0.63873365 Ry

     iteration #  8     ecut=    50.00 Ry     beta= 0.30
     Davidson diagonalization with overlap
     ethr =  5.97E-04,  avg # of iterations =  1.9

     total cpu time spent up to now is       60.4 secs

     total energy              =    -359.99806050 Ry
     estimated scf accuracy    <       0.84353163 Ry

     iteration #  9     ecut=    50.00 Ry     beta= 0.30
     Davidson diagonalization with overlap
     ethr =  5.97E-04,  avg # of iterations =  8.6

     total cpu time spent up to now is       70.2 secs

     total energy              =    -360.14677996 Ry
     estimated scf accuracy    <       0.14465628 Ry

     iteration # 10     ecut=    50.00 Ry     beta= 0.30
     Davidson diagonalization with overlap
     ethr =  4.02E-04,  avg # of iterations =  1.1

     total cpu time spent up to now is       75.7 secs

     total energy              =    -360.18500552 Ry
     estimated scf accuracy    <       0.15027936 Ry

     iteration # 11     ecut=    50.00 Ry     beta= 0.30
     Davidson diagonalization with overlap
     ethr =  4.02E-04,  avg # of iterations =  7.6

     total cpu time spent up to now is       83.8 secs

     total energy              =    -360.28113548 Ry
     estimated scf accuracy    <       0.78258446 Ry

     iteration # 12     ecut=    50.00 Ry     beta= 0.30
     Davidson diagonalization with overlap
     ethr =  4.02E-04,  avg # of iterations =  4.3

     total cpu time spent up to now is       90.5 secs

     total energy              =    -360.36772626 Ry
     estimated scf accuracy    <       1.32941535 Ry

     iteration # 13     ecut=    50.00 Ry     beta= 0.30
     Davidson diagonalization with overlap
     ethr =  4.02E-04,  avg # of iterations =  5.3

     total cpu time spent up to now is       97.5 secs

     total energy              =    -360.15436552 Ry
     estimated scf accuracy    <       2.13891386 Ry

     iteration # 14     ecut=    50.00 Ry     beta= 0.30
     Davidson diagonalization with overlap
     ethr =  4.02E-04,  avg # of iterations =  4.1

     total cpu time spent up to now is      104.2 secs

     total energy              =    -359.85347333 Ry
     estimated scf accuracy    <       1.42570530 Ry

     iteration # 15     ecut=    50.00 Ry     beta= 0.30
     Davidson diagonalization with overlap
     c_bands:  2 eigenvalues not converged
     c_bands:  3 eigenvalues not converged
     ethr =  4.02E-04,  avg # of iterations = 12.7

     total cpu time spent up to now is      118.1 secs

     total energy              =    -360.11682153 Ry
     estimated scf accuracy    <       0.09861369 Ry

     iteration # 16     ecut=    50.00 Ry     beta= 0.30
     Davidson diagonalization with overlap
     ethr =  2.74E-04,  avg # of iterations =  1.1

     total cpu time spent up to now is      123.5 secs

     total energy              =    -360.11042314 Ry
     estimated scf accuracy    <       0.07794453 Ry

     iteration # 17     ecut=    50.00 Ry     beta= 0.30
     Davidson diagonalization with overlap
     ethr =  2.17E-04,  avg # of iterations =  1.3

     total cpu time spent up to now is      129.0 secs

     total energy              =    -360.10531705 Ry
     estimated scf accuracy    <       0.05503272 Ry

     iteration # 18     ecut=    50.00 Ry     beta= 0.30
     Davidson diagonalization with overlap
     ethr =  1.53E-04,  avg # of iterations =  1.9

     total cpu time spent up to now is      134.7 secs

     total energy              =    -360.10377673 Ry
     estimated scf accuracy    <       0.03506249 Ry

     iteration # 19     ecut=    50.00 Ry     beta= 0.30
     Davidson diagonalization with overlap
     ethr =  9.74E-05,  avg # of iterations =  5.0

     total cpu time spent up to now is      141.6 secs

     total energy              =    -360.10766893 Ry
     estimated scf accuracy    <       0.00673595 Ry

     iteration # 20     ecut=    50.00 Ry     beta= 0.30
     Davidson diagonalization with overlap
     c_bands:  3 eigenvalues not converged
     c_bands:  1 eigenvalues not converged
     c_bands:  1 eigenvalues not converged
     ethr =  1.87E-05,  avg # of iterations = 10.9

     total cpu time spent up to now is      153.6 secs

     total energy              =    -360.10694509 Ry
     estimated scf accuracy    <       0.04700276 Ry

     iteration # 21     ecut=    50.00 Ry     beta= 0.30
     Davidson diagonalization with overlap
     c_bands:  2 eigenvalues not converged
     c_bands:  1 eigenvalues not converged
     c_bands:  2 eigenvalues not converged
     c_bands:  1 eigenvalues not converged
     ethr =  1.87E-05,  avg # of iterations =  8.7

     total cpu time spent up to now is      164.5 secs

     total energy              =    -360.11415857 Ry
     estimated scf accuracy    <       0.00487748 Ry

     iteration # 22     ecut=    50.00 Ry     beta= 0.30
     Davidson diagonalization with overlap
     c_bands:  1 eigenvalues not converged
     ethr =  1.35E-05,  avg # of iterations =  7.7

     total cpu time spent up to now is      174.2 secs

     total energy              =    -360.11774606 Ry
     estimated scf accuracy    <       0.00791105 Ry

     iteration # 23     ecut=    50.00 Ry     beta= 0.30
     Davidson diagonalization with overlap
     ethr =  1.35E-05,  avg # of iterations =  1.4

     total cpu time spent up to now is      179.7 secs

     total energy              =    -360.11819270 Ry
     estimated scf accuracy    <       0.00941446 Ry

     iteration # 24     ecut=    50.00 Ry     beta= 0.30
     Davidson diagonalization with overlap
     ethr =  1.35E-05,  avg # of iterations =  1.6

     total cpu time spent up to now is      185.2 secs

     total energy              =    -360.11620908 Ry
     estimated scf accuracy    <       0.01109671 Ry

     iteration # 25     ecut=    50.00 Ry     beta= 0.30
     Davidson diagonalization with overlap
     ethr =  1.35E-05,  avg # of iterations =  1.1

     total cpu time spent up to now is      190.5 secs

     total energy              =    -360.11468563 Ry
     estimated scf accuracy    <       0.00727497 Ry

     iteration # 26     ecut=    50.00 Ry     beta= 0.30
     Davidson diagonalization with overlap
     ethr =  1.35E-05,  avg # of iterations =  6.9

     total cpu time spent up to now is      198.6 secs

     total energy              =    -360.11662786 Ry
     estimated scf accuracy    <       0.00046982 Ry

     iteration # 27     ecut=    50.00 Ry     beta= 0.30
     Davidson diagonalization with overlap
     ethr =  1.31E-06,  avg # of iterations =  5.7

     total cpu time spent up to now is      206.6 secs

     total energy              =    -360.11662998 Ry
     estimated scf accuracy    <       0.00116575 Ry

     iteration # 28     ecut=    50.00 Ry     beta= 0.30
     Davidson diagonalization with overlap
     ethr =  1.31E-06,  avg # of iterations =  3.6

     total cpu time spent up to now is      213.1 secs

     total energy              =    -360.11665842 Ry
     estimated scf accuracy    <       0.00053685 Ry

     iteration # 29     ecut=    50.00 Ry     beta= 0.30
     Davidson diagonalization with overlap
     ethr =  1.31E-06,  avg # of iterations =  1.5

     total cpu time spent up to now is      218.6 secs

     total energy              =    -360.11660253 Ry
     estimated scf accuracy    <       0.00044976 Ry

     iteration # 30     ecut=    50.00 Ry     beta= 0.30
     Davidson diagonalization with overlap
     ethr =  1.25E-06,  avg # of iterations =  3.6

     total cpu time spent up to now is      225.3 secs

     total energy              =    -360.11662964 Ry
     estimated scf accuracy    <       0.00010311 Ry

     iteration # 31     ecut=    50.00 Ry     beta= 0.30
     Davidson diagonalization with overlap
     c_bands:  2 eigenvalues not converged
     c_bands:  3 eigenvalues not converged
     ethr =  2.86E-07,  avg # of iterations =  8.6

     total cpu time spent up to now is      235.3 secs

     total energy              =    -360.11670332 Ry
     estimated scf accuracy    <       0.00013099 Ry

     iteration # 32     ecut=    50.00 Ry     beta= 0.30
     Davidson diagonalization with overlap
     ethr =  2.86E-07,  avg # of iterations =  1.2

     total cpu time spent up to now is      240.3 secs

     total energy              =    -360.11667378 Ry
     estimated scf accuracy    <       0.00011238 Ry

     iteration # 33     ecut=    50.00 Ry     beta= 0.30
     Davidson diagonalization with overlap
     ethr =  2.86E-07,  avg # of iterations =  5.0

     total cpu time spent up to now is      247.0 secs

     total energy              =    -360.11668793 Ry
     estimated scf accuracy    <       0.00000381 Ry

     iteration # 34     ecut=    50.00 Ry     beta= 0.30
     Davidson diagonalization with overlap
     c_bands:  2 eigenvalues not converged
     c_bands:  1 eigenvalues not converged
     c_bands:  1 eigenvalues not converged
     c_bands:  2 eigenvalues not converged
     c_bands:  2 eigenvalues not converged
     c_bands:  2 eigenvalues not converged
     c_bands:  2 eigenvalues not converged
     ethr =  1.06E-08,  avg # of iterations = 12.2

     total cpu time spent up to now is      259.7 secs

     total energy              =    -360.11669891 Ry
     estimated scf accuracy    <       0.00002915 Ry

     iteration # 35     ecut=    50.00 Ry     beta= 0.30
     Davidson diagonalization with overlap
     ethr =  1.06E-08,  avg # of iterations =  1.5

     total cpu time spent up to now is      264.9 secs

     total energy              =    -360.11669473 Ry
     estimated scf accuracy    <       0.00002878 Ry

     iteration # 36     ecut=    50.00 Ry     beta= 0.30
     Davidson diagonalization with overlap
     ethr =  1.06E-08,  avg # of iterations =  7.2

     total cpu time spent up to now is      272.8 secs

     total energy              =    -360.11669586 Ry
     estimated scf accuracy    <       0.00000637 Ry

     iteration # 37     ecut=    50.00 Ry     beta= 0.30
     Davidson diagonalization with overlap
     ethr =  1.06E-08,  avg # of iterations =  1.3

     total cpu time spent up to now is      277.9 secs

     total energy              =    -360.11669510 Ry
     estimated scf accuracy    <       0.00000565 Ry

     iteration # 38     ecut=    50.00 Ry     beta= 0.30
     Davidson diagonalization with overlap
     ethr =  1.06E-08,  avg # of iterations =  3.4

     total cpu time spent up to now is      284.2 secs

     total energy              =    -360.11669492 Ry
     estimated scf accuracy    <       0.00000131 Ry

     iteration # 39     ecut=    50.00 Ry     beta= 0.30
     Davidson diagonalization with overlap
     c_bands:  2 eigenvalues not converged
     c_bands:  2 eigenvalues not converged
     c_bands:  2 eigenvalues not converged
     c_bands:  1 eigenvalues not converged
     c_bands:  1 eigenvalues not converged
     c_bands:  1 eigenvalues not converged
     ethr =  3.64E-09,  avg # of iterations =  9.5

     total cpu time spent up to now is      294.8 secs

     total energy              =    -360.11669616 Ry
     estimated scf accuracy    <       0.00000671 Ry

     iteration # 40     ecut=    50.00 Ry     beta= 0.30
     Davidson diagonalization with overlap
     ethr =  3.64E-09,  avg # of iterations =  1.3

     total cpu time spent up to now is      299.9 secs

     total energy              =    -360.11669613 Ry
     estimated scf accuracy    <       0.00000552 Ry

     iteration # 41     ecut=    50.00 Ry     beta= 0.30
     Davidson diagonalization with overlap
     ethr =  3.64E-09,  avg # of iterations =  1.0

     total cpu time spent up to now is      305.0 secs

     total energy              =    -360.11669618 Ry
     estimated scf accuracy    <       0.00000524 Ry

     iteration # 42     ecut=    50.00 Ry     beta= 0.30
     Davidson diagonalization with overlap
     ethr =  3.64E-09,  avg # of iterations =  1.0

     total cpu time spent up to now is      310.3 secs

     total energy              =    -360.11669564 Ry
     estimated scf accuracy    <       0.00000495 Ry

     iteration # 43     ecut=    50.00 Ry     beta= 0.30
     Davidson diagonalization with overlap
     ethr =  3.64E-09,  avg # of iterations =  4.9

     total cpu time spent up to now is      317.1 secs

     total energy              =    -360.11669574 Ry
     estimated scf accuracy    <       0.00000172 Ry

     iteration # 44     ecut=    50.00 Ry     beta= 0.30
     Davidson diagonalization with overlap
     ethr =  3.64E-09,  avg # of iterations =  1.5

     total cpu time spent up to now is      322.5 secs

     total energy              =    -360.11669561 Ry
     estimated scf accuracy    <       0.00000140 Ry

     iteration # 45     ecut=    50.00 Ry     beta= 0.30
     Davidson diagonalization with overlap
     ethr =  3.64E-09,  avg # of iterations =  2.9

     total cpu time spent up to now is      328.6 secs

     total energy              =    -360.11669564 Ry
     estimated scf accuracy    <       0.00000054 Ry

     iteration # 46     ecut=    50.00 Ry     beta= 0.30
     Davidson diagonalization with overlap
     ethr =  1.49E-09,  avg # of iterations =  6.0

     total cpu time spent up to now is      336.7 secs

     total energy              =    -360.11669585 Ry
     estimated scf accuracy    <       0.00000007 Ry

     iteration # 47     ecut=    50.00 Ry     beta= 0.30
     Davidson diagonalization with overlap
     ethr =  2.01E-10,  avg # of iterations =  4.2

     total cpu time spent up to now is      343.7 secs

     total energy              =    -360.11669583 Ry
     estimated scf accuracy    <       0.00000008 Ry

     iteration # 48     ecut=    50.00 Ry     beta= 0.30
     Davidson diagonalization with overlap
     c_bands:  1 eigenvalues not converged
     ethr =  2.01E-10,  avg # of iterations =  7.2

     total cpu time spent up to now is      352.6 secs

     total energy              =    -360.11669588 Ry
     estimated scf accuracy    <       0.00000006 Ry

     iteration # 49     ecut=    50.00 Ry     beta= 0.30
     Davidson diagonalization with overlap
     ethr =  1.80E-10,  avg # of iterations =  1.4

     total cpu time spent up to now is      358.0 secs

     total energy              =    -360.11669586 Ry
     estimated scf accuracy    <       0.00000007 Ry

     iteration # 50     ecut=    50.00 Ry     beta= 0.30
     Davidson diagonalization with overlap
     ethr =  1.80E-10,  avg # of iterations =  1.6

     total cpu time spent up to now is      363.4 secs

     total energy              =    -360.11669587 Ry
     estimated scf accuracy    <       0.00000003 Ry

     iteration # 51     ecut=    50.00 Ry     beta= 0.30
     Davidson diagonalization with overlap
     ethr =  9.31E-11,  avg # of iterations =  1.6

     total cpu time spent up to now is      369.0 secs

     total energy              =    -360.11669587 Ry
     estimated scf accuracy    <       0.00000004 Ry

     iteration # 52     ecut=    50.00 Ry     beta= 0.30
     Davidson diagonalization with overlap
     ethr =  9.31E-11,  avg # of iterations =  1.4

     total cpu time spent up to now is      374.4 secs

     total energy              =    -360.11669587 Ry
     estimated scf accuracy    <       0.00000004 Ry

     iteration # 53     ecut=    50.00 Ry     beta= 0.30
     Davidson diagonalization with overlap
     ethr =  9.31E-11,  avg # of iterations =  1.3

     total cpu time spent up to now is      379.8 secs

     total energy              =    -360.11669586 Ry
     estimated scf accuracy    <       0.00000003 Ry

     iteration # 54     ecut=    50.00 Ry     beta= 0.30
     Davidson diagonalization with overlap
     ethr =  7.37E-11,  avg # of iterations =  3.9

     total cpu time spent up to now is      386.3 secs

     End of self-consistent calculation

     Number of k-points >= 100: set verbosity='high' to print the bands.

     highest occupied level (ev):     5.4351

!    total energy              =    -360.11669586 Ry
     estimated scf accuracy    <          3.3E-09 Ry

     The total energy is the sum of the following terms:
     one-electron contribution =    -205.02151455 Ry
     hartree contribution      =     138.62081395 Ry
     xc contribution           =    -109.43336678 Ry
     ewald contribution        =    -184.28262849 Ry

     convergence has been achieved in  54 iterations

     Forces acting on atoms (cartesian axes, Ry/au):

     atom    1 type  1   force =    -0.04959302   -0.07814781   -0.24083355
     atom    2 type  1   force =     1.01352470    2.18117820   -1.98877961
     atom    3 type  2   force =    -0.97747540   -2.12159234    2.08854815
     atom    4 type  2   force =     0.01354372    0.01856196    0.14106501
     The non-local contrib.  to forces
     atom    1 type  1   force =    -0.30102886   -0.20121527    0.44635786
     atom    2 type  1   force =     0.16178218    0.39667835   -0.57804796
     atom    3 type  2   force =     0.33500453    0.73956112   -1.14045726
     atom    4 type  2   force =    -0.26993360   -0.16875904    0.92925695
     The ionic contribution  to forces
     atom    1 type  1   force =    -4.25405153   -4.51049036  -12.25352760
     atom    2 type  1   force =     8.82437709   19.08865279   -4.34579119
     atom    3 type  2   force =    -7.56479360  -16.09907223   21.49660235
     atom    4 type  2   force =     2.99446804    1.52090980   -4.89728356
     The local contribution  to forces
     atom    1 type  1   force =     4.48155408    4.61428819   11.57282582
     atom    2 type  1   force =    -7.88180011  -17.10157472    2.75167459
     atom    3 type  2   force =     6.25095990   13.23505920  -18.26814032
     atom    4 type  2   force =    -2.71309809   -1.33488565    4.11837124
     The core correction contribution to forces
     atom    1 type  1   force =     0.02391399    0.01925719   -0.00638431
     atom    2 type  1   force =    -0.09085293   -0.20261134    0.18336373
     atom    3 type  2   force =     0.00135246    0.00286616    0.00047559
     atom    4 type  2   force =     0.00210835    0.00130645   -0.00926677
     The Hubbard contrib.    to forces
     atom    1 type  1   force =     0.00000000    0.00000000    0.00000000
     atom    2 type  1   force =     0.00000000    0.00000000    0.00000000
     atom    3 type  2   force =     0.00000000    0.00000000    0.00000000
     atom    4 type  2   force =     0.00000000    0.00000000    0.00000000
     The SCF correction term to forces
     atom    1 type  1   force =     0.00002399    0.00001982   -0.00011315
     atom    2 type  1   force =     0.00002315    0.00004050    0.00001337
     atom    3 type  2   force =     0.00000598    0.00000078    0.00005995
     atom    4 type  2   force =     0.00000371   -0.00000223   -0.00002070

     Total force =     4.432342     Total SCF correction =     0.000142

     Writing all to output data dir ./ZnO_ANN.save/

     init_run     :      3.81s CPU      3.90s WALL (       1 calls)
     electrons    :    375.87s CPU    381.95s WALL (       1 calls)
     forces       :      1.20s CPU      1.21s WALL (       1 calls)

     Called by init_run:
     wfcinit      :      2.96s CPU      3.01s WALL (       1 calls)
     potinit      :      0.28s CPU      0.29s WALL (       1 calls)
     hinit0       :      0.48s CPU      0.49s WALL (       1 calls)

     Called by electrons:
     c_bands      :    326.02s CPU    331.13s WALL (      54 calls)
     sum_band     :     44.83s CPU     45.68s WALL (      54 calls)
     v_of_rho     :      1.08s CPU      1.14s WALL (      55 calls)
     newd         :      3.74s CPU      3.77s WALL (      55 calls)
     mix_rho      :      0.17s CPU      0.20s WALL (      54 calls)

     Called by c_bands:
     init_us_2    :      3.07s CPU      3.12s WALL (   12320 calls)
     init_us_2:cp :      3.03s CPU      3.09s WALL (   12320 calls)
     cegterg      :    315.64s CPU    320.61s WALL (    6048 calls)

     Called by *egterg:
     cdiaghg      :     31.05s CPU     31.28s WALL (   31004 calls)
     h_psi        :    190.85s CPU    194.64s WALL (   31116 calls)
     s_psi        :     20.82s CPU     20.97s WALL (   31116 calls)
     g_psi        :      0.59s CPU      0.60s WALL (   24956 calls)

     Called by h_psi:
     h_psi:calbec :     26.03s CPU     26.71s WALL (   31116 calls)
     vloc_psi     :    143.35s CPU    146.29s WALL (   31116 calls)
     add_vuspsi   :     20.87s CPU     21.05s WALL (   31116 calls)

     General routines
     calbec       :     36.50s CPU     37.43s WALL (   37612 calls)
     fft          :      1.31s CPU      1.41s WALL (     724 calls)
     ffts         :      0.15s CPU      0.15s WALL (     109 calls)
     fftw         :    151.85s CPU    154.96s WALL (  671556 calls)
     interpolate  :      0.18s CPU      0.19s WALL (      55 calls)

     Parallel routines

     PWSCF        :   6m21.59s CPU   6m28.04s WALL


   This run was terminated on:  16:16:17  23Jun2025            

=------------------------------------------------------------------------------=
   JOB DONE.
=------------------------------------------------------------------------------=
Note: The following floating-point exceptions are signalling: IEEE_INVALID_FLAG
