
     Program PWSCF v.7.2 starts on 23Jun2025 at 13:56: 6 

     This program is part of the open-source Quantum ESPRESSO suite
     for quantum simulation of materials; please cite
         "P. Giannozzi et al., J. Phys.:Condens. Matter 21 395502 (2009);
         "P. Giannozzi et al., J. Phys.:Condens. Matter 29 465901 (2017);
         "P. Giannozzi et al., J. Chem. Phys. 152 154105 (2020);
          URL http://www.quantum-espresso.org", 
     in publications or presentations arising from this work. More details at
     http://www.quantum-espresso.org/quote

     Parallel version (MPI), running on     8 processors

     MPI processes distributed on     1 nodes
     91133 MiB available memory on the printing compute node when the environment starts

     Reading input from /home/jvc/QEspresso7.2/ZnO_DataBase/scfs_rnd025.in/scf-6.06-1.61-5.in

     Current dimensions of program PWSCF are:
     Max number of different atomic species (ntypx) = 10
     Max number of k-points (npk) =  40000
     Max angular momentum in pseudopotentials (lmaxx) =  4
     file Zn.upf: wavefunction(s)  3D renormalized

     R & G space division:  proc/nbgrp/npool/nimage =       8
     Subspace diagonalization in iterative solution of the eigenvalue problem:
     a serial algorithm will be used


     Parallelization info
     --------------------
     sticks:   dense  smooth     PW     G-vecs:    dense   smooth      PW
     Min         126      63     18                 5254     1842     314
     Max         127      65     19                 5257     1845     319
     Sum        1015     511    151                42045    14751    2539

     Using Slab Decomposition



     bravais-lattice index     =            4
     lattice parameter (alat)  =       6.0552  a.u.
     unit-cell volume          =     310.4029 (a.u.)^3
     number of atoms/cell      =            4
     number of atomic types    =            2
     number of electrons       =        36.00
     number of Kohn-Sham states=           18
     kinetic-energy cutoff     =      50.0000  Ry
     charge density cutoff     =     400.0000  Ry
     scf convergence threshold =      1.0E-08
     mixing beta               =       0.3000
     number of iterations used =            8  plain     mixing
     Exchange-correlation= PBE
                           (   1   4   3   4   0   0   0)

     celldm(1)=   6.055245  celldm(2)=   0.000000  celldm(3)=   1.614358
     celldm(4)=   0.000000  celldm(5)=   0.000000  celldm(6)=   0.000000

     crystal axes: (cart. coord. in units of alat)
               a(1) = (   1.000000   0.000000   0.000000 )  
               a(2) = (  -0.500000   0.866025   0.000000 )  
               a(3) = (   0.000000   0.000000   1.614358 )  

     reciprocal axes: (cart. coord. in units 2 pi/alat)
               b(1) = (  1.000000  0.577350 -0.000000 )  
               b(2) = (  0.000000  1.154701  0.000000 )  
               b(3) = (  0.000000 -0.000000  0.619441 )  


     PseudoPot. # 1 for Zn read from file:
     ./pseudos/Zn.upf
     MD5 check sum: 7f56cabf9682ed8c977c2f7d0c5985c5
     Pseudo is Ultrasoft + core correction, Zval = 12.0
     Generated using &quot;atomic&quot; code by A. Dal Corso  v.6.2.2
     Using radial grid of 1201 points,  6 beta functions with: 
                l(1) =   0
                l(2) =   0
                l(3) =   1
                l(4) =   1
                l(5) =   2
                l(6) =   2
     Q(r) pseudized with 0 coefficients 


     PseudoPot. # 2 for O  read from file:
     ./pseudos/O.upf
     MD5 check sum: 91400c9766925bcf19f520983a725ff0
     Pseudo is Ultrasoft + core correction, Zval =  6.0
     Generated using &quot;atomic&quot; code by A. Dal Corso  v.6.3MaX
     Using radial grid of 1095 points,  4 beta functions with: 
                l(1) =   0
                l(2) =   0
                l(3) =   1
                l(4) =   1
     Q(r) pseudized with 0 coefficients 


     atomic species   valence    mass     pseudopotential
        Zn            12.00    63.38000     Zn( 1.00)
        O              6.00    15.99900     O ( 1.00)

     No symmetry found



   Cartesian axes

     site n.     atom                  positions (alat units)
         1           Zn  tau(   1) = (   0.4262000   0.2740860   1.0656688  )
         2           Zn  tau(   2) = (  -0.0325413   0.6308510  -0.1515309  )
         3           O   tau(   3) = (   0.8245079   0.0988203   1.6635373  )
         4           O   tau(   4) = (   0.2964444   0.4342721   0.3162338  )

     number of k points=   112

     Number of k-points >= 100: set verbosity='high' to print them.

     Dense  grid:    42045 G-vectors     FFT dimensions: (  40,  40,  64)

     Smooth grid:    14751 G-vectors     FFT dimensions: (  27,  27,  45)

     Estimated max dynamical RAM per process >      29.05 MB

     Estimated total dynamical RAM >     232.41 MB

     Check: negative core charge=   -0.000002

     Initial potential from superposition of free atoms

     starting charge      35.9925, renormalised to      36.0000
     Starting wfcs are   26 randomized atomic wfcs

     total cpu time spent up to now is        3.8 secs

     Self-consistent Calculation

     iteration #  1     ecut=    50.00 Ry     beta= 0.30
     Davidson diagonalization with overlap
     ethr =  1.00E-02,  avg # of iterations =  2.0

     total cpu time spent up to now is        8.8 secs

     total energy              =    -360.55233478 Ry
     estimated scf accuracy    <       0.95077555 Ry

     iteration #  2     ecut=    50.00 Ry     beta= 0.30
     Davidson diagonalization with overlap
     ethr =  2.64E-03,  avg # of iterations =  6.1

     total cpu time spent up to now is       16.2 secs

     total energy              =    -360.88867219 Ry
     estimated scf accuracy    <       0.36204427 Ry

     iteration #  3     ecut=    50.00 Ry     beta= 0.30
     Davidson diagonalization with overlap
     ethr =  1.01E-03,  avg # of iterations =  2.2

     total cpu time spent up to now is       21.3 secs

     total energy              =    -360.80415268 Ry
     estimated scf accuracy    <       0.17951701 Ry

     iteration #  4     ecut=    50.00 Ry     beta= 0.30
     Davidson diagonalization with overlap
     ethr =  4.99E-04,  avg # of iterations = 11.3

     total cpu time spent up to now is       32.9 secs

     total energy              =    -360.94159512 Ry
     estimated scf accuracy    <       0.77721837 Ry

     iteration #  5     ecut=    50.00 Ry     beta= 0.30
     Davidson diagonalization with overlap
     ethr =  4.99E-04,  avg # of iterations =  1.6

     total cpu time spent up to now is       37.7 secs

     total energy              =    -360.96230861 Ry
     estimated scf accuracy    <       0.54841679 Ry

     iteration #  6     ecut=    50.00 Ry     beta= 0.30
     Davidson diagonalization with overlap
     ethr =  4.99E-04,  avg # of iterations =  1.0

     total cpu time spent up to now is       42.2 secs

     total energy              =    -360.78529504 Ry
     estimated scf accuracy    <       0.55451336 Ry

     iteration #  7     ecut=    50.00 Ry     beta= 0.30
     Davidson diagonalization with overlap
     ethr =  4.99E-04,  avg # of iterations =  9.7

     total cpu time spent up to now is       51.2 secs

     total energy              =    -360.98113136 Ry
     estimated scf accuracy    <       0.14599829 Ry

     iteration #  8     ecut=    50.00 Ry     beta= 0.30
     Davidson diagonalization with overlap
     ethr =  4.06E-04,  avg # of iterations =  2.1

     total cpu time spent up to now is       56.1 secs

     total energy              =    -360.92033313 Ry
     estimated scf accuracy    <       0.22862820 Ry

     iteration #  9     ecut=    50.00 Ry     beta= 0.30
     Davidson diagonalization with overlap
     ethr =  4.06E-04,  avg # of iterations =  1.8

     total cpu time spent up to now is       60.9 secs

     total energy              =    -360.91260022 Ry
     estimated scf accuracy    <       0.11325028 Ry

     iteration # 10     ecut=    50.00 Ry     beta= 0.30
     Davidson diagonalization with overlap
     ethr =  3.15E-04,  avg # of iterations =  2.3

     total cpu time spent up to now is       66.0 secs

     total energy              =    -360.92207413 Ry
     estimated scf accuracy    <       0.04220493 Ry

     iteration # 11     ecut=    50.00 Ry     beta= 0.30
     Davidson diagonalization with overlap
     ethr =  1.17E-04,  avg # of iterations =  4.2

     total cpu time spent up to now is       71.5 secs

     total energy              =    -360.92429622 Ry
     estimated scf accuracy    <       0.01503352 Ry

     iteration # 12     ecut=    50.00 Ry     beta= 0.30
     Davidson diagonalization with overlap
     c_bands:  2 eigenvalues not converged
     ethr =  4.18E-05,  avg # of iterations =  6.5

     total cpu time spent up to now is       78.4 secs

     total energy              =    -360.93109587 Ry
     estimated scf accuracy    <       0.00105775 Ry

     iteration # 13     ecut=    50.00 Ry     beta= 0.30
     Davidson diagonalization with overlap
     c_bands:  1 eigenvalues not converged
     c_bands:  1 eigenvalues not converged
     c_bands:  1 eigenvalues not converged
     c_bands:  2 eigenvalues not converged
     c_bands:  2 eigenvalues not converged
     c_bands:  2 eigenvalues not converged
     c_bands:  1 eigenvalues not converged
     c_bands:  1 eigenvalues not converged
     c_bands:  1 eigenvalues not converged
     c_bands:  1 eigenvalues not converged
     c_bands:  1 eigenvalues not converged
     c_bands:  1 eigenvalues not converged
     c_bands:  1 eigenvalues not converged
     c_bands:  1 eigenvalues not converged
     c_bands:  1 eigenvalues not converged
     c_bands:  1 eigenvalues not converged
     c_bands:  2 eigenvalues not converged
     c_bands:  1 eigenvalues not converged
     c_bands:  1 eigenvalues not converged
     c_bands:  2 eigenvalues not converged
     ethr =  2.94E-06,  avg # of iterations = 13.9

     total cpu time spent up to now is       90.6 secs

     total energy              =    -360.92842183 Ry
     estimated scf accuracy    <       0.02867328 Ry

     iteration # 14     ecut=    50.00 Ry     beta= 0.30
     Davidson diagonalization with overlap
     c_bands:  1 eigenvalues not converged
     c_bands:  1 eigenvalues not converged
     c_bands:  1 eigenvalues not converged
     c_bands:  1 eigenvalues not converged
     c_bands:  1 eigenvalues not converged
     c_bands:  1 eigenvalues not converged
     c_bands:  1 eigenvalues not converged
     ethr =  2.94E-06,  avg # of iterations = 13.6

     total cpu time spent up to now is      102.2 secs

     total energy              =    -360.93162192 Ry
     estimated scf accuracy    <       0.00130947 Ry

     iteration # 15     ecut=    50.00 Ry     beta= 0.30
     Davidson diagonalization with overlap
     c_bands:  1 eigenvalues not converged
     ethr =  2.94E-06,  avg # of iterations =  9.6

     total cpu time spent up to now is      110.9 secs

     total energy              =    -360.92899487 Ry
     estimated scf accuracy    <       0.01198760 Ry

     iteration # 16     ecut=    50.00 Ry     beta= 0.30
     Davidson diagonalization with overlap
     c_bands:  1 eigenvalues not converged
     c_bands:  1 eigenvalues not converged
     c_bands:  1 eigenvalues not converged
     c_bands:  1 eigenvalues not converged
     c_bands:  1 eigenvalues not converged
     c_bands:  1 eigenvalues not converged
     c_bands:  1 eigenvalues not converged
     c_bands:  2 eigenvalues not converged
     ethr =  2.94E-06,  avg # of iterations = 12.9

     total cpu time spent up to now is      121.9 secs

     total energy              =    -360.93238487 Ry
     estimated scf accuracy    <       0.00137254 Ry

     iteration # 17     ecut=    50.00 Ry     beta= 0.30
     Davidson diagonalization with overlap
     c_bands:  1 eigenvalues not converged
     c_bands:  1 eigenvalues not converged
     c_bands:  1 eigenvalues not converged
     c_bands:  1 eigenvalues not converged
     c_bands:  1 eigenvalues not converged
     c_bands:  2 eigenvalues not converged
     c_bands:  1 eigenvalues not converged
     c_bands:  1 eigenvalues not converged
     c_bands:  1 eigenvalues not converged
     c_bands:  1 eigenvalues not converged
     c_bands:  1 eigenvalues not converged
     c_bands:  1 eigenvalues not converged
     c_bands:  1 eigenvalues not converged
     c_bands:  1 eigenvalues not converged
     c_bands:  1 eigenvalues not converged
     ethr =  2.94E-06,  avg # of iterations = 15.0

     total cpu time spent up to now is      134.1 secs

     total energy              =    -360.93237969 Ry
     estimated scf accuracy    <       0.03478417 Ry

     iteration # 18     ecut=    50.00 Ry     beta= 0.30
     Davidson diagonalization with overlap
     ethr =  2.94E-06,  avg # of iterations =  6.4

     total cpu time spent up to now is      140.6 secs

     total energy              =    -360.93358189 Ry
     estimated scf accuracy    <       0.02022393 Ry

     iteration # 19     ecut=    50.00 Ry     beta= 0.30
     Davidson diagonalization with overlap
     ethr =  2.94E-06,  avg # of iterations =  1.1

     total cpu time spent up to now is      144.9 secs

     total energy              =    -360.92326802 Ry
     estimated scf accuracy    <       0.02169737 Ry

     iteration # 20     ecut=    50.00 Ry     beta= 0.30
     Davidson diagonalization with overlap
     c_bands:  3 eigenvalues not converged
     c_bands:  1 eigenvalues not converged
     c_bands:  3 eigenvalues not converged
     c_bands:  2 eigenvalues not converged
     c_bands:  2 eigenvalues not converged
     c_bands:  1 eigenvalues not converged
     c_bands:  2 eigenvalues not converged
     c_bands:  2 eigenvalues not converged
     c_bands:  1 eigenvalues not converged
     c_bands:  3 eigenvalues not converged
     c_bands:  1 eigenvalues not converged
     c_bands:  2 eigenvalues not converged
     c_bands:  2 eigenvalues not converged
     c_bands:  1 eigenvalues not converged
     c_bands:  2 eigenvalues not converged
     c_bands:  2 eigenvalues not converged
     c_bands:  3 eigenvalues not converged
     c_bands:  1 eigenvalues not converged
     c_bands:  3 eigenvalues not converged
     c_bands:  2 eigenvalues not converged
     c_bands:  2 eigenvalues not converged
     c_bands:  1 eigenvalues not converged
     c_bands:  2 eigenvalues not converged
     c_bands:  1 eigenvalues not converged
     c_bands:  2 eigenvalues not converged
     c_bands:  2 eigenvalues not converged
     c_bands:  2 eigenvalues not converged
     c_bands:  2 eigenvalues not converged
     c_bands:  2 eigenvalues not converged
     c_bands:  2 eigenvalues not converged
     c_bands:  1 eigenvalues not converged
     c_bands:  1 eigenvalues not converged
     c_bands:  1 eigenvalues not converged
     c_bands:  1 eigenvalues not converged
     c_bands:  2 eigenvalues not converged
     c_bands:  2 eigenvalues not converged
     c_bands:  2 eigenvalues not converged
     c_bands:  3 eigenvalues not converged
     c_bands:  1 eigenvalues not converged
     c_bands:  2 eigenvalues not converged
     c_bands:  1 eigenvalues not converged
     c_bands:  3 eigenvalues not converged
     c_bands:  3 eigenvalues not converged
     c_bands:  1 eigenvalues not converged
     c_bands:  2 eigenvalues not converged
     c_bands:  1 eigenvalues not converged
     c_bands:  1 eigenvalues not converged
     c_bands:  3 eigenvalues not converged
     c_bands:  2 eigenvalues not converged
     c_bands:  2 eigenvalues not converged
     c_bands:  2 eigenvalues not converged
     c_bands:  1 eigenvalues not converged
     c_bands:  3 eigenvalues not converged
     c_bands:  2 eigenvalues not converged
     c_bands:  2 eigenvalues not converged
     c_bands:  2 eigenvalues not converged
     c_bands:  2 eigenvalues not converged
     c_bands:  2 eigenvalues not converged
     c_bands:  2 eigenvalues not converged
     c_bands:  1 eigenvalues not converged
     c_bands:  2 eigenvalues not converged
     c_bands:  1 eigenvalues not converged
     c_bands:  1 eigenvalues not converged
     c_bands:  2 eigenvalues not converged
     c_bands:  2 eigenvalues not converged
     c_bands:  1 eigenvalues not converged
     ethr =  2.94E-06,  avg # of iterations = 18.8

     total cpu time spent up to now is      164.0 secs

     total energy              =    -360.93877673 Ry
     estimated scf accuracy    <       0.03160409 Ry

     iteration # 21     ecut=    50.00 Ry     beta= 0.30
     Davidson diagonalization with overlap
     c_bands:  1 eigenvalues not converged
     c_bands:  1 eigenvalues not converged
     c_bands:  1 eigenvalues not converged
     c_bands:  1 eigenvalues not converged
     c_bands:  1 eigenvalues not converged
     c_bands:  1 eigenvalues not converged
     c_bands:  1 eigenvalues not converged
     c_bands:  1 eigenvalues not converged
     c_bands:  1 eigenvalues not converged
     c_bands:  1 eigenvalues not converged
     c_bands:  1 eigenvalues not converged
     c_bands:  1 eigenvalues not converged
     c_bands:  1 eigenvalues not converged
     c_bands:  1 eigenvalues not converged
     ethr =  2.94E-06,  avg # of iterations = 10.9

     total cpu time spent up to now is      173.0 secs

     total energy              =    -360.92468961 Ry
     estimated scf accuracy    <       0.07382854 Ry

     iteration # 22     ecut=    50.00 Ry     beta= 0.30
     Davidson diagonalization with overlap
     c_bands:  4 eigenvalues not converged
     c_bands:  1 eigenvalues not converged
     c_bands:  1 eigenvalues not converged
     c_bands:  1 eigenvalues not converged
     c_bands:  1 eigenvalues not converged
     c_bands:  2 eigenvalues not converged
     c_bands:  1 eigenvalues not converged
     c_bands:  1 eigenvalues not converged
     c_bands:  2 eigenvalues not converged
     c_bands:  2 eigenvalues not converged
     c_bands:  2 eigenvalues not converged
     c_bands:  2 eigenvalues not converged
     c_bands:  1 eigenvalues not converged
     c_bands:  1 eigenvalues not converged
     c_bands:  2 eigenvalues not converged
     c_bands:  1 eigenvalues not converged
     c_bands:  2 eigenvalues not converged
     c_bands:  1 eigenvalues not converged
     c_bands:  2 eigenvalues not converged
     c_bands:  1 eigenvalues not converged
     c_bands:  1 eigenvalues not converged
     c_bands:  2 eigenvalues not converged
     c_bands:  3 eigenvalues not converged
     c_bands:  2 eigenvalues not converged
     c_bands:  1 eigenvalues not converged
     c_bands:  1 eigenvalues not converged
     c_bands:  1 eigenvalues not converged
     c_bands:  1 eigenvalues not converged
     c_bands:  2 eigenvalues not converged
     c_bands:  1 eigenvalues not converged
     c_bands:  1 eigenvalues not converged
     ethr =  2.94E-06,  avg # of iterations = 16.4

     total cpu time spent up to now is      188.4 secs

     total energy              =    -360.93001933 Ry
     estimated scf accuracy    <       0.00167902 Ry

     iteration # 23     ecut=    50.00 Ry     beta= 0.30
     Davidson diagonalization with overlap
     c_bands:  1 eigenvalues not converged
     c_bands:  1 eigenvalues not converged
     c_bands:  2 eigenvalues not converged
     c_bands:  1 eigenvalues not converged
     c_bands:  1 eigenvalues not converged
     c_bands:  1 eigenvalues not converged
     c_bands:  1 eigenvalues not converged
     c_bands:  2 eigenvalues not converged
     c_bands:  1 eigenvalues not converged
     ethr =  2.94E-06,  avg # of iterations = 10.9

     total cpu time spent up to now is      197.7 secs

     total energy              =    -360.93266767 Ry
     estimated scf accuracy    <       0.00361777 Ry

     iteration # 24     ecut=    50.00 Ry     beta= 0.30
     Davidson diagonalization with overlap
     c_bands:  1 eigenvalues not converged
     c_bands:  1 eigenvalues not converged
     c_bands:  1 eigenvalues not converged
     c_bands:  2 eigenvalues not converged
     ethr =  2.94E-06,  avg # of iterations = 10.0

     total cpu time spent up to now is      206.5 secs

     total energy              =    -360.93505000 Ry
     estimated scf accuracy    <       0.02143141 Ry

     iteration # 25     ecut=    50.00 Ry     beta= 0.30
     Davidson diagonalization with overlap
     ethr =  2.94E-06,  avg # of iterations =  5.2

     total cpu time spent up to now is      212.3 secs

     total energy              =    -360.93469261 Ry
     estimated scf accuracy    <       0.02967553 Ry

     iteration # 26     ecut=    50.00 Ry     beta= 0.30
     Davidson diagonalization with overlap
     ethr =  2.94E-06,  avg # of iterations =  1.4

     total cpu time spent up to now is      216.9 secs

     total energy              =    -360.92911324 Ry
     estimated scf accuracy    <       0.02939974 Ry

     iteration # 27     ecut=    50.00 Ry     beta= 0.30
     Davidson diagonalization with overlap
     c_bands:  1 eigenvalues not converged
     c_bands:  1 eigenvalues not converged
     c_bands:  1 eigenvalues not converged
     c_bands:  2 eigenvalues not converged
     c_bands:  1 eigenvalues not converged
     c_bands:  1 eigenvalues not converged
     ethr =  2.94E-06,  avg # of iterations = 11.2

     total cpu time spent up to now is      227.0 secs

     total energy              =    -360.93080978 Ry
     estimated scf accuracy    <       0.00259717 Ry

     iteration # 28     ecut=    50.00 Ry     beta= 0.30
     Davidson diagonalization with overlap
     c_bands:  1 eigenvalues not converged
     ethr =  2.94E-06,  avg # of iterations =  1.4

     total cpu time spent up to now is      231.5 secs

     total energy              =    -360.93046117 Ry
     estimated scf accuracy    <       0.00214058 Ry

     iteration # 29     ecut=    50.00 Ry     beta= 0.30
     Davidson diagonalization with overlap
     ethr =  2.94E-06,  avg # of iterations =  5.5

     total cpu time spent up to now is      237.5 secs

     total energy              =    -360.93056639 Ry
     estimated scf accuracy    <       0.00026318 Ry

     iteration # 30     ecut=    50.00 Ry     beta= 0.30
     Davidson diagonalization with overlap
     c_bands:  1 eigenvalues not converged
     c_bands:  1 eigenvalues not converged
     c_bands:  1 eigenvalues not converged
     c_bands:  1 eigenvalues not converged
     c_bands:  1 eigenvalues not converged
     c_bands:  1 eigenvalues not converged
     c_bands:  1 eigenvalues not converged
     ethr =  7.31E-07,  avg # of iterations = 10.5

     total cpu time spent up to now is      246.4 secs

     total energy              =    -360.93072198 Ry
     estimated scf accuracy    <       0.00069006 Ry

     iteration # 31     ecut=    50.00 Ry     beta= 0.30
     Davidson diagonalization with overlap
     ethr =  7.31E-07,  avg # of iterations =  3.6

     total cpu time spent up to now is      251.8 secs

     total energy              =    -360.93068841 Ry
     estimated scf accuracy    <       0.00023266 Ry

     iteration # 32     ecut=    50.00 Ry     beta= 0.30
     Davidson diagonalization with overlap
     c_bands:  1 eigenvalues not converged
     ethr =  6.46E-07,  avg # of iterations =  7.4

     total cpu time spent up to now is      259.5 secs

     total energy              =    -360.93081003 Ry
     estimated scf accuracy    <       0.00014316 Ry

     iteration # 33     ecut=    50.00 Ry     beta= 0.30
     Davidson diagonalization with overlap
     ethr =  3.98E-07,  avg # of iterations =  1.6

     total cpu time spent up to now is      264.1 secs

     total energy              =    -360.93079975 Ry
     estimated scf accuracy    <       0.00015246 Ry

     iteration # 34     ecut=    50.00 Ry     beta= 0.30
     Davidson diagonalization with overlap
     ethr =  3.98E-07,  avg # of iterations =  1.2

     total cpu time spent up to now is      268.5 secs

     total energy              =    -360.93077315 Ry
     estimated scf accuracy    <       0.00010769 Ry

     iteration # 35     ecut=    50.00 Ry     beta= 0.30
     Davidson diagonalization with overlap
     ethr =  2.99E-07,  avg # of iterations =  3.2

     total cpu time spent up to now is      273.8 secs

     total energy              =    -360.93078045 Ry
     estimated scf accuracy    <       0.00001988 Ry

     iteration # 36     ecut=    50.00 Ry     beta= 0.30
     Davidson diagonalization with overlap
     c_bands:  1 eigenvalues not converged
     c_bands:  1 eigenvalues not converged
     c_bands:  1 eigenvalues not converged
     ethr =  5.52E-08,  avg # of iterations =  9.1

     total cpu time spent up to now is      282.6 secs

     total energy              =    -360.93079460 Ry
     estimated scf accuracy    <       0.00001609 Ry

     iteration # 37     ecut=    50.00 Ry     beta= 0.30
     Davidson diagonalization with overlap
     ethr =  4.47E-08,  avg # of iterations =  1.7

     total cpu time spent up to now is      287.3 secs

     total energy              =    -360.93079226 Ry
     estimated scf accuracy    <       0.00000906 Ry

     iteration # 38     ecut=    50.00 Ry     beta= 0.30
     Davidson diagonalization with overlap
     ethr =  2.52E-08,  avg # of iterations =  7.3

     total cpu time spent up to now is      294.9 secs

     total energy              =    -360.93079596 Ry
     estimated scf accuracy    <       0.00000508 Ry

     iteration # 39     ecut=    50.00 Ry     beta= 0.30
     Davidson diagonalization with overlap
     ethr =  1.41E-08,  avg # of iterations =  1.4

     total cpu time spent up to now is      299.4 secs

     total energy              =    -360.93079515 Ry
     estimated scf accuracy    <       0.00000351 Ry

     iteration # 40     ecut=    50.00 Ry     beta= 0.30
     Davidson diagonalization with overlap
     ethr =  9.74E-09,  avg # of iterations =  5.7

     total cpu time spent up to now is      305.7 secs

     total energy              =    -360.93079601 Ry
     estimated scf accuracy    <       0.00000003 Ry

     iteration # 41     ecut=    50.00 Ry     beta= 0.30
     Davidson diagonalization with overlap
     c_bands:  2 eigenvalues not converged
     c_bands:  2 eigenvalues not converged
     c_bands:  3 eigenvalues not converged
     c_bands:  1 eigenvalues not converged
     c_bands:  1 eigenvalues not converged
     c_bands:  2 eigenvalues not converged
     c_bands:  2 eigenvalues not converged
     c_bands:  1 eigenvalues not converged
     c_bands:  1 eigenvalues not converged
     c_bands:  1 eigenvalues not converged
     c_bands:  1 eigenvalues not converged
     c_bands:  2 eigenvalues not converged
     c_bands:  1 eigenvalues not converged
     c_bands:  1 eigenvalues not converged
     c_bands:  1 eigenvalues not converged
     c_bands:  1 eigenvalues not converged
     c_bands:  1 eigenvalues not converged
     c_bands:  1 eigenvalues not converged
     c_bands:  2 eigenvalues not converged
     c_bands:  2 eigenvalues not converged
     c_bands:  1 eigenvalues not converged
     c_bands:  2 eigenvalues not converged
     c_bands:  2 eigenvalues not converged
     c_bands:  1 eigenvalues not converged
     c_bands:  1 eigenvalues not converged
     c_bands:  1 eigenvalues not converged
     c_bands:  2 eigenvalues not converged
     c_bands:  2 eigenvalues not converged
     c_bands:  2 eigenvalues not converged
     c_bands:  1 eigenvalues not converged
     c_bands:  1 eigenvalues not converged
     c_bands:  1 eigenvalues not converged
     c_bands:  1 eigenvalues not converged
     c_bands:  1 eigenvalues not converged
     c_bands:  3 eigenvalues not converged
     c_bands:  1 eigenvalues not converged
     c_bands:  1 eigenvalues not converged
     c_bands:  2 eigenvalues not converged
     c_bands:  2 eigenvalues not converged
     c_bands:  3 eigenvalues not converged
     c_bands:  1 eigenvalues not converged
     c_bands:  1 eigenvalues not converged
     c_bands:  1 eigenvalues not converged
     c_bands:  1 eigenvalues not converged
     c_bands:  1 eigenvalues not converged
     c_bands:  2 eigenvalues not converged
     ethr =  8.46E-11,  avg # of iterations = 15.5

     total cpu time spent up to now is      320.4 secs

     total energy              =    -360.93079619 Ry
     estimated scf accuracy    <       0.00000056 Ry

     iteration # 42     ecut=    50.00 Ry     beta= 0.30
     Davidson diagonalization with overlap
     c_bands:  1 eigenvalues not converged
     c_bands:  1 eigenvalues not converged
     c_bands:  1 eigenvalues not converged
     c_bands:  1 eigenvalues not converged
     ethr =  8.46E-11,  avg # of iterations =  9.4

     total cpu time spent up to now is      329.1 secs

     total energy              =    -360.93079623 Ry
     estimated scf accuracy    <       0.00000013 Ry

     iteration # 43     ecut=    50.00 Ry     beta= 0.30
     Davidson diagonalization with overlap
     ethr =  8.46E-11,  avg # of iterations =  1.2

     total cpu time spent up to now is      333.6 secs

     total energy              =    -360.93079627 Ry
     estimated scf accuracy    <       0.00000014 Ry

     iteration # 44     ecut=    50.00 Ry     beta= 0.30
     Davidson diagonalization with overlap
     c_bands:  1 eigenvalues not converged
     c_bands:  1 eigenvalues not converged
     ethr =  8.46E-11,  avg # of iterations =  8.9

     total cpu time spent up to now is      342.4 secs

     total energy              =    -360.93079620 Ry
     estimated scf accuracy    <       0.00000066 Ry

     iteration # 45     ecut=    50.00 Ry     beta= 0.30
     Davidson diagonalization with overlap
     c_bands:  1 eigenvalues not converged
     ethr =  8.46E-11,  avg # of iterations =  7.9

     total cpu time spent up to now is      350.8 secs

     total energy              =    -360.93079623 Ry
     estimated scf accuracy    <       0.00000017 Ry

     iteration # 46     ecut=    50.00 Ry     beta= 0.30
     Davidson diagonalization with overlap
     ethr =  8.46E-11,  avg # of iterations =  1.0

     total cpu time spent up to now is      355.2 secs

     total energy              =    -360.93079630 Ry
     estimated scf accuracy    <       0.00000018 Ry

     iteration # 47     ecut=    50.00 Ry     beta= 0.30
     Davidson diagonalization with overlap
     c_bands:  1 eigenvalues not converged
     c_bands:  1 eigenvalues not converged
     c_bands:  1 eigenvalues not converged
     c_bands:  1 eigenvalues not converged
     ethr =  8.46E-11,  avg # of iterations = 12.5

     total cpu time spent up to now is      366.4 secs

     total energy              =    -360.93079628 Ry
     estimated scf accuracy    <       0.00000118 Ry

     iteration # 48     ecut=    50.00 Ry     beta= 0.30
     Davidson diagonalization with overlap
     ethr =  8.46E-11,  avg # of iterations =  2.2

     total cpu time spent up to now is      371.3 secs

     total energy              =    -360.93079602 Ry
     estimated scf accuracy    <       0.00000102 Ry

     iteration # 49     ecut=    50.00 Ry     beta= 0.30
     Davidson diagonalization with overlap
     c_bands:  3 eigenvalues not converged
     c_bands:  2 eigenvalues not converged
     c_bands:  2 eigenvalues not converged
     c_bands:  1 eigenvalues not converged
     c_bands:  1 eigenvalues not converged
     c_bands:  1 eigenvalues not converged
     c_bands:  2 eigenvalues not converged
     c_bands:  2 eigenvalues not converged
     c_bands:  1 eigenvalues not converged
     c_bands:  1 eigenvalues not converged
     c_bands:  3 eigenvalues not converged
     c_bands:  2 eigenvalues not converged
     c_bands:  2 eigenvalues not converged
     c_bands:  1 eigenvalues not converged
     c_bands:  2 eigenvalues not converged
     c_bands:  1 eigenvalues not converged
     c_bands:  1 eigenvalues not converged
     c_bands:  1 eigenvalues not converged
     c_bands:  1 eigenvalues not converged
     c_bands:  2 eigenvalues not converged
     c_bands:  1 eigenvalues not converged
     c_bands:  1 eigenvalues not converged
     c_bands:  1 eigenvalues not converged
     c_bands:  1 eigenvalues not converged
     c_bands:  2 eigenvalues not converged
     c_bands:  1 eigenvalues not converged
     c_bands:  2 eigenvalues not converged
     c_bands:  1 eigenvalues not converged
     c_bands:  2 eigenvalues not converged
     c_bands:  2 eigenvalues not converged
     c_bands:  1 eigenvalues not converged
     c_bands:  1 eigenvalues not converged
     c_bands:  1 eigenvalues not converged
     c_bands:  2 eigenvalues not converged
     c_bands:  3 eigenvalues not converged
     c_bands:  2 eigenvalues not converged
     c_bands:  2 eigenvalues not converged
     c_bands:  1 eigenvalues not converged
     c_bands:  1 eigenvalues not converged
     c_bands:  1 eigenvalues not converged
     c_bands:  3 eigenvalues not converged
     c_bands:  2 eigenvalues not converged
     c_bands:  2 eigenvalues not converged
     c_bands:  1 eigenvalues not converged
     c_bands:  2 eigenvalues not converged
     c_bands:  2 eigenvalues not converged
     ethr =  8.46E-11,  avg # of iterations = 17.4

     total cpu time spent up to now is      388.3 secs

     total energy              =    -360.93079623 Ry
     estimated scf accuracy    <       0.00000011 Ry

     iteration # 50     ecut=    50.00 Ry     beta= 0.30
     Davidson diagonalization with overlap
     ethr =  8.46E-11,  avg # of iterations =  3.3

     total cpu time spent up to now is      393.3 secs

     total energy              =    -360.93079623 Ry
     estimated scf accuracy    <       0.00000015 Ry

     iteration # 51     ecut=    50.00 Ry     beta= 0.30
     Davidson diagonalization with overlap
     ethr =  8.46E-11,  avg # of iterations =  1.1

     total cpu time spent up to now is      397.7 secs

     total energy              =    -360.93079624 Ry
     estimated scf accuracy    <       0.00000014 Ry

     iteration # 52     ecut=    50.00 Ry     beta= 0.30
     Davidson diagonalization with overlap
     ethr =  8.46E-11,  avg # of iterations =  1.6

     total cpu time spent up to now is      402.2 secs

     total energy              =    -360.93079621 Ry
     estimated scf accuracy    <       0.00000017 Ry

     iteration # 53     ecut=    50.00 Ry     beta= 0.30
     Davidson diagonalization with overlap
     ethr =  8.46E-11,  avg # of iterations =  2.8

     total cpu time spent up to now is      407.3 secs

     total energy              =    -360.93079620 Ry
     estimated scf accuracy    <       0.00000009 Ry

     iteration # 54     ecut=    50.00 Ry     beta= 0.30
     Davidson diagonalization with overlap
     ethr =  8.46E-11,  avg # of iterations =  7.2

     total cpu time spent up to now is      414.6 secs

     End of self-consistent calculation

     Number of k-points >= 100: set verbosity='high' to print the bands.

     highest occupied level (ev):     8.7815

!    total energy              =    -360.93079621 Ry
     estimated scf accuracy    <          3.1E-09 Ry

     The total energy is the sum of the following terms:
     one-electron contribution =    -184.39723949 Ry
     hartree contribution      =     132.80176054 Ry
     xc contribution           =    -109.31758402 Ry
     ewald contribution        =    -200.01773324 Ry

     convergence has been achieved in  54 iterations

     Forces acting on atoms (cartesian axes, Ry/au):

     atom    1 type  1   force =     0.01078204    0.07931891   -0.21769623
     atom    2 type  1   force =    -0.15974241   -0.13775606    0.07125360
     atom    3 type  2   force =     0.15189249    0.01878125    0.01422704
     atom    4 type  2   force =    -0.00293212    0.03965591    0.13221559
     The non-local contrib.  to forces
     atom    1 type  1   force =     0.01152220    0.04338545   -0.03473094
     atom    2 type  1   force =    -0.29805888   -0.00218142   -0.16443280
     atom    3 type  2   force =    -0.27803853   -0.15097427   -0.76828401
     atom    4 type  2   force =    -0.21566088    0.28568325    0.05754454
     The ionic contribution  to forces
     atom    1 type  1   force =     0.27710252    1.81059014  -25.96017540
     atom    2 type  1   force =    -5.39554165   -1.57533203    0.71380029
     atom    3 type  2   force =     3.28160843    1.10926781   11.36131078
     atom    4 type  2   force =     1.83683070   -1.34452592   13.88506433
     The local contribution  to forces
     atom    1 type  1   force =    -0.27842316   -1.76733434   25.75672612
     atom    2 type  1   force =     5.49412735    1.42962942   -0.49873560
     atom    3 type  2   force =    -2.85348885   -0.94032420  -10.58468921
     atom    4 type  2   force =    -1.62560647    1.10108103  -13.80793743
     The core correction contribution to forces
     atom    1 type  1   force =     0.00058933   -0.00732740    0.02053776
     atom    2 type  1   force =     0.03971705    0.01014478    0.02049212
     atom    3 type  2   force =     0.00180879    0.00082513    0.00584061
     atom    4 type  2   force =     0.00150352   -0.00258272   -0.00245904
     The Hubbard contrib.    to forces
     atom    1 type  1   force =     0.00000000    0.00000000    0.00000000
     atom    2 type  1   force =     0.00000000    0.00000000    0.00000000
     atom    3 type  2   force =     0.00000000    0.00000000    0.00000000
     atom    4 type  2   force =     0.00000000    0.00000000    0.00000000
     The SCF correction term to forces
     atom    1 type  1   force =    -0.00000904    0.00000459   -0.00004006
     atom    2 type  1   force =     0.00001355   -0.00001728    0.00014332
     atom    3 type  2   force =     0.00000247   -0.00001369    0.00006260
     atom    4 type  2   force =     0.00000083   -0.00000021    0.00001692

     Total force =     0.382177     Total SCF correction =     0.000165

     Writing all to output data dir ./ZnO_ANN.save/

     init_run     :      3.27s CPU      3.36s WALL (       1 calls)
     electrons    :    403.76s CPU    410.75s WALL (       1 calls)
     forces       :      0.99s CPU      1.00s WALL (       1 calls)

     Called by init_run:
     wfcinit      :      2.47s CPU      2.53s WALL (       1 calls)
     potinit      :      0.20s CPU      0.21s WALL (       1 calls)
     hinit0       :      0.53s CPU      0.54s WALL (       1 calls)

     Called by electrons:
     c_bands      :    362.70s CPU    368.80s WALL (      54 calls)
     sum_band     :     37.24s CPU     38.03s WALL (      54 calls)
     v_of_rho     :      0.76s CPU      0.81s WALL (      55 calls)
     newd         :      2.89s CPU      2.93s WALL (      55 calls)
     mix_rho      :      0.14s CPU      0.15s WALL (      54 calls)

     Called by c_bands:
     init_us_2    :      2.32s CPU      2.35s WALL (   12320 calls)
     init_us_2:cp :      2.28s CPU      2.32s WALL (   12320 calls)
     cegterg      :    354.38s CPU    360.35s WALL (    6048 calls)

     Called by *egterg:
     cdiaghg      :     44.52s CPU     44.92s WALL (   46308 calls)
     h_psi        :    198.97s CPU    203.26s WALL (   46420 calls)
     s_psi        :     17.92s CPU     18.14s WALL (   46420 calls)
     g_psi        :      0.69s CPU      0.70s WALL (   40260 calls)

     Called by h_psi:
     h_psi:calbec :     27.34s CPU     28.20s WALL (   46420 calls)
     vloc_psi     :    153.05s CPU    156.23s WALL (   46420 calls)
     add_vuspsi   :     17.96s CPU     18.20s WALL (   46420 calls)

     General routines
     calbec       :     35.89s CPU     37.00s WALL (   52916 calls)
     fft          :      1.08s CPU      1.16s WALL (     724 calls)
     ffts         :      0.09s CPU      0.10s WALL (     109 calls)
     fftw         :    161.62s CPU    165.00s WALL (  818250 calls)
     interpolate  :      0.11s CPU      0.12s WALL (      55 calls)

     Parallel routines

     PWSCF        :   6m48.74s CPU   6m55.96s WALL


   This run was terminated on:  14: 3: 2  23Jun2025            

=------------------------------------------------------------------------------=
   JOB DONE.
=------------------------------------------------------------------------------=
Note: The following floating-point exceptions are signalling: IEEE_INVALID_FLAG
