
     Program PWSCF v.7.2 starts on 23Jun2025 at 14:55:35 

     This program is part of the open-source Quantum ESPRESSO suite
     for quantum simulation of materials; please cite
         "P. Giannozzi et al., J. Phys.:Condens. Matter 21 395502 (2009);
         "P. Giannozzi et al., J. Phys.:Condens. Matter 29 465901 (2017);
         "P. Giannozzi et al., J. Chem. Phys. 152 154105 (2020);
          URL http://www.quantum-espresso.org", 
     in publications or presentations arising from this work. More details at
     http://www.quantum-espresso.org/quote

     Parallel version (MPI), running on     8 processors

     MPI processes distributed on     1 nodes
     90908 MiB available memory on the printing compute node when the environment starts

     Reading input from /home/jvc/QEspresso7.2/ZnO_DataBase/scfs_rnd025.in/scf-6.18-1.78-4.in

     Current dimensions of program PWSCF are:
     Max number of different atomic species (ntypx) = 10
     Max number of k-points (npk) =  40000
     Max angular momentum in pseudopotentials (lmaxx) =  4
     file Zn.upf: wavefunction(s)  3D renormalized

     R & G space division:  proc/nbgrp/npool/nimage =       8
     Subspace diagonalization in iterative solution of the eigenvalue problem:
     a serial algorithm will be used


     Parallelization info
     --------------------
     sticks:   dense  smooth     PW     G-vecs:    dense   smooth      PW
     Min         130      64     20                 6124     2170     366
     Max         132      65     21                 6128     2175     369
     Sum        1045     517    163                49005    17389    2937

     Using Slab Decomposition



     bravais-lattice index     =            4
     lattice parameter (alat)  =       6.1788  a.u.
     unit-cell volume          =     362.7774 (a.u.)^3
     number of atoms/cell      =            4
     number of atomic types    =            2
     number of electrons       =        36.00
     number of Kohn-Sham states=           18
     kinetic-energy cutoff     =      50.0000  Ry
     charge density cutoff     =     400.0000  Ry
     scf convergence threshold =      1.0E-08
     mixing beta               =       0.3000
     number of iterations used =            8  plain     mixing
     Exchange-correlation= PBE
                           (   1   4   3   4   0   0   0)

     celldm(1)=   6.178821  celldm(2)=   0.000000  celldm(3)=   1.775794
     celldm(4)=   0.000000  celldm(5)=   0.000000  celldm(6)=   0.000000

     crystal axes: (cart. coord. in units of alat)
               a(1) = (   1.000000   0.000000   0.000000 )  
               a(2) = (  -0.500000   0.866025   0.000000 )  
               a(3) = (   0.000000   0.000000   1.775794 )  

     reciprocal axes: (cart. coord. in units 2 pi/alat)
               b(1) = (  1.000000  0.577350 -0.000000 )  
               b(2) = (  0.000000  1.154701  0.000000 )  
               b(3) = (  0.000000 -0.000000  0.563128 )  


     PseudoPot. # 1 for Zn read from file:
     ./pseudos/Zn.upf
     MD5 check sum: 7f56cabf9682ed8c977c2f7d0c5985c5
     Pseudo is Ultrasoft + core correction, Zval = 12.0
     Generated using &quot;atomic&quot; code by A. Dal Corso  v.6.2.2
     Using radial grid of 1201 points,  6 beta functions with: 
                l(1) =   0
                l(2) =   0
                l(3) =   1
                l(4) =   1
                l(5) =   2
                l(6) =   2
     Q(r) pseudized with 0 coefficients 


     PseudoPot. # 2 for O  read from file:
     ./pseudos/O.upf
     MD5 check sum: 91400c9766925bcf19f520983a725ff0
     Pseudo is Ultrasoft + core correction, Zval =  6.0
     Generated using &quot;atomic&quot; code by A. Dal Corso  v.6.3MaX
     Using radial grid of 1095 points,  4 beta functions with: 
                l(1) =   0
                l(2) =   0
                l(3) =   1
                l(4) =   1
     Q(r) pseudized with 0 coefficients 


     atomic species   valence    mass     pseudopotential
        Zn            12.00    63.38000     Zn( 1.00)
        O              6.00    15.99900     O ( 1.00)

     No symmetry found



   Cartesian axes

     site n.     atom                  positions (alat units)
         1           Zn  tau(   1) = (   0.3012547   0.2234340   0.8545504  )
         2           Zn  tau(   2) = (   0.1868902   0.5113937  -0.3385768  )
         3           O   tau(   3) = (   0.3450315   0.2017631   1.6606910  )
         4           O   tau(   4) = (   0.2094842   0.4474576   0.8338249  )

     number of k points=   112

     Number of k-points >= 100: set verbosity='high' to print them.

     Dense  grid:    49005 G-vectors     FFT dimensions: (  40,  40,  72)

     Smooth grid:    17389 G-vectors     FFT dimensions: (  27,  27,  50)

     Estimated max dynamical RAM per process >      33.31 MB

     Estimated total dynamical RAM >     266.45 MB

     Check: negative core charge=   -0.000002

     Initial potential from superposition of free atoms

     starting charge      35.9925, renormalised to      36.0000
     Starting wfcs are   26 randomized atomic wfcs

     total cpu time spent up to now is        4.3 secs

     Self-consistent Calculation

     iteration #  1     ecut=    50.00 Ry     beta= 0.30
     Davidson diagonalization with overlap
     ethr =  1.00E-02,  avg # of iterations =  6.0

     total cpu time spent up to now is       13.5 secs

     total energy              =    -352.66740878 Ry
     estimated scf accuracy    <       1.37070089 Ry

     iteration #  2     ecut=    50.00 Ry     beta= 0.30
     Davidson diagonalization with overlap
     ethr =  3.81E-03,  avg # of iterations =  2.4

     total cpu time spent up to now is       19.9 secs

     total energy              =    -352.63750588 Ry
     estimated scf accuracy    <       0.34705201 Ry

     iteration #  3     ecut=    50.00 Ry     beta= 0.30
     Davidson diagonalization with overlap
     ethr =  9.64E-04,  avg # of iterations =  9.3

     total cpu time spent up to now is       32.4 secs

     total energy              =    -352.91516777 Ry
     estimated scf accuracy    <       0.97076709 Ry

     iteration #  4     ecut=    50.00 Ry     beta= 0.30
     Davidson diagonalization with overlap
     ethr =  9.64E-04,  avg # of iterations =  1.9

     total cpu time spent up to now is       38.0 secs

     total energy              =    -352.43011820 Ry
     estimated scf accuracy    <       0.61974165 Ry

     iteration #  5     ecut=    50.00 Ry     beta= 0.30
     Davidson diagonalization with overlap
     ethr =  9.64E-04,  avg # of iterations =  8.4

     total cpu time spent up to now is       53.6 secs

     total energy              =    -352.80257035 Ry
     estimated scf accuracy    <       2.33277749 Ry

     iteration #  6     ecut=    50.00 Ry     beta= 0.30
     Davidson diagonalization with overlap
     ethr =  9.64E-04,  avg # of iterations =  4.4

     total cpu time spent up to now is       62.4 secs

     total energy              =    -352.98050257 Ry
     estimated scf accuracy    <       0.39767930 Ry

     iteration #  7     ecut=    50.00 Ry     beta= 0.30
     Davidson diagonalization with overlap
     ethr =  9.64E-04,  avg # of iterations =  1.0

     total cpu time spent up to now is       67.5 secs

     total energy              =    -352.94421010 Ry
     estimated scf accuracy    <       0.39062587 Ry

     iteration #  8     ecut=    50.00 Ry     beta= 0.30
     Davidson diagonalization with overlap
     ethr =  9.64E-04,  avg # of iterations =  1.2

     total cpu time spent up to now is       72.7 secs

     total energy              =    -352.83982586 Ry
     estimated scf accuracy    <       0.28691491 Ry

     iteration #  9     ecut=    50.00 Ry     beta= 0.30
     Davidson diagonalization with overlap
     ethr =  7.97E-04,  avg # of iterations =  5.8

     total cpu time spent up to now is       80.2 secs

     total energy              =    -352.89897805 Ry
     estimated scf accuracy    <       0.01149068 Ry

     iteration # 10     ecut=    50.00 Ry     beta= 0.30
     Davidson diagonalization with overlap
     ethr =  3.19E-05,  avg # of iterations =  6.4

     total cpu time spent up to now is       89.0 secs

     total energy              =    -352.90424450 Ry
     estimated scf accuracy    <       0.01444722 Ry

     iteration # 11     ecut=    50.00 Ry     beta= 0.30
     Davidson diagonalization with overlap
     ethr =  3.19E-05,  avg # of iterations =  2.1

     total cpu time spent up to now is       95.0 secs

     total energy              =    -352.90315117 Ry
     estimated scf accuracy    <       0.00623703 Ry

     iteration # 12     ecut=    50.00 Ry     beta= 0.30
     Davidson diagonalization with overlap
     ethr =  1.73E-05,  avg # of iterations =  5.9

     total cpu time spent up to now is      103.0 secs

     total energy              =    -352.90493223 Ry
     estimated scf accuracy    <       0.00038076 Ry

     iteration # 13     ecut=    50.00 Ry     beta= 0.30
     Davidson diagonalization with overlap
     ethr =  1.06E-06,  avg # of iterations =  6.2

     total cpu time spent up to now is      114.4 secs

     total energy              =    -352.90509895 Ry
     estimated scf accuracy    <       0.00055891 Ry

     iteration # 14     ecut=    50.00 Ry     beta= 0.30
     Davidson diagonalization with overlap
     ethr =  1.06E-06,  avg # of iterations =  5.9

     total cpu time spent up to now is      124.3 secs

     total energy              =    -352.90515709 Ry
     estimated scf accuracy    <       0.00054553 Ry

     iteration # 15     ecut=    50.00 Ry     beta= 0.30
     Davidson diagonalization with overlap
     ethr =  1.06E-06,  avg # of iterations =  2.1

     total cpu time spent up to now is      130.2 secs

     total energy              =    -352.90504714 Ry
     estimated scf accuracy    <       0.00021389 Ry

     iteration # 16     ecut=    50.00 Ry     beta= 0.30
     Davidson diagonalization with overlap
     ethr =  5.94E-07,  avg # of iterations =  9.1

     total cpu time spent up to now is      142.4 secs

     total energy              =    -352.90518244 Ry
     estimated scf accuracy    <       0.00060505 Ry

     iteration # 17     ecut=    50.00 Ry     beta= 0.30
     Davidson diagonalization with overlap
     ethr =  5.94E-07,  avg # of iterations =  3.3

     total cpu time spent up to now is      148.6 secs

     total energy              =    -352.90516541 Ry
     estimated scf accuracy    <       0.00025182 Ry

     iteration # 18     ecut=    50.00 Ry     beta= 0.30
     Davidson diagonalization with overlap
     ethr =  5.94E-07,  avg # of iterations =  3.4

     total cpu time spent up to now is      154.7 secs

     total energy              =    -352.90515576 Ry
     estimated scf accuracy    <       0.00008970 Ry

     iteration # 19     ecut=    50.00 Ry     beta= 0.30
     Davidson diagonalization with overlap
     ethr =  2.49E-07,  avg # of iterations =  6.2

     total cpu time spent up to now is      163.1 secs

     total energy              =    -352.90520658 Ry
     estimated scf accuracy    <       0.00002529 Ry

     iteration # 20     ecut=    50.00 Ry     beta= 0.30
     Davidson diagonalization with overlap
     ethr =  7.03E-08,  avg # of iterations =  1.9

     total cpu time spent up to now is      168.5 secs

     total energy              =    -352.90520030 Ry
     estimated scf accuracy    <       0.00002610 Ry

     iteration # 21     ecut=    50.00 Ry     beta= 0.30
     Davidson diagonalization with overlap
     ethr =  7.03E-08,  avg # of iterations =  2.0

     total cpu time spent up to now is      174.1 secs

     total energy              =    -352.90520009 Ry
     estimated scf accuracy    <       0.00000985 Ry

     iteration # 22     ecut=    50.00 Ry     beta= 0.30
     Davidson diagonalization with overlap
     ethr =  2.73E-08,  avg # of iterations =  5.7

     total cpu time spent up to now is      181.2 secs

     total energy              =    -352.90520238 Ry
     estimated scf accuracy    <       0.00000046 Ry

     iteration # 23     ecut=    50.00 Ry     beta= 0.30
     Davidson diagonalization with overlap
     ethr =  1.29E-09,  avg # of iterations =  5.8

     total cpu time spent up to now is      189.6 secs

     total energy              =    -352.90520278 Ry
     estimated scf accuracy    <       0.00000015 Ry

     iteration # 24     ecut=    50.00 Ry     beta= 0.30
     Davidson diagonalization with overlap
     ethr =  4.15E-10,  avg # of iterations =  6.5

     total cpu time spent up to now is      198.0 secs

     total energy              =    -352.90520296 Ry
     estimated scf accuracy    <       0.00000086 Ry

     iteration # 25     ecut=    50.00 Ry     beta= 0.30
     Davidson diagonalization with overlap
     ethr =  4.15E-10,  avg # of iterations =  3.1

     total cpu time spent up to now is      204.0 secs

     total energy              =    -352.90520284 Ry
     estimated scf accuracy    <       0.00000122 Ry

     iteration # 26     ecut=    50.00 Ry     beta= 0.30
     Davidson diagonalization with overlap
     ethr =  4.15E-10,  avg # of iterations =  1.3

     total cpu time spent up to now is      209.1 secs

     total energy              =    -352.90520268 Ry
     estimated scf accuracy    <       0.00000100 Ry

     iteration # 27     ecut=    50.00 Ry     beta= 0.30
     Davidson diagonalization with overlap
     ethr =  4.15E-10,  avg # of iterations =  5.2

     total cpu time spent up to now is      216.3 secs

     total energy              =    -352.90520270 Ry
     estimated scf accuracy    <       0.00000038 Ry

     iteration # 28     ecut=    50.00 Ry     beta= 0.30
     Davidson diagonalization with overlap
     ethr =  4.15E-10,  avg # of iterations =  1.4

     total cpu time spent up to now is      221.5 secs

     total energy              =    -352.90520269 Ry
     estimated scf accuracy    <       0.00000032 Ry

     iteration # 29     ecut=    50.00 Ry     beta= 0.30
     Davidson diagonalization with overlap
     ethr =  4.15E-10,  avg # of iterations =  1.7

     total cpu time spent up to now is      226.9 secs

     total energy              =    -352.90520269 Ry
     estimated scf accuracy    <       0.00000022 Ry

     iteration # 30     ecut=    50.00 Ry     beta= 0.30
     Davidson diagonalization with overlap
     ethr =  4.15E-10,  avg # of iterations =  1.2

     total cpu time spent up to now is      232.0 secs

     total energy              =    -352.90520264 Ry
     estimated scf accuracy    <       0.00000021 Ry

     iteration # 31     ecut=    50.00 Ry     beta= 0.30
     Davidson diagonalization with overlap
     ethr =  4.15E-10,  avg # of iterations =  4.0

     total cpu time spent up to now is      238.4 secs

     total energy              =    -352.90520264 Ry
     estimated scf accuracy    <       0.00000005 Ry

     iteration # 32     ecut=    50.00 Ry     beta= 0.30
     Davidson diagonalization with overlap
     ethr =  1.29E-10,  avg # of iterations =  6.3

     total cpu time spent up to now is      246.9 secs

     total energy              =    -352.90520267 Ry
     estimated scf accuracy    <       0.00000001 Ry

     iteration # 33     ecut=    50.00 Ry     beta= 0.30
     Davidson diagonalization with overlap
     ethr =  3.46E-11,  avg # of iterations =  3.0

     total cpu time spent up to now is      252.8 secs

     total energy              =    -352.90520267 Ry
     estimated scf accuracy    <       0.00000001 Ry

     iteration # 34     ecut=    50.00 Ry     beta= 0.30
     Davidson diagonalization with overlap
     ethr =  3.46E-11,  avg # of iterations =  1.3

     total cpu time spent up to now is      257.9 secs

     End of self-consistent calculation

     Number of k-points >= 100: set verbosity='high' to print the bands.

     highest occupied level (ev):     7.4963

!    total energy              =    -352.90520266 Ry
     estimated scf accuracy    <          1.0E-08 Ry

     The total energy is the sum of the following terms:
     one-electron contribution =    -274.99098888 Ry
     hartree contribution      =     172.36105627 Ry
     xc contribution           =    -111.50854231 Ry
     ewald contribution        =    -138.76672774 Ry

     convergence has been achieved in  34 iterations

     Forces acting on atoms (cartesian axes, Ry/au):

     atom    1 type  1   force =     8.12425357  -19.80598377    1.64292290
     atom    2 type  1   force =    -0.53840599    1.05982755   -0.38947956
     atom    3 type  2   force =     0.52435911   -1.01259804    0.66731156
     atom    4 type  2   force =    -8.11020669   19.75875426   -1.92075491
     The non-local contrib.  to forces
     atom    1 type  1   force =    -2.50674568    6.15473080   -0.28161507
     atom    2 type  1   force =    -0.54406754    1.06669495   -1.14630073
     atom    3 type  2   force =    -0.15808073    0.39013220   -0.91438448
     atom    4 type  2   force =     0.55661157   -1.49377384    0.58116545
     The ionic contribution  to forces
     atom    1 type  1   force =    22.92425314  -56.41878371  -16.20801134
     atom    2 type  1   force =    -6.37559268   13.40870255   14.40065312
     atom    3 type  2   force =     5.44174255  -10.64999661   19.28760995
     atom    4 type  2   force =   -21.99040301   53.66007777  -17.48025173
     The local contribution  to forces
     atom    1 type  1   force =   -11.97212242   29.67154680   18.19432138
     atom    2 type  1   force =     6.30797947  -13.26705410  -13.72463873
     atom    3 type  2   force =    -4.75797182    9.24552075  -17.71026278
     atom    4 type  2   force =    13.31016866  -32.37577831   14.97800471
     The core correction contribution to forces
     atom    1 type  1   force =    -0.32107367    0.78638540   -0.06163317
     atom    2 type  1   force =     0.07318234   -0.14832804    0.08047551
     atom    3 type  2   force =    -0.00131128    0.00170689    0.00429821
     atom    4 type  2   force =     0.01343788   -0.03182059    0.00042069
     The Hubbard contrib.    to forces
     atom    1 type  1   force =     0.00000000    0.00000000    0.00000000
     atom    2 type  1   force =     0.00000000    0.00000000    0.00000000
     atom    3 type  2   force =     0.00000000    0.00000000    0.00000000
     atom    4 type  2   force =     0.00000000    0.00000000    0.00000000
     The SCF correction term to forces
     atom    1 type  1   force =    -0.00004236    0.00010706   -0.00011710
     atom    2 type  1   force =     0.00010787   -0.00021769    0.00035306
     atom    3 type  2   force =    -0.00000417    0.00000885    0.00007244
     atom    4 type  2   force =    -0.00000635    0.00001934   -0.00007224

     Total force =    30.400053     Total SCF correction =     0.000471

     Writing all to output data dir ./ZnO_ANN.save/

     init_run     :      3.71s CPU      3.81s WALL (       1 calls)
     electrons    :    249.26s CPU    253.62s WALL (       1 calls)
     forces       :      1.13s CPU      1.15s WALL (       1 calls)

     Called by init_run:
     wfcinit      :      2.82s CPU      2.89s WALL (       1 calls)
     potinit      :      0.24s CPU      0.24s WALL (       1 calls)
     hinit0       :      0.56s CPU      0.57s WALL (       1 calls)

     Called by electrons:
     c_bands      :    219.66s CPU    223.34s WALL (      34 calls)
     sum_band     :     26.88s CPU     27.48s WALL (      34 calls)
     v_of_rho     :      0.55s CPU      0.59s WALL (      35 calls)
     newd         :      2.09s CPU      2.13s WALL (      35 calls)
     mix_rho      :      0.10s CPU      0.11s WALL (      34 calls)

     Called by c_bands:
     init_us_2    :      1.99s CPU      2.03s WALL (    7840 calls)
     init_us_2:cp :      1.96s CPU      2.00s WALL (    7840 calls)
     cegterg      :    213.46s CPU    217.06s WALL (    3808 calls)

     Called by *egterg:
     cdiaghg      :     21.75s CPU     21.92s WALL (   19644 calls)
     h_psi        :    129.91s CPU    132.61s WALL (   19756 calls)
     s_psi        :     16.45s CPU     16.58s WALL (   19756 calls)
     g_psi        :      0.40s CPU      0.41s WALL (   15836 calls)

     Called by h_psi:
     h_psi:calbec :     17.00s CPU     17.54s WALL (   19756 calls)
     vloc_psi     :     95.97s CPU     98.01s WALL (   19756 calls)
     add_vuspsi   :     16.52s CPU     16.65s WALL (   19756 calls)

     General routines
     calbec       :     23.39s CPU     24.10s WALL (   24012 calls)
     fft          :      0.66s CPU      0.71s WALL (     464 calls)
     ffts         :      0.09s CPU      0.10s WALL (      69 calls)
     fftw         :    100.06s CPU    102.22s WALL (  459408 calls)
     interpolate  :      0.11s CPU      0.11s WALL (      35 calls)

     Parallel routines

     PWSCF        :   4m14.86s CPU   4m19.59s WALL


   This run was terminated on:  14:59:55  23Jun2025            

=------------------------------------------------------------------------------=
   JOB DONE.
=------------------------------------------------------------------------------=
Note: The following floating-point exceptions are signalling: IEEE_INVALID_FLAG
