
     Program PWSCF v.7.2 starts on 23Jun2025 at 14:51:57 

     This program is part of the open-source Quantum ESPRESSO suite
     for quantum simulation of materials; please cite
         "P. Giannozzi et al., J. Phys.:Condens. Matter 21 395502 (2009);
         "P. Giannozzi et al., J. Phys.:Condens. Matter 29 465901 (2017);
         "P. Giannozzi et al., J. Chem. Phys. 152 154105 (2020);
          URL http://www.quantum-espresso.org", 
     in publications or presentations arising from this work. More details at
     http://www.quantum-espresso.org/quote

     Parallel version (MPI), running on     8 processors

     MPI processes distributed on     1 nodes
     91037 MiB available memory on the printing compute node when the environment starts

     Reading input from /home/jvc/QEspresso7.2/ZnO_DataBase/scfs_rnd025.in/scf-6.18-1.78-1.in

     Current dimensions of program PWSCF are:
     Max number of different atomic species (ntypx) = 10
     Max number of k-points (npk) =  40000
     Max angular momentum in pseudopotentials (lmaxx) =  4
     file Zn.upf: wavefunction(s)  3D renormalized

     R & G space division:  proc/nbgrp/npool/nimage =       8
     Subspace diagonalization in iterative solution of the eigenvalue problem:
     a serial algorithm will be used


     Parallelization info
     --------------------
     sticks:   dense  smooth     PW     G-vecs:    dense   smooth      PW
     Min         130      64     20                 6124     2170     366
     Max         132      65     21                 6128     2175     369
     Sum        1045     517    163                49005    17389    2937

     Using Slab Decomposition



     bravais-lattice index     =            4
     lattice parameter (alat)  =       6.1788  a.u.
     unit-cell volume          =     362.7774 (a.u.)^3
     number of atoms/cell      =            4
     number of atomic types    =            2
     number of electrons       =        36.00
     number of Kohn-Sham states=           18
     kinetic-energy cutoff     =      50.0000  Ry
     charge density cutoff     =     400.0000  Ry
     scf convergence threshold =      1.0E-08
     mixing beta               =       0.3000
     number of iterations used =            8  plain     mixing
     Exchange-correlation= PBE
                           (   1   4   3   4   0   0   0)

     celldm(1)=   6.178821  celldm(2)=   0.000000  celldm(3)=   1.775794
     celldm(4)=   0.000000  celldm(5)=   0.000000  celldm(6)=   0.000000

     crystal axes: (cart. coord. in units of alat)
               a(1) = (   1.000000   0.000000   0.000000 )  
               a(2) = (  -0.500000   0.866025   0.000000 )  
               a(3) = (   0.000000   0.000000   1.775794 )  

     reciprocal axes: (cart. coord. in units 2 pi/alat)
               b(1) = (  1.000000  0.577350 -0.000000 )  
               b(2) = (  0.000000  1.154701  0.000000 )  
               b(3) = (  0.000000 -0.000000  0.563128 )  


     PseudoPot. # 1 for Zn read from file:
     ./pseudos/Zn.upf
     MD5 check sum: 7f56cabf9682ed8c977c2f7d0c5985c5
     Pseudo is Ultrasoft + core correction, Zval = 12.0
     Generated using &quot;atomic&quot; code by A. Dal Corso  v.6.2.2
     Using radial grid of 1201 points,  6 beta functions with: 
                l(1) =   0
                l(2) =   0
                l(3) =   1
                l(4) =   1
                l(5) =   2
                l(6) =   2
     Q(r) pseudized with 0 coefficients 


     PseudoPot. # 2 for O  read from file:
     ./pseudos/O.upf
     MD5 check sum: 91400c9766925bcf19f520983a725ff0
     Pseudo is Ultrasoft + core correction, Zval =  6.0
     Generated using &quot;atomic&quot; code by A. Dal Corso  v.6.3MaX
     Using radial grid of 1095 points,  4 beta functions with: 
                l(1) =   0
                l(2) =   0
                l(3) =   1
                l(4) =   1
     Q(r) pseudized with 0 coefficients 


     atomic species   valence    mass     pseudopotential
        Zn            12.00    63.38000     Zn( 1.00)
        O              6.00    15.99900     O ( 1.00)

     No symmetry found



   Cartesian axes

     site n.     atom                  positions (alat units)
         1           Zn  tau(   1) = (   0.5668390   0.0825539   0.6933612  )
         2           Zn  tau(   2) = (  -0.1979452   0.5200212  -0.2622431  )
         3           O   tau(   3) = (   0.4659989   0.4180193   1.2614026  )
         4           O   tau(   4) = (  -0.0477014   0.7334599   0.9481149  )

     number of k points=   112

     Number of k-points >= 100: set verbosity='high' to print them.

     Dense  grid:    49005 G-vectors     FFT dimensions: (  40,  40,  72)

     Smooth grid:    17389 G-vectors     FFT dimensions: (  27,  27,  50)

     Estimated max dynamical RAM per process >      33.31 MB

     Estimated total dynamical RAM >     266.45 MB

     Check: negative core charge=   -0.000002

     Initial potential from superposition of free atoms

     starting charge      35.9925, renormalised to      36.0000
     Starting wfcs are   26 randomized atomic wfcs

     total cpu time spent up to now is        4.3 secs

     Self-consistent Calculation

     iteration #  1     ecut=    50.00 Ry     beta= 0.30
     Davidson diagonalization with overlap
     ethr =  1.00E-02,  avg # of iterations =  2.1

     total cpu time spent up to now is       10.5 secs

     total energy              =    -359.10928534 Ry
     estimated scf accuracy    <       2.38493475 Ry

     iteration #  2     ecut=    50.00 Ry     beta= 0.30
     Davidson diagonalization with overlap
     ethr =  6.62E-03,  avg # of iterations =  5.6

     total cpu time spent up to now is       17.8 secs

     total energy              =    -359.61639265 Ry
     estimated scf accuracy    <       0.05580128 Ry

     iteration #  3     ecut=    50.00 Ry     beta= 0.30
     Davidson diagonalization with overlap
     c_bands:  2 eigenvalues not converged
     c_bands:  1 eigenvalues not converged
     c_bands:  1 eigenvalues not converged
     c_bands:  1 eigenvalues not converged
     c_bands:  1 eigenvalues not converged
     c_bands:  1 eigenvalues not converged
     c_bands:  1 eigenvalues not converged
     ethr =  1.55E-04,  avg # of iterations = 13.7

     total cpu time spent up to now is       34.1 secs

     total energy              =    -359.57830912 Ry
     estimated scf accuracy    <       0.50678943 Ry

     iteration #  4     ecut=    50.00 Ry     beta= 0.30
     Davidson diagonalization with overlap
     c_bands:  1 eigenvalues not converged
     c_bands:  1 eigenvalues not converged
     c_bands:  2 eigenvalues not converged
     c_bands:  1 eigenvalues not converged
     c_bands:  1 eigenvalues not converged
     c_bands:  1 eigenvalues not converged
     c_bands:  1 eigenvalues not converged
     c_bands:  1 eigenvalues not converged
     c_bands:  1 eigenvalues not converged
     c_bands:  1 eigenvalues not converged
     c_bands:  1 eigenvalues not converged
     c_bands:  1 eigenvalues not converged
     c_bands:  1 eigenvalues not converged
     c_bands:  1 eigenvalues not converged
     ethr =  1.55E-04,  avg # of iterations = 15.0

     total cpu time spent up to now is       53.7 secs

     total energy              =    -359.74228454 Ry
     estimated scf accuracy    <       0.28763616 Ry

     iteration #  5     ecut=    50.00 Ry     beta= 0.30
     Davidson diagonalization with overlap
     ethr =  1.55E-04,  avg # of iterations =  1.8

     total cpu time spent up to now is       59.2 secs

     total energy              =    -359.65557210 Ry
     estimated scf accuracy    <       0.19939029 Ry

     iteration #  6     ecut=    50.00 Ry     beta= 0.30
     Davidson diagonalization with overlap
     c_bands:  1 eigenvalues not converged
     c_bands:  1 eigenvalues not converged
     c_bands:  1 eigenvalues not converged
     c_bands:  1 eigenvalues not converged
     ethr =  1.55E-04,  avg # of iterations = 11.5

     total cpu time spent up to now is       73.7 secs

     total energy              =    -359.72042456 Ry
     estimated scf accuracy    <       0.16463956 Ry

     iteration #  7     ecut=    50.00 Ry     beta= 0.30
     Davidson diagonalization with overlap
     ethr =  1.55E-04,  avg # of iterations =  3.4

     total cpu time spent up to now is       79.9 secs

     total energy              =    -359.71330135 Ry
     estimated scf accuracy    <       0.06526258 Ry

     iteration #  8     ecut=    50.00 Ry     beta= 0.30
     Davidson diagonalization with overlap
     ethr =  1.55E-04,  avg # of iterations =  5.1

     total cpu time spent up to now is       87.3 secs

     total energy              =    -359.72774320 Ry
     estimated scf accuracy    <       0.00093060 Ry

     iteration #  9     ecut=    50.00 Ry     beta= 0.30
     Davidson diagonalization with overlap
     c_bands:  1 eigenvalues not converged
     c_bands:  1 eigenvalues not converged
     c_bands:  1 eigenvalues not converged
     c_bands:  1 eigenvalues not converged
     c_bands:  1 eigenvalues not converged
     c_bands:  1 eigenvalues not converged
     c_bands:  1 eigenvalues not converged
     c_bands:  1 eigenvalues not converged
     c_bands:  1 eigenvalues not converged
     c_bands:  1 eigenvalues not converged
     c_bands:  1 eigenvalues not converged
     c_bands:  1 eigenvalues not converged
     c_bands:  1 eigenvalues not converged
     ethr =  2.58E-06,  avg # of iterations = 12.8

     total cpu time spent up to now is      105.0 secs

     total energy              =    -359.73188075 Ry
     estimated scf accuracy    <       0.00465157 Ry

     iteration # 10     ecut=    50.00 Ry     beta= 0.30
     Davidson diagonalization with overlap
     ethr =  2.58E-06,  avg # of iterations =  5.6

     total cpu time spent up to now is      112.2 secs

     total energy              =    -359.73222137 Ry
     estimated scf accuracy    <       0.00139482 Ry

     iteration # 11     ecut=    50.00 Ry     beta= 0.30
     Davidson diagonalization with overlap
     ethr =  2.58E-06,  avg # of iterations =  1.2

     total cpu time spent up to now is      117.4 secs

     total energy              =    -359.73189354 Ry
     estimated scf accuracy    <       0.00137029 Ry

     iteration # 12     ecut=    50.00 Ry     beta= 0.30
     Davidson diagonalization with overlap
     ethr =  2.58E-06,  avg # of iterations =  4.2

     total cpu time spent up to now is      124.3 secs

     total energy              =    -359.73213406 Ry
     estimated scf accuracy    <       0.00009752 Ry

     iteration # 13     ecut=    50.00 Ry     beta= 0.30
     Davidson diagonalization with overlap
     c_bands:  1 eigenvalues not converged
     ethr =  2.71E-07,  avg # of iterations =  7.1

     total cpu time spent up to now is      132.6 secs

     total energy              =    -359.73218038 Ry
     estimated scf accuracy    <       0.00003278 Ry

     iteration # 14     ecut=    50.00 Ry     beta= 0.30
     Davidson diagonalization with overlap
     c_bands:  1 eigenvalues not converged
     ethr =  9.10E-08,  avg # of iterations =  2.8

     total cpu time spent up to now is      138.2 secs

     total energy              =    -359.73217846 Ry
     estimated scf accuracy    <       0.00003213 Ry

     iteration # 15     ecut=    50.00 Ry     beta= 0.30
     Davidson diagonalization with overlap
     c_bands:  1 eigenvalues not converged
     c_bands:  1 eigenvalues not converged
     c_bands:  1 eigenvalues not converged
     c_bands:  1 eigenvalues not converged
     ethr =  8.92E-08,  avg # of iterations =  9.8

     total cpu time spent up to now is      148.4 secs

     total energy              =    -359.73232642 Ry
     estimated scf accuracy    <       0.00016361 Ry

     iteration # 16     ecut=    50.00 Ry     beta= 0.30
     Davidson diagonalization with overlap
     c_bands:  2 eigenvalues not converged
     c_bands:  2 eigenvalues not converged
     c_bands:  1 eigenvalues not converged
     c_bands:  2 eigenvalues not converged
     c_bands:  1 eigenvalues not converged
     c_bands:  1 eigenvalues not converged
     c_bands:  1 eigenvalues not converged
     c_bands:  1 eigenvalues not converged
     c_bands:  1 eigenvalues not converged
     c_bands:  1 eigenvalues not converged
     c_bands:  1 eigenvalues not converged
     ethr =  8.92E-08,  avg # of iterations = 15.8

     total cpu time spent up to now is      166.5 secs

     total energy              =    -359.73236849 Ry
     estimated scf accuracy    <       0.00190012 Ry

     iteration # 17     ecut=    50.00 Ry     beta= 0.30
     Davidson diagonalization with overlap
     ethr =  8.92E-08,  avg # of iterations =  2.2

     total cpu time spent up to now is      172.0 secs

     total energy              =    -359.73206108 Ry
     estimated scf accuracy    <       0.00168468 Ry

     iteration # 18     ecut=    50.00 Ry     beta= 0.30
     Davidson diagonalization with overlap
     c_bands:  1 eigenvalues not converged
     c_bands:  1 eigenvalues not converged
     c_bands:  1 eigenvalues not converged
     c_bands:  1 eigenvalues not converged
     c_bands:  1 eigenvalues not converged
     c_bands:  1 eigenvalues not converged
     c_bands:  1 eigenvalues not converged
     c_bands:  1 eigenvalues not converged
     c_bands:  1 eigenvalues not converged
     c_bands:  1 eigenvalues not converged
     ethr =  8.92E-08,  avg # of iterations = 15.0

     total cpu time spent up to now is      189.7 secs

     total energy              =    -359.73223898 Ry
     estimated scf accuracy    <       0.00010934 Ry

     iteration # 19     ecut=    50.00 Ry     beta= 0.30
     Davidson diagonalization with overlap
     ethr =  8.92E-08,  avg # of iterations =  7.2

     total cpu time spent up to now is      199.6 secs

     total energy              =    -359.73222488 Ry
     estimated scf accuracy    <       0.00050055 Ry

     iteration # 20     ecut=    50.00 Ry     beta= 0.30
     Davidson diagonalization with overlap
     ethr =  8.92E-08,  avg # of iterations =  1.5

     total cpu time spent up to now is      204.7 secs

     total energy              =    -359.73220492 Ry
     estimated scf accuracy    <       0.00042313 Ry

     iteration # 21     ecut=    50.00 Ry     beta= 0.30
     Davidson diagonalization with overlap
     ethr =  8.92E-08,  avg # of iterations =  2.8

     total cpu time spent up to now is      210.6 secs

     total energy              =    -359.73212139 Ry
     estimated scf accuracy    <       0.00030760 Ry

     iteration # 22     ecut=    50.00 Ry     beta= 0.30
     Davidson diagonalization with overlap
     c_bands:  1 eigenvalues not converged
     c_bands:  1 eigenvalues not converged
     c_bands:  1 eigenvalues not converged
     c_bands:  2 eigenvalues not converged
     c_bands:  1 eigenvalues not converged
     c_bands:  1 eigenvalues not converged
     ethr =  8.92E-08,  avg # of iterations = 11.8

     total cpu time spent up to now is      224.5 secs

     total energy              =    -359.73217751 Ry
     estimated scf accuracy    <       0.00000494 Ry

     iteration # 23     ecut=    50.00 Ry     beta= 0.30
     Davidson diagonalization with overlap
     ethr =  1.37E-08,  avg # of iterations =  6.7

     total cpu time spent up to now is      231.8 secs

     total energy              =    -359.73217700 Ry
     estimated scf accuracy    <       0.00000738 Ry

     iteration # 24     ecut=    50.00 Ry     beta= 0.30
     Davidson diagonalization with overlap
     ethr =  1.37E-08,  avg # of iterations =  5.1

     total cpu time spent up to now is      239.1 secs

     total energy              =    -359.73217828 Ry
     estimated scf accuracy    <       0.00000005 Ry

     iteration # 25     ecut=    50.00 Ry     beta= 0.30
     Davidson diagonalization with overlap
     c_bands:  2 eigenvalues not converged
     c_bands:  2 eigenvalues not converged
     c_bands:  2 eigenvalues not converged
     c_bands:  1 eigenvalues not converged
     c_bands:  2 eigenvalues not converged
     c_bands:  1 eigenvalues not converged
     c_bands:  1 eigenvalues not converged
     c_bands:  2 eigenvalues not converged
     c_bands:  3 eigenvalues not converged
     c_bands:  2 eigenvalues not converged
     c_bands:  1 eigenvalues not converged
     c_bands:  1 eigenvalues not converged
     c_bands:  2 eigenvalues not converged
     c_bands:  1 eigenvalues not converged
     c_bands:  2 eigenvalues not converged
     c_bands:  3 eigenvalues not converged
     c_bands:  1 eigenvalues not converged
     c_bands:  1 eigenvalues not converged
     c_bands:  2 eigenvalues not converged
     c_bands:  1 eigenvalues not converged
     c_bands:  1 eigenvalues not converged
     c_bands:  1 eigenvalues not converged
     c_bands:  1 eigenvalues not converged
     c_bands:  1 eigenvalues not converged
     c_bands:  1 eigenvalues not converged
     c_bands:  2 eigenvalues not converged
     c_bands:  3 eigenvalues not converged
     c_bands:  1 eigenvalues not converged
     c_bands:  1 eigenvalues not converged
     c_bands:  1 eigenvalues not converged
     c_bands:  1 eigenvalues not converged
     c_bands:  1 eigenvalues not converged
     c_bands:  2 eigenvalues not converged
     c_bands:  1 eigenvalues not converged
     c_bands:  1 eigenvalues not converged
     c_bands:  1 eigenvalues not converged
     c_bands:  1 eigenvalues not converged
     c_bands:  2 eigenvalues not converged
     ethr =  1.34E-10,  avg # of iterations = 16.2

     total cpu time spent up to now is      262.1 secs

     total energy              =    -359.73217830 Ry
     estimated scf accuracy    <       0.00000163 Ry

     iteration # 26     ecut=    50.00 Ry     beta= 0.30
     Davidson diagonalization with overlap
     c_bands:  1 eigenvalues not converged
     c_bands:  1 eigenvalues not converged
     c_bands:  1 eigenvalues not converged
     c_bands:  1 eigenvalues not converged
     c_bands:  2 eigenvalues not converged
     c_bands:  1 eigenvalues not converged
     c_bands:  1 eigenvalues not converged
     c_bands:  1 eigenvalues not converged
     c_bands:  1 eigenvalues not converged
     c_bands:  2 eigenvalues not converged
     c_bands:  1 eigenvalues not converged
     c_bands:  1 eigenvalues not converged
     c_bands:  1 eigenvalues not converged
     c_bands:  1 eigenvalues not converged
     ethr =  1.34E-10,  avg # of iterations = 15.6

     total cpu time spent up to now is      283.8 secs

     total energy              =    -359.73217861 Ry
     estimated scf accuracy    <       0.00000017 Ry

     iteration # 27     ecut=    50.00 Ry     beta= 0.30
     Davidson diagonalization with overlap
     c_bands:  1 eigenvalues not converged
     c_bands:  1 eigenvalues not converged
     ethr =  1.34E-10,  avg # of iterations =  9.4

     total cpu time spent up to now is      295.7 secs

     total energy              =    -359.73217866 Ry
     estimated scf accuracy    <       0.00000002 Ry

     iteration # 28     ecut=    50.00 Ry     beta= 0.30
     Davidson diagonalization with overlap
     c_bands:  1 eigenvalues not converged
     c_bands:  1 eigenvalues not converged
     ethr =  5.24E-11,  avg # of iterations =  7.5

     total cpu time spent up to now is      304.1 secs

     total energy              =    -359.73217864 Ry
     estimated scf accuracy    <       0.00000010 Ry

     iteration # 29     ecut=    50.00 Ry     beta= 0.30
     Davidson diagonalization with overlap
     ethr =  5.24E-11,  avg # of iterations =  7.0

     total cpu time spent up to now is      313.4 secs

     End of self-consistent calculation

     Number of k-points >= 100: set verbosity='high' to print the bands.

     highest occupied level (ev):     7.5581

!    total energy              =    -359.73217865 Ry
     estimated scf accuracy    <          2.2E-09 Ry

     The total energy is the sum of the following terms:
     one-electron contribution =    -236.00213892 Ry
     hartree contribution      =     155.90882828 Ry
     xc contribution           =    -109.96762590 Ry
     ewald contribution        =    -169.67124211 Ry

     convergence has been achieved in  29 iterations

     Forces acting on atoms (cartesian axes, Ry/au):

     atom    1 type  1   force =     1.10546629    2.07334894   -2.47108592
     atom    2 type  1   force =     0.70930681    0.20412236    0.50362243
     atom    3 type  2   force =    -0.71322609   -0.18729391   -0.28882458
     atom    4 type  2   force =    -1.10154700   -2.09017739    2.25628807
     The non-local contrib.  to forces
     atom    1 type  1   force =     0.14912971    0.39640055   -0.42045568
     atom    2 type  1   force =     0.92710376    0.33080863    0.81830616
     atom    3 type  2   force =     0.56608473    0.22588000    0.99593553
     atom    4 type  2   force =     0.30234606    0.44286077   -0.95510442
     The ionic contribution  to forces
     atom    1 type  1   force =     8.12268543   13.40732523  -38.44657040
     atom    2 type  1   force =     8.57050945    1.81616417   30.17141319
     atom    3 type  2   force =    -9.93599906   -1.62097204   -0.19580535
     atom    4 type  2   force =    -6.75719582  -13.60251736    8.47096256
     The local contribution  to forces
     atom    1 type  1   force =    -7.07243690  -11.55495758   36.18449290
     atom    2 type  1   force =    -8.68476677   -1.90863811  -30.38510198
     atom    3 type  2   force =     8.65746379    1.20919199   -1.08172878
     atom    4 type  2   force =     5.35154263   11.06454429   -5.25852799
     The core correction contribution to forces
     atom    1 type  1   force =    -0.09388748   -0.17537365    0.21118725
     atom    2 type  1   force =    -0.10352089   -0.03422013   -0.10077215
     atom    3 type  2   force =    -0.00077657   -0.00139505   -0.00716449
     atom    4 type  2   force =     0.00175243    0.00493005   -0.00109492
     The Hubbard contrib.    to forces
     atom    1 type  1   force =     0.00000000    0.00000000    0.00000000
     atom    2 type  1   force =     0.00000000    0.00000000    0.00000000
     atom    3 type  2   force =     0.00000000    0.00000000    0.00000000
     atom    4 type  2   force =     0.00000000    0.00000000    0.00000000
     The SCF correction term to forces
     atom    1 type  1   force =    -0.00002880   -0.00004981    0.00026829
     atom    2 type  1   force =    -0.00002308    0.00000360   -0.00021450
     atom    3 type  2   force =    -0.00000331   -0.00000301   -0.00005321
     atom    4 type  2   force =     0.00000336    0.00000067    0.00006114

     Total force =     4.870912     Total SCF correction =     0.000358

     Writing all to output data dir ./ZnO_ANN.save/

     init_run     :      3.68s CPU      3.80s WALL (       1 calls)
     electrons    :    304.20s CPU    309.19s WALL (       1 calls)
     forces       :      1.14s CPU      1.15s WALL (       1 calls)

     Called by init_run:
     wfcinit      :      2.81s CPU      2.88s WALL (       1 calls)
     potinit      :      0.24s CPU      0.24s WALL (       1 calls)
     hinit0       :      0.55s CPU      0.57s WALL (       1 calls)

     Called by electrons:
     c_bands      :    279.23s CPU    283.69s WALL (      29 calls)
     sum_band     :     22.63s CPU     23.10s WALL (      29 calls)
     v_of_rho     :      0.46s CPU      0.50s WALL (      30 calls)
     newd         :      1.81s CPU      1.84s WALL (      30 calls)
     mix_rho      :      0.09s CPU      0.09s WALL (      29 calls)

     Called by c_bands:
     init_us_2    :      1.61s CPU      1.64s WALL (    6720 calls)
     init_us_2:cp :      1.59s CPU      1.62s WALL (    6720 calls)
     cegterg      :    274.00s CPU    278.35s WALL (    3248 calls)

     Called by *egterg:
     cdiaghg      :     31.52s CPU     31.80s WALL (   28476 calls)
     h_psi        :    154.29s CPU    157.50s WALL (   28588 calls)
     s_psi        :     17.51s CPU     17.65s WALL (   28588 calls)
     g_psi        :      0.58s CPU      0.58s WALL (   25228 calls)

     Called by h_psi:
     h_psi:calbec :     20.95s CPU     21.61s WALL (   28588 calls)
     vloc_psi     :    115.20s CPU    117.60s WALL (   28588 calls)
     add_vuspsi   :     17.63s CPU     17.80s WALL (   28588 calls)

     General routines
     calbec       :     26.50s CPU     27.28s WALL (   32284 calls)
     fft          :      0.69s CPU      0.74s WALL (     399 calls)
     ffts         :      0.09s CPU      0.09s WALL (      59 calls)
     fftw         :    116.14s CPU    118.58s WALL (  536212 calls)
     interpolate  :      0.10s CPU      0.11s WALL (      30 calls)

     Parallel routines

     PWSCF        :   5m 9.75s CPU   5m15.15s WALL


   This run was terminated on:  14:57:13  23Jun2025            

=------------------------------------------------------------------------------=
   JOB DONE.
=------------------------------------------------------------------------------=
Note: The following floating-point exceptions are signalling: IEEE_INVALID_FLAG
