
     Program PWSCF v.7.2 starts on 23Jun2025 at 15:59:10 

     This program is part of the open-source Quantum ESPRESSO suite
     for quantum simulation of materials; please cite
         "P. Giannozzi et al., J. Phys.:Condens. Matter 21 395502 (2009);
         "P. Giannozzi et al., J. Phys.:Condens. Matter 29 465901 (2017);
         "P. Giannozzi et al., J. Chem. Phys. 152 154105 (2020);
          URL http://www.quantum-espresso.org", 
     in publications or presentations arising from this work. More details at
     http://www.quantum-espresso.org/quote

     Parallel version (MPI), running on     8 processors

     MPI processes distributed on     1 nodes
     90877 MiB available memory on the printing compute node when the environment starts

     Reading input from /home/jvc/QEspresso7.2/ZnO_DataBase/scfs_rnd025.in/scf-6.43-1.61-3.in

     Current dimensions of program PWSCF are:
     Max number of different atomic species (ntypx) = 10
     Max number of k-points (npk) =  40000
     Max angular momentum in pseudopotentials (lmaxx) =  4
     file Zn.upf: wavefunction(s)  3D renormalized

     R & G space division:  proc/nbgrp/npool/nimage =       8
     Subspace diagonalization in iterative solution of the eigenvalue problem:
     a serial algorithm will be used


     Parallelization info
     --------------------
     sticks:   dense  smooth     PW     G-vecs:    dense   smooth      PW
     Min         143      71     20                 6267     2213     360
     Max         145      73     21                 6268     2216     367
     Sum        1147     571    163                50137    17717    2899

     Using Slab Decomposition



     bravais-lattice index     =            4
     lattice parameter (alat)  =       6.4260  a.u.
     unit-cell volume          =     370.9775 (a.u.)^3
     number of atoms/cell      =            4
     number of atomic types    =            2
     number of electrons       =        36.00
     number of Kohn-Sham states=           18
     kinetic-energy cutoff     =      50.0000  Ry
     charge density cutoff     =     400.0000  Ry
     scf convergence threshold =      1.0E-08
     mixing beta               =       0.3000
     number of iterations used =            8  plain     mixing
     Exchange-correlation= PBE
                           (   1   4   3   4   0   0   0)

     celldm(1)=   6.425974  celldm(2)=   0.000000  celldm(3)=   1.614358
     celldm(4)=   0.000000  celldm(5)=   0.000000  celldm(6)=   0.000000

     crystal axes: (cart. coord. in units of alat)
               a(1) = (   1.000000   0.000000   0.000000 )  
               a(2) = (  -0.500000   0.866025   0.000000 )  
               a(3) = (   0.000000   0.000000   1.614358 )  

     reciprocal axes: (cart. coord. in units 2 pi/alat)
               b(1) = (  1.000000  0.577350 -0.000000 )  
               b(2) = (  0.000000  1.154701  0.000000 )  
               b(3) = (  0.000000 -0.000000  0.619441 )  


     PseudoPot. # 1 for Zn read from file:
     ./pseudos/Zn.upf
     MD5 check sum: 7f56cabf9682ed8c977c2f7d0c5985c5
     Pseudo is Ultrasoft + core correction, Zval = 12.0
     Generated using &quot;atomic&quot; code by A. Dal Corso  v.6.2.2
     Using radial grid of 1201 points,  6 beta functions with: 
                l(1) =   0
                l(2) =   0
                l(3) =   1
                l(4) =   1
                l(5) =   2
                l(6) =   2
     Q(r) pseudized with 0 coefficients 


     PseudoPot. # 2 for O  read from file:
     ./pseudos/O.upf
     MD5 check sum: 91400c9766925bcf19f520983a725ff0
     Pseudo is Ultrasoft + core correction, Zval =  6.0
     Generated using &quot;atomic&quot; code by A. Dal Corso  v.6.3MaX
     Using radial grid of 1095 points,  4 beta functions with: 
                l(1) =   0
                l(2) =   0
                l(3) =   1
                l(4) =   1
     Q(r) pseudized with 0 coefficients 


     atomic species   valence    mass     pseudopotential
        Zn            12.00    63.38000     Zn( 1.00)
        O              6.00    15.99900     O ( 1.00)

     No symmetry found



   Cartesian axes

     site n.     atom                  positions (alat units)
         1           Zn  tau(   1) = (   0.5057306   0.4311868   0.9135573  )
         2           Zn  tau(   2) = (   0.1219184   0.4262852   0.1362801  )
         3           O   tau(   3) = (   0.3800253   0.2478847   1.5713715  )
         4           O   tau(   4) = (   0.1168914   0.7914417   0.8198366  )

     number of k points=   112

     Number of k-points >= 100: set verbosity='high' to print them.

     Dense  grid:    50137 G-vectors     FFT dimensions: (  45,  45,  72)

     Smooth grid:    17717 G-vectors     FFT dimensions: (  30,  30,  48)

     Estimated max dynamical RAM per process >      34.24 MB

     Estimated total dynamical RAM >     273.90 MB

     Check: negative core charge=   -0.000002

     Initial potential from superposition of free atoms

     starting charge      35.9925, renormalised to      36.0000
     Starting wfcs are   26 randomized atomic wfcs

     total cpu time spent up to now is        4.2 secs

     Self-consistent Calculation

     iteration #  1     ecut=    50.00 Ry     beta= 0.30
     Davidson diagonalization with overlap
     ethr =  1.00E-02,  avg # of iterations =  2.1

     total cpu time spent up to now is       10.3 secs

     total energy              =    -360.44440629 Ry
     estimated scf accuracy    <       1.26960805 Ry

     iteration #  2     ecut=    50.00 Ry     beta= 0.30
     Davidson diagonalization with overlap
     ethr =  3.53E-03,  avg # of iterations =  2.0

     total cpu time spent up to now is       16.6 secs

     total energy              =    -360.50848445 Ry
     estimated scf accuracy    <       0.21126531 Ry

     iteration #  3     ecut=    50.00 Ry     beta= 0.30
     Davidson diagonalization with overlap
     ethr =  5.87E-04,  avg # of iterations =  7.8

     total cpu time spent up to now is       29.2 secs

     total energy              =    -360.68607718 Ry
     estimated scf accuracy    <       0.44085667 Ry

     iteration #  4     ecut=    50.00 Ry     beta= 0.30
     Davidson diagonalization with overlap
     ethr =  5.87E-04,  avg # of iterations =  2.0

     total cpu time spent up to now is       35.0 secs

     total energy              =    -360.56720579 Ry
     estimated scf accuracy    <       0.18801339 Ry

     iteration #  5     ecut=    50.00 Ry     beta= 0.30
     Davidson diagonalization with overlap
     ethr =  5.22E-04,  avg # of iterations =  9.2

     total cpu time spent up to now is       53.8 secs

     total energy              =    -360.75691059 Ry
     estimated scf accuracy    <       2.77094181 Ry

     iteration #  6     ecut=    50.00 Ry     beta= 0.30
     Davidson diagonalization with overlap
     ethr =  5.22E-04,  avg # of iterations =  5.5

     total cpu time spent up to now is       64.4 secs

     total energy              =    -360.79941520 Ry
     estimated scf accuracy    <       0.79850592 Ry

     iteration #  7     ecut=    50.00 Ry     beta= 0.30
     Davidson diagonalization with overlap
     ethr =  5.22E-04,  avg # of iterations =  1.3

     total cpu time spent up to now is       69.6 secs

     total energy              =    -360.76069500 Ry
     estimated scf accuracy    <       0.60593216 Ry

     iteration #  8     ecut=    50.00 Ry     beta= 0.30
     Davidson diagonalization with overlap
     ethr =  5.22E-04,  avg # of iterations =  1.9

     total cpu time spent up to now is       75.2 secs

     total energy              =    -360.64728040 Ry
     estimated scf accuracy    <       0.43647266 Ry

     iteration #  9     ecut=    50.00 Ry     beta= 0.30
     Davidson diagonalization with overlap
     ethr =  5.22E-04,  avg # of iterations =  4.9

     total cpu time spent up to now is       83.1 secs

     total energy              =    -360.69003727 Ry
     estimated scf accuracy    <       0.04266807 Ry

     iteration # 10     ecut=    50.00 Ry     beta= 0.30
     Davidson diagonalization with overlap
     ethr =  1.19E-04,  avg # of iterations =  4.7

     total cpu time spent up to now is       91.2 secs

     total energy              =    -360.70605953 Ry
     estimated scf accuracy    <       0.00083619 Ry

     iteration # 11     ecut=    50.00 Ry     beta= 0.30
     Davidson diagonalization with overlap
     ethr =  2.32E-06,  avg # of iterations =  9.4

     total cpu time spent up to now is      106.3 secs

     total energy              =    -360.71114602 Ry
     estimated scf accuracy    <       0.00389096 Ry

     iteration # 12     ecut=    50.00 Ry     beta= 0.30
     Davidson diagonalization with overlap
     ethr =  2.32E-06,  avg # of iterations =  6.3

     total cpu time spent up to now is      117.1 secs

     total energy              =    -360.71037813 Ry
     estimated scf accuracy    <       0.01382834 Ry

     iteration # 13     ecut=    50.00 Ry     beta= 0.30
     Davidson diagonalization with overlap
     ethr =  2.32E-06,  avg # of iterations =  2.0

     total cpu time spent up to now is      122.8 secs

     total energy              =    -360.70643855 Ry
     estimated scf accuracy    <       0.01097924 Ry

     iteration # 14     ecut=    50.00 Ry     beta= 0.30
     Davidson diagonalization with overlap
     ethr =  2.32E-06,  avg # of iterations =  8.5

     total cpu time spent up to now is      137.7 secs

     total energy              =    -360.70863567 Ry
     estimated scf accuracy    <       0.00115742 Ry

     iteration # 15     ecut=    50.00 Ry     beta= 0.30
     Davidson diagonalization with overlap
     ethr =  2.32E-06,  avg # of iterations =  1.0

     total cpu time spent up to now is      142.8 secs

     total energy              =    -360.70885775 Ry
     estimated scf accuracy    <       0.00121551 Ry

     iteration # 16     ecut=    50.00 Ry     beta= 0.30
     Davidson diagonalization with overlap
     ethr =  2.32E-06,  avg # of iterations =  5.2

     total cpu time spent up to now is      152.3 secs

     total energy              =    -360.70941673 Ry
     estimated scf accuracy    <       0.00362693 Ry

     iteration # 17     ecut=    50.00 Ry     beta= 0.30
     Davidson diagonalization with overlap
     ethr =  2.32E-06,  avg # of iterations =  1.9

     total cpu time spent up to now is      157.9 secs

     total energy              =    -360.70743679 Ry
     estimated scf accuracy    <       0.00418781 Ry

     iteration # 18     ecut=    50.00 Ry     beta= 0.30
     Davidson diagonalization with overlap
     ethr =  2.32E-06,  avg # of iterations =  6.9

     total cpu time spent up to now is      170.5 secs

     total energy              =    -360.70836617 Ry
     estimated scf accuracy    <       0.00029707 Ry

     iteration # 19     ecut=    50.00 Ry     beta= 0.30
     Davidson diagonalization with overlap
     ethr =  8.25E-07,  avg # of iterations =  1.6

     total cpu time spent up to now is      175.9 secs

     total energy              =    -360.70832349 Ry
     estimated scf accuracy    <       0.00019903 Ry

     iteration # 20     ecut=    50.00 Ry     beta= 0.30
     Davidson diagonalization with overlap
     ethr =  5.53E-07,  avg # of iterations =  4.5

     total cpu time spent up to now is      184.3 secs

     total energy              =    -360.70830276 Ry
     estimated scf accuracy    <       0.00016303 Ry

     iteration # 21     ecut=    50.00 Ry     beta= 0.30
     Davidson diagonalization with overlap
     ethr =  4.53E-07,  avg # of iterations =  5.7

     total cpu time spent up to now is      194.3 secs

     total energy              =    -360.70839678 Ry
     estimated scf accuracy    <       0.00012756 Ry

     iteration # 22     ecut=    50.00 Ry     beta= 0.30
     Davidson diagonalization with overlap
     ethr =  3.54E-07,  avg # of iterations =  2.1

     total cpu time spent up to now is      200.0 secs

     total energy              =    -360.70836760 Ry
     estimated scf accuracy    <       0.00016247 Ry

     iteration # 23     ecut=    50.00 Ry     beta= 0.30
     Davidson diagonalization with overlap
     ethr =  3.54E-07,  avg # of iterations =  1.6

     total cpu time spent up to now is      205.4 secs

     total energy              =    -360.70832495 Ry
     estimated scf accuracy    <       0.00010039 Ry

     iteration # 24     ecut=    50.00 Ry     beta= 0.30
     Davidson diagonalization with overlap
     ethr =  2.79E-07,  avg # of iterations =  4.9

     total cpu time spent up to now is      213.9 secs

     total energy              =    -360.70835747 Ry
     estimated scf accuracy    <       0.00001630 Ry

     iteration # 25     ecut=    50.00 Ry     beta= 0.30
     Davidson diagonalization with overlap
     ethr =  4.53E-08,  avg # of iterations =  2.3

     total cpu time spent up to now is      219.8 secs

     total energy              =    -360.70836017 Ry
     estimated scf accuracy    <       0.00001325 Ry

     iteration # 26     ecut=    50.00 Ry     beta= 0.30
     Davidson diagonalization with overlap
     ethr =  3.68E-08,  avg # of iterations =  1.6

     total cpu time spent up to now is      225.2 secs

     total energy              =    -360.70836579 Ry
     estimated scf accuracy    <       0.00001632 Ry

     iteration # 27     ecut=    50.00 Ry     beta= 0.30
     Davidson diagonalization with overlap
     ethr =  3.68E-08,  avg # of iterations =  5.3

     total cpu time spent up to now is      233.8 secs

     total energy              =    -360.70835198 Ry
     estimated scf accuracy    <       0.00006316 Ry

     iteration # 28     ecut=    50.00 Ry     beta= 0.30
     Davidson diagonalization with overlap
     ethr =  3.68E-08,  avg # of iterations =  5.1

     total cpu time spent up to now is      242.9 secs

     total energy              =    -360.70835599 Ry
     estimated scf accuracy    <       0.00001237 Ry

     iteration # 29     ecut=    50.00 Ry     beta= 0.30
     Davidson diagonalization with overlap
     ethr =  3.44E-08,  avg # of iterations =  3.8

     total cpu time spent up to now is      249.5 secs

     total energy              =    -360.70835738 Ry
     estimated scf accuracy    <       0.00000727 Ry

     iteration # 30     ecut=    50.00 Ry     beta= 0.30
     Davidson diagonalization with overlap
     ethr =  2.02E-08,  avg # of iterations =  6.1

     total cpu time spent up to now is      260.1 secs

     total energy              =    -360.70834967 Ry
     estimated scf accuracy    <       0.00002588 Ry

     iteration # 31     ecut=    50.00 Ry     beta= 0.30
     Davidson diagonalization with overlap
     ethr =  2.02E-08,  avg # of iterations =  7.0

     total cpu time spent up to now is      271.8 secs

     total energy              =    -360.70835664 Ry
     estimated scf accuracy    <       0.00000527 Ry

     iteration # 32     ecut=    50.00 Ry     beta= 0.30
     Davidson diagonalization with overlap
     ethr =  1.46E-08,  avg # of iterations =  2.3

     total cpu time spent up to now is      277.6 secs

     total energy              =    -360.70835708 Ry
     estimated scf accuracy    <       0.00000283 Ry

     iteration # 33     ecut=    50.00 Ry     beta= 0.30
     Davidson diagonalization with overlap
     ethr =  7.86E-09,  avg # of iterations =  2.0

     total cpu time spent up to now is      283.2 secs

     total energy              =    -360.70835752 Ry
     estimated scf accuracy    <       0.00000285 Ry

     iteration # 34     ecut=    50.00 Ry     beta= 0.30
     Davidson diagonalization with overlap
     ethr =  7.86E-09,  avg # of iterations =  1.2

     total cpu time spent up to now is      288.3 secs

     total energy              =    -360.70835646 Ry
     estimated scf accuracy    <       0.00000346 Ry

     iteration # 35     ecut=    50.00 Ry     beta= 0.30
     Davidson diagonalization with overlap
     ethr =  7.86E-09,  avg # of iterations =  2.0

     total cpu time spent up to now is      294.2 secs

     total energy              =    -360.70835578 Ry
     estimated scf accuracy    <       0.00000137 Ry

     iteration # 36     ecut=    50.00 Ry     beta= 0.30
     Davidson diagonalization with overlap
     ethr =  3.79E-09,  avg # of iterations =  7.1

     total cpu time spent up to now is      306.0 secs

     total energy              =    -360.70835665 Ry
     estimated scf accuracy    <       0.00000331 Ry

     iteration # 37     ecut=    50.00 Ry     beta= 0.30
     Davidson diagonalization with overlap
     ethr =  3.79E-09,  avg # of iterations =  2.0

     total cpu time spent up to now is      311.8 secs

     total energy              =    -360.70835618 Ry
     estimated scf accuracy    <       0.00000162 Ry

     iteration # 38     ecut=    50.00 Ry     beta= 0.30
     Davidson diagonalization with overlap
     ethr =  3.79E-09,  avg # of iterations =  5.2

     total cpu time spent up to now is      320.6 secs

     total energy              =    -360.70835674 Ry
     estimated scf accuracy    <       0.00000007 Ry

     iteration # 39     ecut=    50.00 Ry     beta= 0.30
     Davidson diagonalization with overlap
     ethr =  1.83E-10,  avg # of iterations =  5.3

     total cpu time spent up to now is      328.8 secs

     total energy              =    -360.70835675 Ry
     estimated scf accuracy    <       0.00000005 Ry

     iteration # 40     ecut=    50.00 Ry     beta= 0.30
     Davidson diagonalization with overlap
     ethr =  1.35E-10,  avg # of iterations =  2.2

     total cpu time spent up to now is      334.5 secs

     total energy              =    -360.70835675 Ry
     estimated scf accuracy    <       0.00000002 Ry

     iteration # 41     ecut=    50.00 Ry     beta= 0.30
     Davidson diagonalization with overlap
     ethr =  4.82E-11,  avg # of iterations =  8.3

     total cpu time spent up to now is      346.5 secs

     total energy              =    -360.70835677 Ry
     estimated scf accuracy    <       0.00000005 Ry

     iteration # 42     ecut=    50.00 Ry     beta= 0.30
     Davidson diagonalization with overlap
     ethr =  4.82E-11,  avg # of iterations =  3.4

     total cpu time spent up to now is      352.9 secs

     total energy              =    -360.70835676 Ry
     estimated scf accuracy    <       0.00000006 Ry

     iteration # 43     ecut=    50.00 Ry     beta= 0.30
     Davidson diagonalization with overlap
     ethr =  4.82E-11,  avg # of iterations =  5.2

     total cpu time spent up to now is      361.9 secs

     total energy              =    -360.70835676 Ry
     estimated scf accuracy    <       0.00000006 Ry

     iteration # 44     ecut=    50.00 Ry     beta= 0.30
     Davidson diagonalization with overlap
     ethr =  4.82E-11,  avg # of iterations =  3.0

     total cpu time spent up to now is      368.1 secs

     total energy              =    -360.70835675 Ry
     estimated scf accuracy    <       0.00000002 Ry

     iteration # 45     ecut=    50.00 Ry     beta= 0.30
     Davidson diagonalization with overlap
     ethr =  4.82E-11,  avg # of iterations =  3.8

     total cpu time spent up to now is      374.7 secs

     End of self-consistent calculation

     Number of k-points >= 100: set verbosity='high' to print the bands.

     highest occupied level (ev):     5.5980

!    total energy              =    -360.70835675 Ry
     estimated scf accuracy    <          6.6E-09 Ry

     The total energy is the sum of the following terms:
     one-electron contribution =    -187.28563422 Ry
     hartree contribution      =     131.66044195 Ry
     xc contribution           =    -109.68570019 Ry
     ewald contribution        =    -195.39746430 Ry

     convergence has been achieved in  45 iterations

     Forces acting on atoms (cartesian axes, Ry/au):

     atom    1 type  1   force =     0.01906757    0.03347346    0.02761066
     atom    2 type  1   force =    -1.66173030    1.17625865    1.14469126
     atom    3 type  2   force =     1.66207128   -1.14999280   -1.13494230
     atom    4 type  2   force =    -0.01940855   -0.05973930   -0.03735962
     The non-local contrib.  to forces
     atom    1 type  1   force =     0.24946806    0.21094323    0.16830853
     atom    2 type  1   force =    -0.90261167    0.58107350    0.63597161
     atom    3 type  2   force =    -0.73860323    0.60514827    0.57790778
     atom    4 type  2   force =     0.31316122    0.11444815    0.16031871
     The ionic contribution  to forces
     atom    1 type  1   force =     2.94926277    2.31273632    1.41745741
     atom    2 type  1   force =   -15.09999448    9.29485875    9.69639315
     atom    3 type  2   force =    13.85050439  -10.45460005   -9.24391016
     atom    4 type  2   force =    -1.69977268   -1.15299502   -1.86994040
     The local contribution  to forces
     atom    1 type  1   force =    -3.15768496   -2.47210791   -1.54268647
     atom    2 type  1   force =    14.15855295   -8.57996947   -9.06146954
     atom    3 type  2   force =   -11.44888428    8.69960622    7.53117716
     atom    4 type  2   force =     1.36998233    0.97952127    1.67339364
     The core correction contribution to forces
     atom    1 type  1   force =    -0.02194601   -0.01810151   -0.01558712
     atom    2 type  1   force =     0.18214721   -0.11958567   -0.12597469
     atom    3 type  2   force =    -0.00092504   -0.00016327   -0.00008393
     atom    4 type  2   force =    -0.00275353   -0.00073647   -0.00119531
     The Hubbard contrib.    to forces
     atom    1 type  1   force =     0.00000000    0.00000000    0.00000000
     atom    2 type  1   force =     0.00000000    0.00000000    0.00000000
     atom    3 type  2   force =     0.00000000    0.00000000    0.00000000
     atom    4 type  2   force =     0.00000000    0.00000000    0.00000000
     The SCF correction term to forces
     atom    1 type  1   force =    -0.00000916   -0.00001494    0.00010111
     atom    2 type  1   force =     0.00019883   -0.00013673   -0.00024646
     atom    3 type  2   force =     0.00000257   -0.00000223   -0.00005034
     atom    4 type  2   force =    -0.00000275    0.00000450    0.00004655

     Total force =     3.291792     Total SCF correction =     0.000366

     Writing all to output data dir ./ZnO_ANN.save/

     init_run     :      3.69s CPU      3.78s WALL (       1 calls)
     electrons    :    363.75s CPU    370.50s WALL (       1 calls)
     forces       :      1.20s CPU      1.21s WALL (       1 calls)

     Called by init_run:
     wfcinit      :      2.78s CPU      2.84s WALL (       1 calls)
     potinit      :      0.32s CPU      0.33s WALL (       1 calls)
     hinit0       :      0.50s CPU      0.51s WALL (       1 calls)

     Called by electrons:
     c_bands      :    324.12s CPU    329.93s WALL (      45 calls)
     sum_band     :     35.59s CPU     36.43s WALL (      45 calls)
     v_of_rho     :      0.89s CPU      0.95s WALL (      46 calls)
     newd         :      2.98s CPU      3.03s WALL (      46 calls)
     mix_rho      :      0.15s CPU      0.16s WALL (      45 calls)

     Called by c_bands:
     init_us_2    :      2.69s CPU      2.74s WALL (   10304 calls)
     init_us_2:cp :      2.65s CPU      2.71s WALL (   10304 calls)
     cegterg      :    315.88s CPU    321.53s WALL (    5040 calls)

     Called by *egterg:
     cdiaghg      :     29.26s CPU     29.46s WALL (   26011 calls)
     h_psi        :    187.97s CPU    192.22s WALL (   26123 calls)
     s_psi        :     24.52s CPU     24.71s WALL (   26123 calls)
     g_psi        :      0.64s CPU      0.65s WALL (   20971 calls)

     Called by h_psi:
     h_psi:calbec :     25.47s CPU     26.33s WALL (   26123 calls)
     vloc_psi     :    137.31s CPU    140.51s WALL (   26123 calls)
     add_vuspsi   :     24.60s CPU     24.80s WALL (   26123 calls)

     General routines
     calbec       :     33.89s CPU     35.00s WALL (   31611 calls)
     fft          :      0.80s CPU      0.88s WALL (     607 calls)
     ffts         :      0.17s CPU      0.17s WALL (      91 calls)
     fftw         :    138.33s CPU    141.59s WALL (  667610 calls)
     interpolate  :      0.20s CPU      0.21s WALL (      46 calls)

     Parallel routines

     PWSCF        :   6m 9.37s CPU   6m16.52s WALL


   This run was terminated on:  16: 5:26  23Jun2025            

=------------------------------------------------------------------------------=
   JOB DONE.
=------------------------------------------------------------------------------=
Note: The following floating-point exceptions are signalling: IEEE_INVALID_FLAG
