
     Program PWSCF v.7.2 starts on 23Jun2025 at 18: 3:36 

     This program is part of the open-source Quantum ESPRESSO suite
     for quantum simulation of materials; please cite
         "P. Giannozzi et al., J. Phys.:Condens. Matter 21 395502 (2009);
         "P. Giannozzi et al., J. Phys.:Condens. Matter 29 465901 (2017);
         "P. Giannozzi et al., J. Chem. Phys. 152 154105 (2020);
          URL http://www.quantum-espresso.org", 
     in publications or presentations arising from this work. More details at
     http://www.quantum-espresso.org/quote

     Parallel version (MPI), running on     8 processors

     MPI processes distributed on     1 nodes
     90594 MiB available memory on the printing compute node when the environment starts

     Reading input from /home/jvc/QEspresso7.2/ZnO_DataBase/scfs_rnd025.in/scf-6.67-1.78-1.in

     Current dimensions of program PWSCF are:
     Max number of different atomic species (ntypx) = 10
     Max number of k-points (npk) =  40000
     Max angular momentum in pseudopotentials (lmaxx) =  4
     file Zn.upf: wavefunction(s)  3D renormalized

     R & G space division:  proc/nbgrp/npool/nimage =       8
     Subspace diagonalization in iterative solution of the eigenvalue problem:
     a serial algorithm will be used


     Parallelization info
     --------------------
     sticks:   dense  smooth     PW     G-vecs:    dense   smooth      PW
     Min         154      75     23                 7728     2722     449
     Max         155      78     24                 7731     2729     454
     Sum        1237     613    187                61839    21797    3611

     Using Slab Decomposition



     bravais-lattice index     =            4
     lattice parameter (alat)  =       6.6731  a.u.
     unit-cell volume          =     456.9950 (a.u.)^3
     number of atoms/cell      =            4
     number of atomic types    =            2
     number of electrons       =        36.00
     number of Kohn-Sham states=           18
     kinetic-energy cutoff     =      50.0000  Ry
     charge density cutoff     =     400.0000  Ry
     scf convergence threshold =      1.0E-08
     mixing beta               =       0.3000
     number of iterations used =            8  plain     mixing
     Exchange-correlation= PBE
                           (   1   4   3   4   0   0   0)

     celldm(1)=   6.673127  celldm(2)=   0.000000  celldm(3)=   1.775794
     celldm(4)=   0.000000  celldm(5)=   0.000000  celldm(6)=   0.000000

     crystal axes: (cart. coord. in units of alat)
               a(1) = (   1.000000   0.000000   0.000000 )  
               a(2) = (  -0.500000   0.866025   0.000000 )  
               a(3) = (   0.000000   0.000000   1.775794 )  

     reciprocal axes: (cart. coord. in units 2 pi/alat)
               b(1) = (  1.000000  0.577350 -0.000000 )  
               b(2) = (  0.000000  1.154701  0.000000 )  
               b(3) = (  0.000000 -0.000000  0.563128 )  


     PseudoPot. # 1 for Zn read from file:
     ./pseudos/Zn.upf
     MD5 check sum: 7f56cabf9682ed8c977c2f7d0c5985c5
     Pseudo is Ultrasoft + core correction, Zval = 12.0
     Generated using &quot;atomic&quot; code by A. Dal Corso  v.6.2.2
     Using radial grid of 1201 points,  6 beta functions with: 
                l(1) =   0
                l(2) =   0
                l(3) =   1
                l(4) =   1
                l(5) =   2
                l(6) =   2
     Q(r) pseudized with 0 coefficients 


     PseudoPot. # 2 for O  read from file:
     ./pseudos/O.upf
     MD5 check sum: 91400c9766925bcf19f520983a725ff0
     Pseudo is Ultrasoft + core correction, Zval =  6.0
     Generated using &quot;atomic&quot; code by A. Dal Corso  v.6.3MaX
     Using radial grid of 1095 points,  4 beta functions with: 
                l(1) =   0
                l(2) =   0
                l(3) =   1
                l(4) =   1
     Q(r) pseudized with 0 coefficients 


     atomic species   valence    mass     pseudopotential
        Zn            12.00    63.38000     Zn( 1.00)
        O              6.00    15.99900     O ( 1.00)

     No symmetry found



   Cartesian axes

     site n.     atom                  positions (alat units)
         1           Zn  tau(   1) = (   0.7622942   0.1922520   0.6228917  )
         2           Zn  tau(   2) = (  -0.0716539   0.7080426   0.4328140  )
         3           O   tau(   3) = (   0.1584642   0.4545681   1.3352399  )
         4           O   tau(   4) = (  -0.0501584   0.5670952   0.4121302  )

     number of k points=   112

     Number of k-points >= 100: set verbosity='high' to print them.

     Dense  grid:    61839 G-vectors     FFT dimensions: (  45,  45,  75)

     Smooth grid:    21797 G-vectors     FFT dimensions: (  32,  32,  54)

     Estimated max dynamical RAM per process >      41.34 MB

     Estimated total dynamical RAM >     330.70 MB

     Check: negative core charge=   -0.000003

     Initial potential from superposition of free atoms

     starting charge      35.9925, renormalised to      36.0000
     Starting wfcs are   26 randomized atomic wfcs

     total cpu time spent up to now is        4.6 secs

     Self-consistent Calculation

     iteration #  1     ecut=    50.00 Ry     beta= 0.30
     Davidson diagonalization with overlap
     ethr =  1.00E-02,  avg # of iterations =  5.0

     total cpu time spent up to now is       14.5 secs

     total energy              =    -327.88587047 Ry
     estimated scf accuracy    <       3.20903524 Ry

     iteration #  2     ecut=    50.00 Ry     beta= 0.30
     Davidson diagonalization with overlap
     ethr =  8.91E-03,  avg # of iterations = 11.6

     total cpu time spent up to now is       23.4 secs

     total energy              =    -327.99075547 Ry
     estimated scf accuracy    <       5.17595018 Ry

     iteration #  3     ecut=    50.00 Ry     beta= 0.30
     Davidson diagonalization with overlap
     ethr =  8.91E-03,  avg # of iterations =  1.5

     total cpu time spent up to now is       28.8 secs

     total energy              =    -326.26874837 Ry
     estimated scf accuracy    <       3.24099325 Ry

     iteration #  4     ecut=    50.00 Ry     beta= 0.30
     Davidson diagonalization with overlap
     ethr =  8.91E-03,  avg # of iterations =  8.5

     total cpu time spent up to now is       40.3 secs

     total energy              =    -328.71354016 Ry
     estimated scf accuracy    <       6.21373585 Ry

     iteration #  5     ecut=    50.00 Ry     beta= 0.30
     Davidson diagonalization with overlap
     ethr =  8.91E-03,  avg # of iterations =  2.0

     total cpu time spent up to now is       46.6 secs

     total energy              =    -327.64741061 Ry
     estimated scf accuracy    <       3.08487817 Ry

     iteration #  6     ecut=    50.00 Ry     beta= 0.30
     Davidson diagonalization with overlap
     ethr =  8.57E-03,  avg # of iterations = 10.1

     total cpu time spent up to now is       56.2 secs

     total energy              =    -328.35079425 Ry
     estimated scf accuracy    <       2.34599583 Ry

     iteration #  7     ecut=    50.00 Ry     beta= 0.30
     Davidson diagonalization with overlap
     ethr =  6.52E-03,  avg # of iterations =  1.2

     total cpu time spent up to now is       61.8 secs

     total energy              =    -327.40994471 Ry
     estimated scf accuracy    <       1.85754725 Ry

     iteration #  8     ecut=    50.00 Ry     beta= 0.30
     Davidson diagonalization with overlap
     ethr =  5.16E-03,  avg # of iterations =  8.0

     total cpu time spent up to now is       71.9 secs

     total energy              =    -329.06648332 Ry
     estimated scf accuracy    <       3.10828996 Ry

     iteration #  9     ecut=    50.00 Ry     beta= 0.30
     Davidson diagonalization with overlap
     ethr =  5.16E-03,  avg # of iterations =  1.0

     total cpu time spent up to now is       77.5 secs

     total energy              =    -328.83351118 Ry
     estimated scf accuracy    <       2.71568626 Ry

     iteration # 10     ecut=    50.00 Ry     beta= 0.30
     Davidson diagonalization with overlap
     ethr =  5.16E-03,  avg # of iterations =  1.0

     total cpu time spent up to now is       83.0 secs

     total energy              =    -328.74537408 Ry
     estimated scf accuracy    <       2.22198234 Ry

     iteration # 11     ecut=    50.00 Ry     beta= 0.30
     Davidson diagonalization with overlap
     ethr =  5.16E-03,  avg # of iterations =  1.0

     total cpu time spent up to now is       88.7 secs

     total energy              =    -328.43143428 Ry
     estimated scf accuracy    <       2.01267305 Ry

     iteration # 12     ecut=    50.00 Ry     beta= 0.30
     Davidson diagonalization with overlap
     ethr =  5.16E-03,  avg # of iterations =  1.4

     total cpu time spent up to now is       94.4 secs

     total energy              =    -328.55548562 Ry
     estimated scf accuracy    <       1.29425337 Ry

     iteration # 13     ecut=    50.00 Ry     beta= 0.30
     Davidson diagonalization with overlap
     ethr =  3.60E-03,  avg # of iterations =  1.0

     total cpu time spent up to now is      100.0 secs

     total energy              =    -328.22911255 Ry
     estimated scf accuracy    <       1.43547031 Ry

     iteration # 14     ecut=    50.00 Ry     beta= 0.30
     Davidson diagonalization with overlap
     ethr =  3.60E-03,  avg # of iterations =  2.1

     total cpu time spent up to now is      106.2 secs

     total energy              =    -328.10479858 Ry
     estimated scf accuracy    <       0.75988561 Ry

     iteration # 15     ecut=    50.00 Ry     beta= 0.30
     Davidson diagonalization with overlap
     c_bands:  1 eigenvalues not converged
     ethr =  2.11E-03,  avg # of iterations = 11.3

     total cpu time spent up to now is      116.2 secs

     total energy              =    -328.79570353 Ry
     estimated scf accuracy    <       3.74091321 Ry

     iteration # 16     ecut=    50.00 Ry     beta= 0.30
     Davidson diagonalization with overlap
     ethr =  2.11E-03,  avg # of iterations =  1.3

     total cpu time spent up to now is      122.0 secs

     total energy              =    -329.52560312 Ry
     estimated scf accuracy    <       4.07998592 Ry

     iteration # 17     ecut=    50.00 Ry     beta= 0.30
     Davidson diagonalization with overlap
     c_bands:  1 eigenvalues not converged
     ethr =  2.11E-03,  avg # of iterations = 11.5

     total cpu time spent up to now is      131.8 secs

     total energy              =    -329.00154605 Ry
     estimated scf accuracy    <      17.57079052 Ry

     iteration # 18     ecut=    50.00 Ry     beta= 0.30
     Davidson diagonalization with overlap
     ethr =  2.11E-03,  avg # of iterations =  1.2

     total cpu time spent up to now is      137.5 secs

     total energy              =    -329.28439708 Ry
     estimated scf accuracy    <      15.81560964 Ry

     iteration # 19     ecut=    50.00 Ry     beta= 0.30
     Davidson diagonalization with overlap
     ethr =  2.11E-03,  avg # of iterations =  1.0

     total cpu time spent up to now is      143.2 secs

     total energy              =    -329.28713335 Ry
     estimated scf accuracy    <      16.16592701 Ry

     iteration # 20     ecut=    50.00 Ry     beta= 0.30
     Davidson diagonalization with overlap
     ethr =  2.11E-03,  avg # of iterations =  1.0

     total cpu time spent up to now is      148.8 secs

     total energy              =    -328.81974441 Ry
     estimated scf accuracy    <      15.99984122 Ry

     iteration # 21     ecut=    50.00 Ry     beta= 0.30
     Davidson diagonalization with overlap
     ethr =  2.11E-03,  avg # of iterations =  1.0

     total cpu time spent up to now is      154.3 secs

     total energy              =    -329.10677743 Ry
     estimated scf accuracy    <      15.26376189 Ry

     iteration # 22     ecut=    50.00 Ry     beta= 0.30
     Davidson diagonalization with overlap
     ethr =  2.11E-03,  avg # of iterations =  1.0

     total cpu time spent up to now is      159.8 secs

     total energy              =    -327.83744607 Ry
     estimated scf accuracy    <      15.54974391 Ry

     iteration # 23     ecut=    50.00 Ry     beta= 0.30
     Davidson diagonalization with overlap
     ethr =  2.11E-03,  avg # of iterations =  9.6

     total cpu time spent up to now is      169.3 secs

     total energy              =    -326.94592656 Ry
     estimated scf accuracy    <       1.74699608 Ry

     iteration # 24     ecut=    50.00 Ry     beta= 0.30
     Davidson diagonalization with overlap
     ethr =  2.11E-03,  avg # of iterations =  9.7

     total cpu time spent up to now is      182.2 secs

     total energy              =    -329.53919906 Ry
     estimated scf accuracy    <       7.76641765 Ry

     iteration # 25     ecut=    50.00 Ry     beta= 0.30
     Davidson diagonalization with overlap
     ethr =  2.11E-03,  avg # of iterations =  2.6

     total cpu time spent up to now is      189.1 secs

     total energy              =    -328.23818651 Ry
     estimated scf accuracy    <       4.78896600 Ry

     iteration # 26     ecut=    50.00 Ry     beta= 0.30
     Davidson diagonalization with overlap
     ethr =  2.11E-03,  avg # of iterations =  6.4

     total cpu time spent up to now is      197.4 secs

     total energy              =    -328.42116026 Ry
     estimated scf accuracy    <       1.22550564 Ry

     iteration # 27     ecut=    50.00 Ry     beta= 0.30
     Davidson diagonalization with overlap
     ethr =  2.11E-03,  avg # of iterations =  1.3

     total cpu time spent up to now is      203.0 secs

     total energy              =    -328.47432595 Ry
     estimated scf accuracy    <       1.02833866 Ry

     iteration # 28     ecut=    50.00 Ry     beta= 0.30
     Davidson diagonalization with overlap
     ethr =  2.11E-03,  avg # of iterations =  1.0

     total cpu time spent up to now is      208.4 secs

     total energy              =    -328.39671011 Ry
     estimated scf accuracy    <       1.11601187 Ry

     iteration # 29     ecut=    50.00 Ry     beta= 0.30
     Davidson diagonalization with overlap
     ethr =  2.11E-03,  avg # of iterations =  1.1

     total cpu time spent up to now is      213.9 secs

     total energy              =    -328.35555225 Ry
     estimated scf accuracy    <       0.89705015 Ry

     iteration # 30     ecut=    50.00 Ry     beta= 0.30
     Davidson diagonalization with overlap
     ethr =  2.11E-03,  avg # of iterations =  1.4

     total cpu time spent up to now is      219.6 secs

     total energy              =    -328.33233241 Ry
     estimated scf accuracy    <       0.71775885 Ry

     iteration # 31     ecut=    50.00 Ry     beta= 0.30
     Davidson diagonalization with overlap
     ethr =  1.99E-03,  avg # of iterations =  1.6

     total cpu time spent up to now is      225.4 secs

     total energy              =    -328.30791644 Ry
     estimated scf accuracy    <       0.55297269 Ry

     iteration # 32     ecut=    50.00 Ry     beta= 0.30
     Davidson diagonalization with overlap
     ethr =  1.54E-03,  avg # of iterations =  4.0

     total cpu time spent up to now is      232.0 secs

     total energy              =    -328.27010386 Ry
     estimated scf accuracy    <       0.11738782 Ry

     iteration # 33     ecut=    50.00 Ry     beta= 0.30
     Davidson diagonalization with overlap
     c_bands:  2 eigenvalues not converged
     c_bands:  1 eigenvalues not converged
     c_bands:  1 eigenvalues not converged
     c_bands:  1 eigenvalues not converged
     c_bands:  2 eigenvalues not converged
     c_bands:  1 eigenvalues not converged
     c_bands:  1 eigenvalues not converged
     c_bands:  1 eigenvalues not converged
     c_bands:  1 eigenvalues not converged
     c_bands:  2 eigenvalues not converged
     c_bands:  1 eigenvalues not converged
     c_bands:  1 eigenvalues not converged
     c_bands:  1 eigenvalues not converged
     c_bands:  1 eigenvalues not converged
     c_bands:  1 eigenvalues not converged
     c_bands:  1 eigenvalues not converged
     c_bands:  1 eigenvalues not converged
     c_bands:  1 eigenvalues not converged
     c_bands:  1 eigenvalues not converged
     ethr =  3.26E-04,  avg # of iterations = 16.1

     total cpu time spent up to now is      245.1 secs

     total energy              =    -328.54996616 Ry
     estimated scf accuracy    <      11.81224155 Ry

     iteration # 34     ecut=    50.00 Ry     beta= 0.30
     Davidson diagonalization with overlap
     c_bands:  1 eigenvalues not converged
     ethr =  3.26E-04,  avg # of iterations = 10.1

     total cpu time spent up to now is      254.4 secs

     total energy              =    -328.56813190 Ry
     estimated scf accuracy    <       5.42261900 Ry

     iteration # 35     ecut=    50.00 Ry     beta= 0.30
     Davidson diagonalization with overlap
     ethr =  3.26E-04,  avg # of iterations =  1.4

     total cpu time spent up to now is      260.1 secs

     total energy              =    -328.18603234 Ry
     estimated scf accuracy    <       5.22407465 Ry

     iteration # 36     ecut=    50.00 Ry     beta= 0.30
     Davidson diagonalization with overlap
     c_bands:  1 eigenvalues not converged
     c_bands:  1 eigenvalues not converged
     c_bands:  1 eigenvalues not converged
     ethr =  3.26E-04,  avg # of iterations = 10.3

     total cpu time spent up to now is      270.3 secs

     total energy              =    -328.40481565 Ry
     estimated scf accuracy    <       0.12693545 Ry

     iteration # 37     ecut=    50.00 Ry     beta= 0.30
     Davidson diagonalization with overlap
     ethr =  3.26E-04,  avg # of iterations =  1.0

     total cpu time spent up to now is      275.8 secs

     total energy              =    -328.41620308 Ry
     estimated scf accuracy    <       0.15743363 Ry

     iteration # 38     ecut=    50.00 Ry     beta= 0.30
     Davidson diagonalization with overlap
     ethr =  3.26E-04,  avg # of iterations =  1.4

     total cpu time spent up to now is      281.6 secs

     total energy              =    -328.42161597 Ry
     estimated scf accuracy    <       0.19628567 Ry

     iteration # 39     ecut=    50.00 Ry     beta= 0.30
     Davidson diagonalization with overlap
     ethr =  3.26E-04,  avg # of iterations =  1.3

     total cpu time spent up to now is      287.3 secs

     total energy              =    -328.41928130 Ry
     estimated scf accuracy    <       0.22383710 Ry

     iteration # 40     ecut=    50.00 Ry     beta= 0.30
     Davidson diagonalization with overlap
     ethr =  3.26E-04,  avg # of iterations =  1.5

     total cpu time spent up to now is      293.0 secs

     total energy              =    -328.42119550 Ry
     estimated scf accuracy    <       0.24632147 Ry

     iteration # 41     ecut=    50.00 Ry     beta= 0.30
     Davidson diagonalization with overlap
     ethr =  3.26E-04,  avg # of iterations =  1.2

     total cpu time spent up to now is      298.7 secs

     total energy              =    -328.44131028 Ry
     estimated scf accuracy    <       0.26397483 Ry

     iteration # 42     ecut=    50.00 Ry     beta= 0.30
     Davidson diagonalization with overlap
     ethr =  3.26E-04,  avg # of iterations =  5.9

     total cpu time spent up to now is      306.2 secs

     total energy              =    -328.44943171 Ry
     estimated scf accuracy    <       0.97883310 Ry

     iteration # 43     ecut=    50.00 Ry     beta= 0.30
     Davidson diagonalization with overlap
     ethr =  3.26E-04,  avg # of iterations =  1.4

     total cpu time spent up to now is      311.8 secs

     total energy              =    -328.34203055 Ry
     estimated scf accuracy    <       0.98815879 Ry

     iteration # 44     ecut=    50.00 Ry     beta= 0.30
     Davidson diagonalization with overlap
     c_bands:  1 eigenvalues not converged
     c_bands:  1 eigenvalues not converged
     ethr =  3.26E-04,  avg # of iterations =  6.0

     total cpu time spent up to now is      319.7 secs

     total energy              =    -328.36692534 Ry
     estimated scf accuracy    <       0.08115253 Ry

     iteration # 45     ecut=    50.00 Ry     beta= 0.30
     Davidson diagonalization with overlap
     ethr =  2.25E-04,  avg # of iterations =  6.4

     total cpu time spent up to now is      327.4 secs

     total energy              =    -328.39142348 Ry
     estimated scf accuracy    <       0.03270752 Ry

     iteration # 46     ecut=    50.00 Ry     beta= 0.30
     Davidson diagonalization with overlap
     ethr =  9.09E-05,  avg # of iterations =  3.9

     total cpu time spent up to now is      334.2 secs

     total energy              =    -328.39307703 Ry
     estimated scf accuracy    <       0.00313730 Ry

     iteration # 47     ecut=    50.00 Ry     beta= 0.30
     Davidson diagonalization with overlap
     c_bands:  2 eigenvalues not converged
     c_bands:  1 eigenvalues not converged
     c_bands:  1 eigenvalues not converged
     c_bands:  1 eigenvalues not converged
     c_bands:  1 eigenvalues not converged
     ethr =  8.71E-06,  avg # of iterations = 11.5

     total cpu time spent up to now is      345.0 secs

     total energy              =    -328.40248084 Ry
     estimated scf accuracy    <       0.05906192 Ry

     iteration # 48     ecut=    50.00 Ry     beta= 0.30
     Davidson diagonalization with overlap
     ethr =  8.71E-06,  avg # of iterations =  9.0

     total cpu time spent up to now is      353.9 secs

     total energy              =    -328.40636900 Ry
     estimated scf accuracy    <       0.00419100 Ry

     iteration # 49     ecut=    50.00 Ry     beta= 0.30
     Davidson diagonalization with overlap
     c_bands:  1 eigenvalues not converged
     c_bands:  1 eigenvalues not converged
     c_bands:  1 eigenvalues not converged
     c_bands:  1 eigenvalues not converged
     ethr =  8.71E-06,  avg # of iterations = 10.2

     total cpu time spent up to now is      363.6 secs

     total energy              =    -328.40652806 Ry
     estimated scf accuracy    <       0.13374424 Ry

     iteration # 50     ecut=    50.00 Ry     beta= 0.30
     Davidson diagonalization with overlap
     ethr =  8.71E-06,  avg # of iterations =  2.0

     total cpu time spent up to now is      369.5 secs

     total energy              =    -328.38513325 Ry
     estimated scf accuracy    <       0.12071805 Ry

     iteration # 51     ecut=    50.00 Ry     beta= 0.30
     Davidson diagonalization with overlap
     c_bands:  1 eigenvalues not converged
     c_bands:  1 eigenvalues not converged
     c_bands:  1 eigenvalues not converged
     c_bands:  1 eigenvalues not converged
     c_bands:  1 eigenvalues not converged
     c_bands:  1 eigenvalues not converged
     c_bands:  1 eigenvalues not converged
     c_bands:  1 eigenvalues not converged
     ethr =  8.71E-06,  avg # of iterations = 11.8

     total cpu time spent up to now is      380.4 secs

     total energy              =    -328.41284185 Ry
     estimated scf accuracy    <       0.21911574 Ry

     iteration # 52     ecut=    50.00 Ry     beta= 0.30
     Davidson diagonalization with overlap
     ethr =  8.71E-06,  avg # of iterations =  1.8

     total cpu time spent up to now is      386.3 secs

     total energy              =    -328.39773963 Ry
     estimated scf accuracy    <       0.20790724 Ry

     iteration # 53     ecut=    50.00 Ry     beta= 0.30
     Davidson diagonalization with overlap
     c_bands:  1 eigenvalues not converged
     c_bands:  1 eigenvalues not converged
     c_bands:  1 eigenvalues not converged
     c_bands:  1 eigenvalues not converged
     c_bands:  1 eigenvalues not converged
     c_bands:  1 eigenvalues not converged
     c_bands:  1 eigenvalues not converged
     c_bands:  1 eigenvalues not converged
     c_bands:  1 eigenvalues not converged
     c_bands:  1 eigenvalues not converged
     c_bands:  1 eigenvalues not converged
     ethr =  8.71E-06,  avg # of iterations = 11.4

     total cpu time spent up to now is      396.9 secs

     total energy              =    -328.40561704 Ry
     estimated scf accuracy    <       0.00923291 Ry

     iteration # 54     ecut=    50.00 Ry     beta= 0.30
     Davidson diagonalization with overlap
     ethr =  8.71E-06,  avg # of iterations =  1.7

     total cpu time spent up to now is      402.6 secs

     total energy              =    -328.40547327 Ry
     estimated scf accuracy    <       0.00812879 Ry

     iteration # 55     ecut=    50.00 Ry     beta= 0.30
     Davidson diagonalization with overlap
     ethr =  8.71E-06,  avg # of iterations =  1.1

     total cpu time spent up to now is      408.1 secs

     total energy              =    -328.40491700 Ry
     estimated scf accuracy    <       0.00756554 Ry

     iteration # 56     ecut=    50.00 Ry     beta= 0.30
     Davidson diagonalization with overlap
     ethr =  8.71E-06,  avg # of iterations =  1.8

     total cpu time spent up to now is      413.8 secs

     total energy              =    -328.40473982 Ry
     estimated scf accuracy    <       0.00503465 Ry

     iteration # 57     ecut=    50.00 Ry     beta= 0.30
     Davidson diagonalization with overlap
     ethr =  8.71E-06,  avg # of iterations =  2.3

     total cpu time spent up to now is      419.9 secs

     total energy              =    -328.40505480 Ry
     estimated scf accuracy    <       0.00125271 Ry

     iteration # 58     ecut=    50.00 Ry     beta= 0.30
     Davidson diagonalization with overlap
     ethr =  3.48E-06,  avg # of iterations =  6.5

     total cpu time spent up to now is      427.5 secs

     total energy              =    -328.40613478 Ry
     estimated scf accuracy    <       0.00335386 Ry

     iteration # 59     ecut=    50.00 Ry     beta= 0.30
     Davidson diagonalization with overlap
     c_bands:  1 eigenvalues not converged
     ethr =  3.48E-06,  avg # of iterations =  4.4

     total cpu time spent up to now is      434.3 secs

     total energy              =    -328.40593708 Ry
     estimated scf accuracy    <       0.00952098 Ry

     iteration # 60     ecut=    50.00 Ry     beta= 0.30
     Davidson diagonalization with overlap
     ethr =  3.48E-06,  avg # of iterations =  1.1

     total cpu time spent up to now is      439.8 secs

     total energy              =    -328.40467974 Ry
     estimated scf accuracy    <       0.00884402 Ry

     iteration # 61     ecut=    50.00 Ry     beta= 0.30
     Davidson diagonalization with overlap
     ethr =  3.48E-06,  avg # of iterations =  9.0

     total cpu time spent up to now is      448.9 secs

     total energy              =    -328.40592024 Ry
     estimated scf accuracy    <       0.00329841 Ry

     iteration # 62     ecut=    50.00 Ry     beta= 0.30
     Davidson diagonalization with overlap
     ethr =  3.48E-06,  avg # of iterations =  1.2

     total cpu time spent up to now is      454.4 secs

     total energy              =    -328.40576009 Ry
     estimated scf accuracy    <       0.00363293 Ry

     iteration # 63     ecut=    50.00 Ry     beta= 0.30
     Davidson diagonalization with overlap
     ethr =  3.48E-06,  avg # of iterations =  1.0

     total cpu time spent up to now is      459.9 secs

     total energy              =    -328.40568065 Ry
     estimated scf accuracy    <       0.00339446 Ry

     iteration # 64     ecut=    50.00 Ry     beta= 0.30
     Davidson diagonalization with overlap
     ethr =  3.48E-06,  avg # of iterations =  1.0

     total cpu time spent up to now is      465.3 secs

     total energy              =    -328.40566627 Ry
     estimated scf accuracy    <       0.00306257 Ry

     iteration # 65     ecut=    50.00 Ry     beta= 0.30
     Davidson diagonalization with overlap
     ethr =  3.48E-06,  avg # of iterations =  1.0

     total cpu time spent up to now is      470.7 secs

     total energy              =    -328.40568151 Ry
     estimated scf accuracy    <       0.00296054 Ry

     iteration # 66     ecut=    50.00 Ry     beta= 0.30
     Davidson diagonalization with overlap
     ethr =  3.48E-06,  avg # of iterations =  1.0

     total cpu time spent up to now is      476.2 secs

     total energy              =    -328.40550227 Ry
     estimated scf accuracy    <       0.00288653 Ry

     iteration # 67     ecut=    50.00 Ry     beta= 0.30
     Davidson diagonalization with overlap
     ethr =  3.48E-06,  avg # of iterations =  1.6

     total cpu time spent up to now is      481.9 secs

     total energy              =    -328.40540726 Ry
     estimated scf accuracy    <       0.00219090 Ry

     iteration # 68     ecut=    50.00 Ry     beta= 0.30
     Davidson diagonalization with overlap
     ethr =  3.48E-06,  avg # of iterations =  2.4

     total cpu time spent up to now is      488.0 secs

     total energy              =    -328.40536982 Ry
     estimated scf accuracy    <       0.00105025 Ry

     iteration # 69     ecut=    50.00 Ry     beta= 0.30
     Davidson diagonalization with overlap
     ethr =  2.92E-06,  avg # of iterations =  5.3

     total cpu time spent up to now is      495.2 secs

     total energy              =    -328.40563602 Ry
     estimated scf accuracy    <       0.00042295 Ry

     iteration # 70     ecut=    50.00 Ry     beta= 0.30
     Davidson diagonalization with overlap
     ethr =  1.17E-06,  avg # of iterations =  6.1

     total cpu time spent up to now is      502.6 secs

     total energy              =    -328.40574416 Ry
     estimated scf accuracy    <       0.00289118 Ry

     iteration # 71     ecut=    50.00 Ry     beta= 0.30
     Davidson diagonalization with overlap
     ethr =  1.17E-06,  avg # of iterations =  1.1

     total cpu time spent up to now is      508.1 secs

     total energy              =    -328.40562329 Ry
     estimated scf accuracy    <       0.00281540 Ry

     iteration # 72     ecut=    50.00 Ry     beta= 0.30
     Davidson diagonalization with overlap
     ethr =  1.17E-06,  avg # of iterations =  1.4

     total cpu time spent up to now is      513.8 secs

     total energy              =    -328.40551467 Ry
     estimated scf accuracy    <       0.00243528 Ry

     iteration # 73     ecut=    50.00 Ry     beta= 0.30
     Davidson diagonalization with overlap
     ethr =  1.17E-06,  avg # of iterations =  2.8

     total cpu time spent up to now is      519.9 secs

     total energy              =    -328.40554989 Ry
     estimated scf accuracy    <       0.00150321 Ry

     iteration # 74     ecut=    50.00 Ry     beta= 0.30
     Davidson diagonalization with overlap
     ethr =  1.17E-06,  avg # of iterations =  2.0

     total cpu time spent up to now is      525.8 secs

     total energy              =    -328.40561861 Ry
     estimated scf accuracy    <       0.00118564 Ry

     iteration # 75     ecut=    50.00 Ry     beta= 0.30
     Davidson diagonalization with overlap
     ethr =  1.17E-06,  avg # of iterations =  1.0

     total cpu time spent up to now is      531.1 secs

     total energy              =    -328.40557429 Ry
     estimated scf accuracy    <       0.00126885 Ry

     iteration # 76     ecut=    50.00 Ry     beta= 0.30
     Davidson diagonalization with overlap
     ethr =  1.17E-06,  avg # of iterations =  1.3

     total cpu time spent up to now is      536.7 secs

     total energy              =    -328.40555701 Ry
     estimated scf accuracy    <       0.00109875 Ry

     iteration # 77     ecut=    50.00 Ry     beta= 0.30
     Davidson diagonalization with overlap
     ethr =  1.17E-06,  avg # of iterations =  1.5

     total cpu time spent up to now is      542.3 secs

     total energy              =    -328.40583501 Ry
     estimated scf accuracy    <       0.00088955 Ry

     iteration # 78     ecut=    50.00 Ry     beta= 0.30
     Davidson diagonalization with overlap
     ethr =  1.17E-06,  avg # of iterations =  5.2

     total cpu time spent up to now is      549.4 secs

     total energy              =    -328.40583268 Ry
     estimated scf accuracy    <       0.00495410 Ry

     iteration # 79     ecut=    50.00 Ry     beta= 0.30
     Davidson diagonalization with overlap
     ethr =  1.17E-06,  avg # of iterations =  1.1

     total cpu time spent up to now is      554.8 secs

     total energy              =    -328.40583583 Ry
     estimated scf accuracy    <       0.00484527 Ry

     iteration # 80     ecut=    50.00 Ry     beta= 0.30
     Davidson diagonalization with overlap
     ethr =  1.17E-06,  avg # of iterations =  1.0

     total cpu time spent up to now is      560.1 secs

     total energy              =    -328.40554496 Ry
     estimated scf accuracy    <       0.00492717 Ry

     iteration # 81     ecut=    50.00 Ry     beta= 0.30
     Davidson diagonalization with overlap
     ethr =  1.17E-06,  avg # of iterations =  3.5

     total cpu time spent up to now is      566.4 secs

     total energy              =    -328.40547345 Ry
     estimated scf accuracy    <       0.00224119 Ry

     iteration # 82     ecut=    50.00 Ry     beta= 0.30
     Davidson diagonalization with overlap
     ethr =  1.17E-06,  avg # of iterations =  5.5

     total cpu time spent up to now is      573.6 secs

     total energy              =    -328.40551395 Ry
     estimated scf accuracy    <       0.00023453 Ry

     iteration # 83     ecut=    50.00 Ry     beta= 0.30
     Davidson diagonalization with overlap
     ethr =  6.51E-07,  avg # of iterations =  9.6

     total cpu time spent up to now is      582.8 secs

     total energy              =    -328.40573398 Ry
     estimated scf accuracy    <       0.00333167 Ry

     iteration # 84     ecut=    50.00 Ry     beta= 0.30
     Davidson diagonalization with overlap
     ethr =  6.51E-07,  avg # of iterations =  1.0

     total cpu time spent up to now is      588.2 secs

     total energy              =    -328.40580439 Ry
     estimated scf accuracy    <       0.00322106 Ry

     iteration # 85     ecut=    50.00 Ry     beta= 0.30
     Davidson diagonalization with overlap
     ethr =  6.51E-07,  avg # of iterations =  1.0

     total cpu time spent up to now is      593.7 secs

     total energy              =    -328.40577364 Ry
     estimated scf accuracy    <       0.00333747 Ry

     iteration # 86     ecut=    50.00 Ry     beta= 0.30
     Davidson diagonalization with overlap
     ethr =  6.51E-07,  avg # of iterations =  1.0

     total cpu time spent up to now is      599.3 secs

     total energy              =    -328.40585204 Ry
     estimated scf accuracy    <       0.00329502 Ry

     iteration # 87     ecut=    50.00 Ry     beta= 0.30
     Davidson diagonalization with overlap
     ethr =  6.51E-07,  avg # of iterations =  1.0

     total cpu time spent up to now is      604.7 secs

     total energy              =    -328.40590940 Ry
     estimated scf accuracy    <       0.00344179 Ry

     iteration # 88     ecut=    50.00 Ry     beta= 0.30
     Davidson diagonalization with overlap
     ethr =  6.51E-07,  avg # of iterations =  2.0

     total cpu time spent up to now is      610.8 secs

     total energy              =    -328.40592214 Ry
     estimated scf accuracy    <       0.00395657 Ry

     iteration # 89     ecut=    50.00 Ry     beta= 0.30
     Davidson diagonalization with overlap
     ethr =  6.51E-07,  avg # of iterations =  1.2

     total cpu time spent up to now is      616.4 secs

     total energy              =    -328.40562976 Ry
     estimated scf accuracy    <       0.00408345 Ry

     iteration # 90     ecut=    50.00 Ry     beta= 0.30
     Davidson diagonalization with overlap
     ethr =  6.51E-07,  avg # of iterations =  2.1

     total cpu time spent up to now is      622.5 secs

     total energy              =    -328.40540925 Ry
     estimated scf accuracy    <       0.00331417 Ry

     iteration # 91     ecut=    50.00 Ry     beta= 0.30
     Davidson diagonalization with overlap
     ethr =  6.51E-07,  avg # of iterations =  9.4

     total cpu time spent up to now is      632.0 secs

     total energy              =    -328.40564711 Ry
     estimated scf accuracy    <       0.00004234 Ry

     iteration # 92     ecut=    50.00 Ry     beta= 0.30
     Davidson diagonalization with overlap
     c_bands:  1 eigenvalues not converged
     c_bands:  1 eigenvalues not converged
     ethr =  1.18E-07,  avg # of iterations = 10.5

     total cpu time spent up to now is      642.1 secs

     total energy              =    -328.40560616 Ry
     estimated scf accuracy    <       0.00214970 Ry

     iteration # 93     ecut=    50.00 Ry     beta= 0.30
     Davidson diagonalization with overlap
     ethr =  1.18E-07,  avg # of iterations =  9.2

     total cpu time spent up to now is      651.5 secs

     total energy              =    -328.40561650 Ry
     estimated scf accuracy    <       0.00038705 Ry

     iteration # 94     ecut=    50.00 Ry     beta= 0.30
     Davidson diagonalization with overlap
     ethr =  1.18E-07,  avg # of iterations =  1.8

     total cpu time spent up to now is      657.4 secs

     total energy              =    -328.40559429 Ry
     estimated scf accuracy    <       0.00033032 Ry

     iteration # 95     ecut=    50.00 Ry     beta= 0.30
     Davidson diagonalization with overlap
     ethr =  1.18E-07,  avg # of iterations =  9.1

     total cpu time spent up to now is      666.5 secs

     total energy              =    -328.40563215 Ry
     estimated scf accuracy    <       0.00006629 Ry

     iteration # 96     ecut=    50.00 Ry     beta= 0.30
     Davidson diagonalization with overlap
     ethr =  1.18E-07,  avg # of iterations =  1.6

     total cpu time spent up to now is      672.4 secs

     total energy              =    -328.40564081 Ry
     estimated scf accuracy    <       0.00008142 Ry

     iteration # 97     ecut=    50.00 Ry     beta= 0.30
     Davidson diagonalization with overlap
     ethr =  1.18E-07,  avg # of iterations =  4.3

     total cpu time spent up to now is      679.3 secs

     total energy              =    -328.40565211 Ry
     estimated scf accuracy    <       0.00020744 Ry

     iteration # 98     ecut=    50.00 Ry     beta= 0.30
     Davidson diagonalization with overlap
     ethr =  1.18E-07,  avg # of iterations =  3.9

     total cpu time spent up to now is      686.0 secs

     total energy              =    -328.40564687 Ry
     estimated scf accuracy    <       0.00040132 Ry

     iteration # 99     ecut=    50.00 Ry     beta= 0.30
     Davidson diagonalization with overlap
     ethr =  1.18E-07,  avg # of iterations =  1.1

     total cpu time spent up to now is      691.5 secs

     total energy              =    -328.40562513 Ry
     estimated scf accuracy    <       0.00038888 Ry

     iteration #100     ecut=    50.00 Ry     beta= 0.30
     Davidson diagonalization with overlap
     ethr =  1.18E-07,  avg # of iterations =  2.9

     total cpu time spent up to now is      697.6 secs

     total energy              =    -328.40560824 Ry
     estimated scf accuracy    <       0.00022739 Ry

     End of self-consistent calculation

     convergence NOT achieved after 100 iterations: stopping

     Writing config to output data dir ./ZnO_ANN.save/

     init_run     :      4.00s CPU      4.11s WALL (       1 calls)
     electrons    :    682.07s CPU    693.03s WALL (       1 calls)

     Called by init_run:
     wfcinit      :      3.10s CPU      3.17s WALL (       1 calls)
     potinit      :      0.34s CPU      0.34s WALL (       1 calls)
     hinit0       :      0.45s CPU      0.47s WALL (       1 calls)

     Called by electrons:
     c_bands      :    585.37s CPU    594.49s WALL (     100 calls)
     sum_band     :     85.95s CPU     87.54s WALL (     100 calls)
     v_of_rho     :      2.18s CPU      2.33s WALL (     101 calls)
     newd         :      8.05s CPU      8.10s WALL (     101 calls)
     mix_rho      :      0.39s CPU      0.43s WALL (     100 calls)

     Called by c_bands:
     init_us_2    :      6.89s CPU      7.00s WALL (   22512 calls)
     init_us_2:cp :      6.81s CPU      6.93s WALL (   22512 calls)
     cegterg      :    562.27s CPU    571.13s WALL (   11200 calls)

     Called by *egterg:
     cdiaghg      :     57.20s CPU     57.72s WALL (   55768 calls)
     h_psi        :    326.77s CPU    333.16s WALL (   55880 calls)
     s_psi        :     45.63s CPU     45.95s WALL (   55880 calls)
     g_psi        :      1.15s CPU      1.16s WALL (   44568 calls)

     Called by h_psi:
     h_psi:calbec :     51.76s CPU     52.93s WALL (   55880 calls)
     vloc_psi     :    228.03s CPU    232.99s WALL (   55880 calls)
     add_vuspsi   :     45.77s CPU     46.05s WALL (   55880 calls)

     General routines
     calbec       :     72.77s CPU     74.36s WALL (   67080 calls)
     fft          :      1.96s CPU      2.17s WALL (    1313 calls)
     ffts         :      0.20s CPU      0.21s WALL (     201 calls)
     fftw         :    235.77s CPU    240.88s WALL ( 1167458 calls)
     interpolate  :      0.28s CPU      0.30s WALL (     101 calls)
     davcio       :      0.00s CPU      0.01s WALL (     130 calls)

     Parallel routines

     PWSCF        :  11m26.55s CPU  11m37.66s WALL


   This run was terminated on:  18:15:14  23Jun2025            

=------------------------------------------------------------------------------=
   JOB DONE.
=------------------------------------------------------------------------------=
STOP 2
STOP 2
STOP 2
STOP 2
STOP 2
STOP 2
STOP 2
STOP 2
--------------------------------------------------------------------------
Primary job  terminated normally, but 1 process returned
a non-zero exit code. Per user-direction, the job has been aborted.
--------------------------------------------------------------------------
--------------------------------------------------------------------------
mpirun detected that one or more processes exited with non-zero status, thus causing
the job to be terminated. The first process to do so was:

  Process name: [[30468,1],2]
  Exit code:    2
--------------------------------------------------------------------------
