
     Program PWSCF v.7.0 starts on  1Sep2025 at 22:34:28 

     This program is part of the open-source Quantum ESPRESSO suite
     for quantum simulation of materials; please cite
         "P. Giannozzi et al., J. Phys.:Condens. Matter 21 395502 (2009);
         "P. Giannozzi et al., J. Phys.:Condens. Matter 29 465901 (2017);
         "P. Giannozzi et al., J. Chem. Phys. 152 154105 (2020);
          URL http://www.quantum-espresso.org", 
     in publications or presentations arising from this work. More details at
     http://www.quantum-espresso.org/quote

     Parallel version (MPI & OpenMP), running on      64 processor cores
     Number of MPI processes:                64
     Threads/MPI process:                     1

     MPI processes distributed on     1 nodes
     K-points division:     npool     =      16
     R & G space division:  proc/nbgrp/npool/nimage =       4
     107683 MiB available memory on the printing compute node when the environment starts

     Reading input from /home/jvc/QEspresso7.2/ZnO_database/scripts/cell321.in/ZnO-2.94-1.55-321.in
Warning: card &CELL ignored
Warning: card / ignored
Warning: card &FCP ignored
Warning: card / ignored
Warning: card &RISM ignored
Warning: card / ignored

     Current dimensions of program PWSCF are:
     Max number of different atomic species (ntypx) = 10
     Max number of k-points (npk) =  40000
     Max angular momentum in pseudopotentials (lmaxx) =  4
     file Zn.upf: wavefunction(s)  3D renormalized
     Found identity + ( -0.0000 -0.5000  0.0000) symmetry
     This is a supercell, fractional translations are disabled

     Subspace diagonalization in iterative solution of the eigenvalue problem:
     one sub-group per band group will be used
     scalapack distributed-memory algorithm (size of sub-group:  2*  2 procs)


     Parallelization info
     --------------------
     sticks:   dense  smooth     PW     G-vecs:    dense   smooth      PW
     Min        1278     640    187                46793    16532    2641
     Max        1279     642    188                46794    16533    2642
     Sum        5113    2563    751               187175    66129   10567

     Using Slab Decomposition



     bravais-lattice index     =            0
     lattice parameter (alat)  =      16.6829  a.u.
     unit-cell volume          =    1384.8553 (a.u.)^3
     number of atoms/cell      =           24
     number of atomic types    =            2
     number of electrons       =       216.00
     number of Kohn-Sham states=          108
     kinetic-energy cutoff     =      50.0000  Ry
     charge density cutoff     =     400.0000  Ry
     scf convergence threshold =      1.0E-08
     mixing beta               =       0.3000
     number of iterations used =            8  plain     mixing
     Exchange-correlation= PBE
                           (   1   4   3   4   0   0   0)

     celldm(1)=  16.682906  celldm(2)=   0.000000  celldm(3)=   0.000000
     celldm(4)=   0.000000  celldm(5)=   0.000000  celldm(6)=   0.000000

     crystal axes: (cart. coord. in units of alat)
               a(1) = (   1.000000   0.000000   0.000000 )  
               a(2) = (  -0.333333   0.577350   0.000000 )  
               a(3) = (   0.000000   0.000000   0.516595 )  

     reciprocal axes: (cart. coord. in units 2 pi/alat)
               b(1) = (  1.000000  0.577350 -0.000000 )  
               b(2) = (  0.000000  1.732051  0.000000 )  
               b(3) = (  0.000000 -0.000000  1.935754 )  


     PseudoPot. # 1 for Zn read from file:
     /home/jvc/QEspresso7.2/ZnO_database/pseudos/Zn.upf
     MD5 check sum: 7f56cabf9682ed8c977c2f7d0c5985c5
     Pseudo is Ultrasoft + core correction, Zval = 12.0
     Generated using &quot;atomic&quot; code by A. Dal Corso  v.6.2.2
     Using radial grid of 1201 points,  6 beta functions with: 
                l(1) =   0
                l(2) =   0
                l(3) =   1
                l(4) =   1
                l(5) =   2
                l(6) =   2
     Q(r) pseudized with 0 coefficients 


     PseudoPot. # 2 for O  read from file:
     /home/jvc/QEspresso7.2/ZnO_database/pseudos/O.upf
     MD5 check sum: 91400c9766925bcf19f520983a725ff0
     Pseudo is Ultrasoft + core correction, Zval =  6.0
     Generated using &quot;atomic&quot; code by A. Dal Corso  v.6.3MaX
     Using radial grid of 1095 points,  4 beta functions with: 
                l(1) =   0
                l(2) =   0
                l(3) =   1
                l(4) =   1
     Q(r) pseudized with 0 coefficients 


     atomic species   valence    mass     pseudopotential
        Zn            12.00    65.38000     Zn( 1.00)
        O              6.00    15.99900     O ( 1.00)

     No symmetry found


                                    s                        frac. trans.

      isym =  1     identity                                     

 cryst.   s( 1) = (     1          0          0      )
                  (     0          1          0      )
                  (     0          0          1      )

 cart.    s( 1) = (  1.0000000  0.0000000  0.0000000 )
                  (  0.0000000  1.0000000  0.0000000 )
                  (  0.0000000  0.0000000  1.0000000 )


   Cartesian axes

     site n.     atom                  positions (alat units)
         1           Zn  tau(   1) = (   0.1666667   0.0962250   0.2586246  )
         2           Zn  tau(   2) = (   0.0000000   0.1924501   0.0003273  )
         3           O   tau(   3) = (   0.1666667   0.0962250   0.4544362  )
         4           O   tau(   4) = (   0.0000000   0.1924501   0.1961388  )
         5           Zn  tau(   5) = (   0.0000000   0.3849002   0.2586246  )
         6           Zn  tau(   6) = (  -0.1666667   0.4811252   0.0003273  )
         7           O   tau(   7) = (   0.0000000   0.3849002   0.4544362  )
         8           O   tau(   8) = (  -0.1666667   0.4811252   0.1961388  )
         9           Zn  tau(   9) = (   0.5000000   0.0962250   0.2586246  )
        10           Zn  tau(  10) = (   0.3333333   0.1924501   0.0003273  )
        11           O   tau(  11) = (   0.5000000   0.0962250   0.4544362  )
        12           O   tau(  12) = (   0.3333333   0.1924501   0.1961388  )
        13           Zn  tau(  13) = (   0.3333333   0.3849002   0.2586246  )
        14           Zn  tau(  14) = (   0.1666667   0.4811252   0.0003273  )
        15           O   tau(  15) = (   0.3333333   0.3849002   0.4544362  )
        16           O   tau(  16) = (   0.1666667   0.4811252   0.1961388  )
        17           Zn  tau(  17) = (   0.8333333   0.0962250   0.2586246  )
        18           Zn  tau(  18) = (   0.6666667   0.1924501   0.0003273  )
        19           O   tau(  19) = (   0.8333333   0.0962250   0.4544362  )
        20           O   tau(  20) = (   0.6666667   0.1924501   0.1961388  )
        21           Zn  tau(  21) = (   0.6666667   0.3849002   0.2586246  )
        22           Zn  tau(  22) = (   0.5000000   0.4811252   0.0003273  )
        23           O   tau(  23) = (   0.6666667   0.3849002   0.4544362  )
        24           O   tau(  24) = (   0.5000000   0.4811252   0.1961388  )

   Crystallographic axes

     site n.     atom                  positions (cryst. coord.)
         1           Zn  tau(   1) = (  0.2222222  0.1666667  0.5006336  )
         2           Zn  tau(   2) = (  0.1111111  0.3333333  0.0006336  )
         3           O   tau(   3) = (  0.2222222  0.1666667  0.8796764  )
         4           O   tau(   4) = (  0.1111111  0.3333333  0.3796764  )
         5           Zn  tau(   5) = (  0.2222222  0.6666667  0.5006336  )
         6           Zn  tau(   6) = (  0.1111111  0.8333333  0.0006336  )
         7           O   tau(   7) = (  0.2222222  0.6666667  0.8796764  )
         8           O   tau(   8) = (  0.1111111  0.8333333  0.3796764  )
         9           Zn  tau(   9) = (  0.5555556  0.1666667  0.5006336  )
        10           Zn  tau(  10) = (  0.4444444  0.3333333  0.0006336  )
        11           O   tau(  11) = (  0.5555556  0.1666667  0.8796764  )
        12           O   tau(  12) = (  0.4444444  0.3333333  0.3796764  )
        13           Zn  tau(  13) = (  0.5555556  0.6666667  0.5006336  )
        14           Zn  tau(  14) = (  0.4444444  0.8333333  0.0006336  )
        15           O   tau(  15) = (  0.5555556  0.6666667  0.8796764  )
        16           O   tau(  16) = (  0.4444444  0.8333333  0.3796764  )
        17           Zn  tau(  17) = (  0.8888889  0.1666667  0.5006336  )
        18           Zn  tau(  18) = (  0.7777778  0.3333333  0.0006336  )
        19           O   tau(  19) = (  0.8888889  0.1666667  0.8796764  )
        20           O   tau(  20) = (  0.7777778  0.3333333  0.3796764  )
        21           Zn  tau(  21) = (  0.8888889  0.6666667  0.5006336  )
        22           Zn  tau(  22) = (  0.7777778  0.8333333  0.0006336  )
        23           O   tau(  23) = (  0.8888889  0.6666667  0.8796764  )
        24           O   tau(  24) = (  0.7777778  0.8333333  0.3796764  )

     number of k points=   112
                       cart. coord. in units 2pi/alat
        k(    1) = (   0.0000000   0.0000000   0.0000000), wk =   0.0092593
        k(    2) = (   0.0000000   0.0000000   0.3226256), wk =   0.0185185
        k(    3) = (   0.0000000   0.0000000   0.6452512), wk =   0.0185185
        k(    4) = (   0.0000000   0.0000000  -0.9678768), wk =   0.0092593
        k(    5) = (   0.0000000   0.2886751   0.0000000), wk =   0.0185185
        k(    6) = (   0.0000000   0.2886751   0.3226256), wk =   0.0185185
        k(    7) = (   0.0000000   0.2886751   0.6452512), wk =   0.0185185
        k(    8) = (   0.0000000   0.2886751  -0.9678768), wk =   0.0185185
        k(    9) = (   0.0000000   0.5773503   0.0000000), wk =   0.0185185
        k(   10) = (   0.0000000   0.5773503   0.3226256), wk =   0.0185185
        k(   11) = (   0.0000000   0.5773503   0.6452512), wk =   0.0185185
        k(   12) = (   0.0000000   0.5773503  -0.9678768), wk =   0.0185185
        k(   13) = (   0.0000000  -0.8660254   0.0000000), wk =   0.0092593
        k(   14) = (   0.0000000  -0.8660254   0.3226256), wk =   0.0185185
        k(   15) = (   0.0000000  -0.8660254   0.6452512), wk =   0.0185185
        k(   16) = (   0.0000000  -0.8660254  -0.9678768), wk =   0.0092593
        k(   17) = (   0.1666667   0.0962250   0.0000000), wk =   0.0185185
        k(   18) = (   0.1666667   0.0962250   0.3226256), wk =   0.0185185
        k(   19) = (   0.1666667   0.0962250   0.6452512), wk =   0.0185185
        k(   20) = (   0.1666667   0.0962250  -0.9678768), wk =   0.0185185
        k(   21) = (   0.1666667   0.3849002   0.0000000), wk =   0.0185185
        k(   22) = (   0.1666667   0.3849002   0.3226256), wk =   0.0185185
        k(   23) = (   0.1666667   0.3849002   0.6452512), wk =   0.0185185
        k(   24) = (   0.1666667   0.3849002  -0.9678768), wk =   0.0185185
        k(   25) = (   0.1666667   0.6735753   0.0000000), wk =   0.0185185
        k(   26) = (   0.1666667   0.6735753   0.3226256), wk =   0.0185185
        k(   27) = (   0.1666667   0.6735753   0.6452512), wk =   0.0185185
        k(   28) = (   0.1666667   0.6735753  -0.9678768), wk =   0.0185185
        k(   29) = (   0.1666667  -0.7698004   0.0000000), wk =   0.0185185
        k(   30) = (   0.1666667  -0.7698004   0.3226256), wk =   0.0185185
        k(   31) = (   0.1666667  -0.7698004   0.6452512), wk =   0.0185185
        k(   32) = (   0.1666667  -0.7698004  -0.9678768), wk =   0.0185185
        k(   33) = (   0.1666667  -0.4811252   0.0000000), wk =   0.0185185
        k(   34) = (   0.1666667  -0.4811252   0.3226256), wk =   0.0185185
        k(   35) = (   0.1666667  -0.4811252   0.6452512), wk =   0.0185185
        k(   36) = (   0.1666667  -0.4811252  -0.9678768), wk =   0.0185185
        k(   37) = (   0.1666667  -0.1924501   0.0000000), wk =   0.0185185
        k(   38) = (   0.1666667  -0.1924501   0.3226256), wk =   0.0185185
        k(   39) = (   0.1666667  -0.1924501   0.6452512), wk =   0.0185185
        k(   40) = (   0.1666667  -0.1924501  -0.9678768), wk =   0.0185185
        k(   41) = (   0.3333333   0.1924501   0.0000000), wk =   0.0185185
        k(   42) = (   0.3333333   0.1924501   0.3226256), wk =   0.0185185
        k(   43) = (   0.3333333   0.1924501   0.6452512), wk =   0.0185185
        k(   44) = (   0.3333333   0.1924501  -0.9678768), wk =   0.0185185
        k(   45) = (   0.3333333   0.4811252   0.0000000), wk =   0.0185185
        k(   46) = (   0.3333333   0.4811252   0.3226256), wk =   0.0185185
        k(   47) = (   0.3333333   0.4811252   0.6452512), wk =   0.0185185
        k(   48) = (   0.3333333   0.4811252  -0.9678768), wk =   0.0185185
        k(   49) = (   0.3333333   0.7698004   0.0000000), wk =   0.0185185
        k(   50) = (   0.3333333   0.7698004   0.3226256), wk =   0.0185185
        k(   51) = (   0.3333333   0.7698004   0.6452512), wk =   0.0185185
        k(   52) = (   0.3333333   0.7698004  -0.9678768), wk =   0.0185185
        k(   53) = (   0.3333333  -0.6735753   0.0000000), wk =   0.0185185
        k(   54) = (   0.3333333  -0.6735753   0.3226256), wk =   0.0185185
        k(   55) = (   0.3333333  -0.6735753   0.6452512), wk =   0.0185185
        k(   56) = (   0.3333333  -0.6735753  -0.9678768), wk =   0.0185185
        k(   57) = (   0.3333333  -0.3849002   0.0000000), wk =   0.0185185
        k(   58) = (   0.3333333  -0.3849002   0.3226256), wk =   0.0185185
        k(   59) = (   0.3333333  -0.3849002   0.6452512), wk =   0.0185185
        k(   60) = (   0.3333333  -0.3849002  -0.9678768), wk =   0.0185185
        k(   61) = (   0.3333333  -0.0962250   0.0000000), wk =   0.0185185
        k(   62) = (   0.3333333  -0.0962250   0.3226256), wk =   0.0185185
        k(   63) = (   0.3333333  -0.0962250   0.6452512), wk =   0.0185185
        k(   64) = (   0.3333333  -0.0962250  -0.9678768), wk =   0.0185185
        k(   65) = (  -0.5000000  -0.2886751   0.0000000), wk =   0.0092593
        k(   66) = (  -0.5000000  -0.2886751   0.3226256), wk =   0.0185185
        k(   67) = (  -0.5000000  -0.2886751   0.6452512), wk =   0.0185185
        k(   68) = (  -0.5000000  -0.2886751  -0.9678768), wk =   0.0092593
        k(   69) = (  -0.5000000   0.0000000   0.0000000), wk =   0.0185185
        k(   70) = (  -0.5000000   0.0000000   0.3226256), wk =   0.0185185
        k(   71) = (  -0.5000000   0.0000000   0.6452512), wk =   0.0185185
        k(   72) = (  -0.5000000   0.0000000  -0.9678768), wk =   0.0185185
        k(   73) = (  -0.5000000   0.2886751   0.0000000), wk =   0.0185185
        k(   74) = (  -0.5000000   0.2886751   0.3226256), wk =   0.0185185
        k(   75) = (  -0.5000000   0.2886751   0.6452512), wk =   0.0185185
        k(   76) = (  -0.5000000   0.2886751  -0.9678768), wk =   0.0185185
        k(   77) = (  -0.5000000  -1.1547005   0.0000000), wk =   0.0092593
        k(   78) = (  -0.5000000  -1.1547005   0.3226256), wk =   0.0185185
        k(   79) = (  -0.5000000  -1.1547005   0.6452512), wk =   0.0185185
        k(   80) = (  -0.5000000  -1.1547005  -0.9678768), wk =   0.0092593
        k(   81) = (   0.0000000  -0.2886751   0.3226256), wk =   0.0185185
        k(   82) = (   0.0000000  -0.2886751   0.6452512), wk =   0.0185185
        k(   83) = (   0.0000000  -0.5773503   0.3226256), wk =   0.0185185
        k(   84) = (   0.0000000  -0.5773503   0.6452512), wk =   0.0185185
        k(   85) = (  -0.1666667  -0.0962250   0.3226256), wk =   0.0185185
        k(   86) = (  -0.1666667  -0.0962250   0.6452512), wk =   0.0185185
        k(   87) = (  -0.1666667  -0.3849002   0.3226256), wk =   0.0185185
        k(   88) = (  -0.1666667  -0.3849002   0.6452512), wk =   0.0185185
        k(   89) = (  -0.1666667  -0.6735753   0.3226256), wk =   0.0185185
        k(   90) = (  -0.1666667  -0.6735753   0.6452512), wk =   0.0185185
        k(   91) = (  -0.1666667   0.7698004   0.3226256), wk =   0.0185185
        k(   92) = (  -0.1666667   0.7698004   0.6452512), wk =   0.0185185
        k(   93) = (  -0.1666667   0.4811252   0.3226256), wk =   0.0185185
        k(   94) = (  -0.1666667   0.4811252   0.6452512), wk =   0.0185185
        k(   95) = (  -0.1666667   0.1924501   0.3226256), wk =   0.0185185
        k(   96) = (  -0.1666667   0.1924501   0.6452512), wk =   0.0185185
        k(   97) = (  -0.3333333  -0.1924501   0.3226256), wk =   0.0185185
        k(   98) = (  -0.3333333  -0.1924501   0.6452512), wk =   0.0185185
        k(   99) = (  -0.3333333  -0.4811252   0.3226256), wk =   0.0185185
        k(  100) = (  -0.3333333  -0.4811252   0.6452512), wk =   0.0185185
        k(  101) = (  -0.3333333  -0.7698004   0.3226256), wk =   0.0185185
        k(  102) = (  -0.3333333  -0.7698004   0.6452512), wk =   0.0185185
        k(  103) = (  -0.3333333   0.6735753   0.3226256), wk =   0.0185185
        k(  104) = (  -0.3333333   0.6735753   0.6452512), wk =   0.0185185
        k(  105) = (  -0.3333333   0.3849002   0.3226256), wk =   0.0185185
        k(  106) = (  -0.3333333   0.3849002   0.6452512), wk =   0.0185185
        k(  107) = (  -0.3333333   0.0962250   0.3226256), wk =   0.0185185
        k(  108) = (  -0.3333333   0.0962250   0.6452512), wk =   0.0185185
        k(  109) = (   0.5000000  -0.0000000   0.3226256), wk =   0.0185185
        k(  110) = (   0.5000000  -0.0000000   0.6452512), wk =   0.0185185
        k(  111) = (   0.5000000  -0.2886751   0.3226256), wk =   0.0185185
        k(  112) = (   0.5000000  -0.2886751   0.6452512), wk =   0.0185185

                       cryst. coord.
        k(    1) = (   0.0000000   0.0000000   0.0000000), wk =   0.0092593
        k(    2) = (   0.0000000   0.0000000   0.1666667), wk =   0.0185185
        k(    3) = (   0.0000000   0.0000000   0.3333333), wk =   0.0185185
        k(    4) = (   0.0000000   0.0000000  -0.5000000), wk =   0.0092593
        k(    5) = (   0.0000000   0.1666667   0.0000000), wk =   0.0185185
        k(    6) = (   0.0000000   0.1666667   0.1666667), wk =   0.0185185
        k(    7) = (   0.0000000   0.1666667   0.3333333), wk =   0.0185185
        k(    8) = (   0.0000000   0.1666667  -0.5000000), wk =   0.0185185
        k(    9) = (   0.0000000   0.3333333   0.0000000), wk =   0.0185185
        k(   10) = (   0.0000000   0.3333333   0.1666667), wk =   0.0185185
        k(   11) = (   0.0000000   0.3333333   0.3333333), wk =   0.0185185
        k(   12) = (   0.0000000   0.3333333  -0.5000000), wk =   0.0185185
        k(   13) = (   0.0000000  -0.5000000   0.0000000), wk =   0.0092593
        k(   14) = (   0.0000000  -0.5000000   0.1666667), wk =   0.0185185
        k(   15) = (   0.0000000  -0.5000000   0.3333333), wk =   0.0185185
        k(   16) = (   0.0000000  -0.5000000  -0.5000000), wk =   0.0092593
        k(   17) = (   0.1666667   0.0000000   0.0000000), wk =   0.0185185
        k(   18) = (   0.1666667   0.0000000   0.1666667), wk =   0.0185185
        k(   19) = (   0.1666667   0.0000000   0.3333333), wk =   0.0185185
        k(   20) = (   0.1666667   0.0000000  -0.5000000), wk =   0.0185185
        k(   21) = (   0.1666667   0.1666667   0.0000000), wk =   0.0185185
        k(   22) = (   0.1666667   0.1666667   0.1666667), wk =   0.0185185
        k(   23) = (   0.1666667   0.1666667   0.3333333), wk =   0.0185185
        k(   24) = (   0.1666667   0.1666667  -0.5000000), wk =   0.0185185
        k(   25) = (   0.1666667   0.3333333   0.0000000), wk =   0.0185185
        k(   26) = (   0.1666667   0.3333333   0.1666667), wk =   0.0185185
        k(   27) = (   0.1666667   0.3333333   0.3333333), wk =   0.0185185
        k(   28) = (   0.1666667   0.3333333  -0.5000000), wk =   0.0185185
        k(   29) = (   0.1666667  -0.5000000   0.0000000), wk =   0.0185185
        k(   30) = (   0.1666667  -0.5000000   0.1666667), wk =   0.0185185
        k(   31) = (   0.1666667  -0.5000000   0.3333333), wk =   0.0185185
        k(   32) = (   0.1666667  -0.5000000  -0.5000000), wk =   0.0185185
        k(   33) = (   0.1666667  -0.3333333   0.0000000), wk =   0.0185185
        k(   34) = (   0.1666667  -0.3333333   0.1666667), wk =   0.0185185
        k(   35) = (   0.1666667  -0.3333333   0.3333333), wk =   0.0185185
        k(   36) = (   0.1666667  -0.3333333  -0.5000000), wk =   0.0185185
        k(   37) = (   0.1666667  -0.1666667   0.0000000), wk =   0.0185185
        k(   38) = (   0.1666667  -0.1666667   0.1666667), wk =   0.0185185
        k(   39) = (   0.1666667  -0.1666667   0.3333333), wk =   0.0185185
        k(   40) = (   0.1666667  -0.1666667  -0.5000000), wk =   0.0185185
        k(   41) = (   0.3333333   0.0000000   0.0000000), wk =   0.0185185
        k(   42) = (   0.3333333   0.0000000   0.1666667), wk =   0.0185185
        k(   43) = (   0.3333333   0.0000000   0.3333333), wk =   0.0185185
        k(   44) = (   0.3333333   0.0000000  -0.5000000), wk =   0.0185185
        k(   45) = (   0.3333333   0.1666667   0.0000000), wk =   0.0185185
        k(   46) = (   0.3333333   0.1666667   0.1666667), wk =   0.0185185
        k(   47) = (   0.3333333   0.1666667   0.3333333), wk =   0.0185185
        k(   48) = (   0.3333333   0.1666667  -0.5000000), wk =   0.0185185
        k(   49) = (   0.3333333   0.3333333   0.0000000), wk =   0.0185185
        k(   50) = (   0.3333333   0.3333333   0.1666667), wk =   0.0185185
        k(   51) = (   0.3333333   0.3333333   0.3333333), wk =   0.0185185
        k(   52) = (   0.3333333   0.3333333  -0.5000000), wk =   0.0185185
        k(   53) = (   0.3333333  -0.5000000   0.0000000), wk =   0.0185185
        k(   54) = (   0.3333333  -0.5000000   0.1666667), wk =   0.0185185
        k(   55) = (   0.3333333  -0.5000000   0.3333333), wk =   0.0185185
        k(   56) = (   0.3333333  -0.5000000  -0.5000000), wk =   0.0185185
        k(   57) = (   0.3333333  -0.3333333   0.0000000), wk =   0.0185185
        k(   58) = (   0.3333333  -0.3333333   0.1666667), wk =   0.0185185
        k(   59) = (   0.3333333  -0.3333333   0.3333333), wk =   0.0185185
        k(   60) = (   0.3333333  -0.3333333  -0.5000000), wk =   0.0185185
        k(   61) = (   0.3333333  -0.1666667   0.0000000), wk =   0.0185185
        k(   62) = (   0.3333333  -0.1666667   0.1666667), wk =   0.0185185
        k(   63) = (   0.3333333  -0.1666667   0.3333333), wk =   0.0185185
        k(   64) = (   0.3333333  -0.1666667  -0.5000000), wk =   0.0185185
        k(   65) = (  -0.5000000   0.0000000   0.0000000), wk =   0.0092593
        k(   66) = (  -0.5000000   0.0000000   0.1666667), wk =   0.0185185
        k(   67) = (  -0.5000000   0.0000000   0.3333333), wk =   0.0185185
        k(   68) = (  -0.5000000   0.0000000  -0.5000000), wk =   0.0092593
        k(   69) = (  -0.5000000   0.1666667   0.0000000), wk =   0.0185185
        k(   70) = (  -0.5000000   0.1666667   0.1666667), wk =   0.0185185
        k(   71) = (  -0.5000000   0.1666667   0.3333333), wk =   0.0185185
        k(   72) = (  -0.5000000   0.1666667  -0.5000000), wk =   0.0185185
        k(   73) = (  -0.5000000   0.3333333   0.0000000), wk =   0.0185185
        k(   74) = (  -0.5000000   0.3333333   0.1666667), wk =   0.0185185
        k(   75) = (  -0.5000000   0.3333333   0.3333333), wk =   0.0185185
        k(   76) = (  -0.5000000   0.3333333  -0.5000000), wk =   0.0185185
        k(   77) = (  -0.5000000  -0.5000000   0.0000000), wk =   0.0092593
        k(   78) = (  -0.5000000  -0.5000000   0.1666667), wk =   0.0185185
        k(   79) = (  -0.5000000  -0.5000000   0.3333333), wk =   0.0185185
        k(   80) = (  -0.5000000  -0.5000000  -0.5000000), wk =   0.0092593
        k(   81) = (   0.0000000  -0.1666667   0.1666667), wk =   0.0185185
        k(   82) = (   0.0000000  -0.1666667   0.3333333), wk =   0.0185185
        k(   83) = (   0.0000000  -0.3333333   0.1666667), wk =   0.0185185
        k(   84) = (   0.0000000  -0.3333333   0.3333333), wk =   0.0185185
        k(   85) = (  -0.1666667   0.0000000   0.1666667), wk =   0.0185185
        k(   86) = (  -0.1666667   0.0000000   0.3333333), wk =   0.0185185
        k(   87) = (  -0.1666667  -0.1666667   0.1666667), wk =   0.0185185
        k(   88) = (  -0.1666667  -0.1666667   0.3333333), wk =   0.0185185
        k(   89) = (  -0.1666667  -0.3333333   0.1666667), wk =   0.0185185
        k(   90) = (  -0.1666667  -0.3333333   0.3333333), wk =   0.0185185
        k(   91) = (  -0.1666667   0.5000000   0.1666667), wk =   0.0185185
        k(   92) = (  -0.1666667   0.5000000   0.3333333), wk =   0.0185185
        k(   93) = (  -0.1666667   0.3333333   0.1666667), wk =   0.0185185
        k(   94) = (  -0.1666667   0.3333333   0.3333333), wk =   0.0185185
        k(   95) = (  -0.1666667   0.1666667   0.1666667), wk =   0.0185185
        k(   96) = (  -0.1666667   0.1666667   0.3333333), wk =   0.0185185
        k(   97) = (  -0.3333333   0.0000000   0.1666667), wk =   0.0185185
        k(   98) = (  -0.3333333   0.0000000   0.3333333), wk =   0.0185185
        k(   99) = (  -0.3333333  -0.1666667   0.1666667), wk =   0.0185185
        k(  100) = (  -0.3333333  -0.1666667   0.3333333), wk =   0.0185185
        k(  101) = (  -0.3333333  -0.3333333   0.1666667), wk =   0.0185185
        k(  102) = (  -0.3333333  -0.3333333   0.3333333), wk =   0.0185185
        k(  103) = (  -0.3333333   0.5000000   0.1666667), wk =   0.0185185
        k(  104) = (  -0.3333333   0.5000000   0.3333333), wk =   0.0185185
        k(  105) = (  -0.3333333   0.3333333   0.1666667), wk =   0.0185185
        k(  106) = (  -0.3333333   0.3333333   0.3333333), wk =   0.0185185
        k(  107) = (  -0.3333333   0.1666667   0.1666667), wk =   0.0185185
        k(  108) = (  -0.3333333   0.1666667   0.3333333), wk =   0.0185185
        k(  109) = (   0.5000000  -0.1666667   0.1666667), wk =   0.0185185
        k(  110) = (   0.5000000  -0.1666667   0.3333333), wk =   0.0185185
        k(  111) = (   0.5000000  -0.3333333   0.1666667), wk =   0.0185185
        k(  112) = (   0.5000000  -0.3333333   0.3333333), wk =   0.0185185

     Dense  grid:   187175 G-vectors     FFT dimensions: ( 108,  72,  60)

     Smooth grid:    66129 G-vectors     FFT dimensions: (  75,  54,  40)

     Dynamical RAM for                 wfc:       3.41 MB

     Dynamical RAM for     wfc (w. buffer):      27.25 MB

     Dynamical RAM for           str. fact:       1.43 MB

     Dynamical RAM for           local pot:       0.00 MB

     Dynamical RAM for          nlocal pot:       9.84 MB

     Dynamical RAM for                qrad:       3.21 MB

     Dynamical RAM for          rho,v,vnew:       4.81 MB

     Dynamical RAM for               rhoin:       1.60 MB

     Dynamical RAM for            rho*nmix:      11.42 MB

     Dynamical RAM for           G-vectors:       2.80 MB

     Dynamical RAM for          h,s,v(r/c):       0.53 MB

     Dynamical RAM for          <psi|beta>:       0.51 MB

     Dynamical RAM for                 psi:       6.81 MB

     Dynamical RAM for                hpsi:       6.81 MB

     Dynamical RAM for                spsi:       6.81 MB

     Dynamical RAM for      wfcinit/wfcrot:      10.40 MB

     Dynamical RAM for           addusdens:       9.50 MB

     Dynamical RAM for          addusforce:      10.22 MB

     Estimated static dynamical RAM per process >      57.54 MB

     Estimated max dynamical RAM per process >      90.45 MB

     Estimated total dynamical RAM >       4.98 GB

     Check: negative core charge=   -0.000001

     Initial potential from superposition of free atoms

     starting charge     215.9553, renormalised to     216.0000
     Starting wfcs are  156 randomized atomic wfcs

     total cpu time spent up to now is       18.0 secs

     per-process dynamical memory:    76.7 Mb

     Self-consistent Calculation

     iteration #  1     ecut=    50.00 Ry     beta= 0.30
     Davidson diagonalization with overlap

---- Real-time Memory Report at c_bands before calling an iterative solver
           106 MiB given to the printing process from OS
            74 MiB allocation reported by mallinfo(arena+hblkhd)
        102585 MiB available memory on the node where the printing process lives
------------------
     ethr =  1.00E-02,  avg # of iterations =  2.6

     total cpu time spent up to now is       39.1 secs

     total energy              =   -2167.43456822 Ry
     estimated scf accuracy    <       4.17750588 Ry

     iteration #  2     ecut=    50.00 Ry     beta= 0.30
     Davidson diagonalization with overlap

---- Real-time Memory Report at c_bands before calling an iterative solver
           123 MiB given to the printing process from OS
            92 MiB allocation reported by mallinfo(arena+hblkhd)
        102132 MiB available memory on the node where the printing process lives
------------------
     ethr =  1.93E-03,  avg # of iterations =  2.0

     total cpu time spent up to now is       63.1 secs

     total energy              =   -2167.53598148 Ry
     estimated scf accuracy    <       0.94724749 Ry

     iteration #  3     ecut=    50.00 Ry     beta= 0.30
     Davidson diagonalization with overlap

---- Real-time Memory Report at c_bands before calling an iterative solver
           128 MiB given to the printing process from OS
            97 MiB allocation reported by mallinfo(arena+hblkhd)
        102180 MiB available memory on the node where the printing process lives
------------------
     ethr =  4.39E-04,  avg # of iterations =  6.7

     total cpu time spent up to now is      106.1 secs

     total energy              =   -2168.14879658 Ry
     estimated scf accuracy    <       0.59377310 Ry

     iteration #  4     ecut=    50.00 Ry     beta= 0.30
     Davidson diagonalization with overlap

---- Real-time Memory Report at c_bands before calling an iterative solver
           128 MiB given to the printing process from OS
            97 MiB allocation reported by mallinfo(arena+hblkhd)
        102194 MiB available memory on the node where the printing process lives
------------------
     ethr =  2.75E-04,  avg # of iterations =  2.0

     total cpu time spent up to now is      126.4 secs

     total energy              =   -2168.09484082 Ry
     estimated scf accuracy    <       0.20403261 Ry

     iteration #  5     ecut=    50.00 Ry     beta= 0.30
     Davidson diagonalization with overlap

---- Real-time Memory Report at c_bands before calling an iterative solver
           128 MiB given to the printing process from OS
            97 MiB allocation reported by mallinfo(arena+hblkhd)
        102208 MiB available memory on the node where the printing process lives
------------------
     ethr =  9.45E-05,  avg # of iterations =  9.6

     total cpu time spent up to now is      185.3 secs

     total energy              =   -2168.36699657 Ry
     estimated scf accuracy    <       2.88515976 Ry

     iteration #  6     ecut=    50.00 Ry     beta= 0.30
     Davidson diagonalization with overlap

---- Real-time Memory Report at c_bands before calling an iterative solver
           129 MiB given to the printing process from OS
            97 MiB allocation reported by mallinfo(arena+hblkhd)
        102168 MiB available memory on the node where the printing process lives
------------------
     ethr =  9.45E-05,  avg # of iterations =  5.6

     total cpu time spent up to now is      220.3 secs

     total energy              =   -2167.93550046 Ry
     estimated scf accuracy    <       1.04643842 Ry

     iteration #  7     ecut=    50.00 Ry     beta= 0.30
     Davidson diagonalization with overlap

---- Real-time Memory Report at c_bands before calling an iterative solver
           129 MiB given to the printing process from OS
            97 MiB allocation reported by mallinfo(arena+hblkhd)
        102196 MiB available memory on the node where the printing process lives
------------------
     ethr =  9.45E-05,  avg # of iterations =  7.7

     total cpu time spent up to now is      265.0 secs

     total energy              =   -2168.17581509 Ry
     estimated scf accuracy    <       0.00221717 Ry

     iteration #  8     ecut=    50.00 Ry     beta= 0.30
     Davidson diagonalization with overlap

---- Real-time Memory Report at c_bands before calling an iterative solver
           129 MiB given to the printing process from OS
            97 MiB allocation reported by mallinfo(arena+hblkhd)
        102179 MiB available memory on the node where the printing process lives
------------------
     ethr =  1.03E-06,  avg # of iterations = 10.8

     total cpu time spent up to now is      327.7 secs

     total energy              =   -2168.18187398 Ry
     estimated scf accuracy    <       0.00506102 Ry

     iteration #  9     ecut=    50.00 Ry     beta= 0.30
     Davidson diagonalization with overlap

---- Real-time Memory Report at c_bands before calling an iterative solver
           129 MiB given to the printing process from OS
            97 MiB allocation reported by mallinfo(arena+hblkhd)
        102171 MiB available memory on the node where the printing process lives
------------------
     ethr =  1.03E-06,  avg # of iterations =  1.1

     total cpu time spent up to now is      346.5 secs

     total energy              =   -2168.18025912 Ry
     estimated scf accuracy    <       0.00347807 Ry

     iteration # 10     ecut=    50.00 Ry     beta= 0.30
     Davidson diagonalization with overlap

---- Real-time Memory Report at c_bands before calling an iterative solver
           136 MiB given to the printing process from OS
           104 MiB allocation reported by mallinfo(arena+hblkhd)
        102162 MiB available memory on the node where the printing process lives
------------------
     ethr =  1.03E-06,  avg # of iterations =  5.4

     total cpu time spent up to now is      379.6 secs

     total energy              =   -2168.18093849 Ry
     estimated scf accuracy    <       0.00005904 Ry

     iteration # 11     ecut=    50.00 Ry     beta= 0.30
     Davidson diagonalization with overlap

---- Real-time Memory Report at c_bands before calling an iterative solver
           136 MiB given to the printing process from OS
           104 MiB allocation reported by mallinfo(arena+hblkhd)
        102176 MiB available memory on the node where the printing process lives
------------------
     ethr =  2.73E-08,  avg # of iterations = 10.8

     total cpu time spent up to now is      441.6 secs

     total energy              =   -2168.18125832 Ry
     estimated scf accuracy    <       0.00012471 Ry

     iteration # 12     ecut=    50.00 Ry     beta= 0.30
     Davidson diagonalization with overlap

---- Real-time Memory Report at c_bands before calling an iterative solver
           136 MiB given to the printing process from OS
           104 MiB allocation reported by mallinfo(arena+hblkhd)
        102154 MiB available memory on the node where the printing process lives
------------------
     ethr =  2.73E-08,  avg # of iterations =  3.8

     total cpu time spent up to now is      469.0 secs

     total energy              =   -2168.18124107 Ry
     estimated scf accuracy    <       0.00028212 Ry

     iteration # 13     ecut=    50.00 Ry     beta= 0.30
     Davidson diagonalization with overlap

---- Real-time Memory Report at c_bands before calling an iterative solver
           136 MiB given to the printing process from OS
           104 MiB allocation reported by mallinfo(arena+hblkhd)
        102187 MiB available memory on the node where the printing process lives
------------------
     ethr =  2.73E-08,  avg # of iterations =  1.0

     total cpu time spent up to now is      487.5 secs

     total energy              =   -2168.18106710 Ry
     estimated scf accuracy    <       0.00025384 Ry

     iteration # 14     ecut=    50.00 Ry     beta= 0.30
     Davidson diagonalization with overlap

---- Real-time Memory Report at c_bands before calling an iterative solver
           136 MiB given to the printing process from OS
           104 MiB allocation reported by mallinfo(arena+hblkhd)
        102163 MiB available memory on the node where the printing process lives
------------------
     ethr =  2.73E-08,  avg # of iterations =  8.7

     total cpu time spent up to now is      539.4 secs

     total energy              =   -2168.18115319 Ry
     estimated scf accuracy    <       0.00008537 Ry

     iteration # 15     ecut=    50.00 Ry     beta= 0.30
     Davidson diagonalization with overlap

---- Real-time Memory Report at c_bands before calling an iterative solver
           136 MiB given to the printing process from OS
           104 MiB allocation reported by mallinfo(arena+hblkhd)
        102144 MiB available memory on the node where the printing process lives
------------------
     ethr =  2.73E-08,  avg # of iterations =  2.0

     total cpu time spent up to now is      560.4 secs

     total energy              =   -2168.18115531 Ry
     estimated scf accuracy    <       0.00002441 Ry

     iteration # 16     ecut=    50.00 Ry     beta= 0.30
     Davidson diagonalization with overlap

---- Real-time Memory Report at c_bands before calling an iterative solver
           136 MiB given to the printing process from OS
           104 MiB allocation reported by mallinfo(arena+hblkhd)
        102176 MiB available memory on the node where the printing process lives
------------------
     ethr =  1.13E-08,  avg # of iterations =  3.9

     total cpu time spent up to now is      587.5 secs

     total energy              =   -2168.18116097 Ry
     estimated scf accuracy    <       0.00000826 Ry

     iteration # 17     ecut=    50.00 Ry     beta= 0.30
     Davidson diagonalization with overlap

---- Real-time Memory Report at c_bands before calling an iterative solver
           136 MiB given to the printing process from OS
           104 MiB allocation reported by mallinfo(arena+hblkhd)
        102179 MiB available memory on the node where the printing process lives
------------------
     ethr =  3.82E-09,  avg # of iterations =  3.1

     total cpu time spent up to now is      611.7 secs

     total energy              =   -2168.18116085 Ry
     estimated scf accuracy    <       0.00000741 Ry

     iteration # 18     ecut=    50.00 Ry     beta= 0.30
     Davidson diagonalization with overlap

---- Real-time Memory Report at c_bands before calling an iterative solver
           136 MiB given to the printing process from OS
           104 MiB allocation reported by mallinfo(arena+hblkhd)
        102167 MiB available memory on the node where the printing process lives
------------------
     ethr =  3.43E-09,  avg # of iterations =  2.0

     total cpu time spent up to now is      631.9 secs

     total energy              =   -2168.18116020 Ry
     estimated scf accuracy    <       0.00000486 Ry

     iteration # 19     ecut=    50.00 Ry     beta= 0.30
     Davidson diagonalization with overlap

---- Real-time Memory Report at c_bands before calling an iterative solver
           136 MiB given to the printing process from OS
           104 MiB allocation reported by mallinfo(arena+hblkhd)
        102153 MiB available memory on the node where the printing process lives
------------------
     ethr =  2.25E-09,  avg # of iterations =  2.8

     total cpu time spent up to now is      655.4 secs

     total energy              =   -2168.18115956 Ry
     estimated scf accuracy    <       0.00000207 Ry

     iteration # 20     ecut=    50.00 Ry     beta= 0.30
     Davidson diagonalization with overlap

---- Real-time Memory Report at c_bands before calling an iterative solver
           136 MiB given to the printing process from OS
           104 MiB allocation reported by mallinfo(arena+hblkhd)
        102178 MiB available memory on the node where the printing process lives
------------------
     ethr =  9.58E-10,  avg # of iterations =  6.5

     total cpu time spent up to now is      694.1 secs

     total energy              =   -2168.18116078 Ry
     estimated scf accuracy    <       0.00000031 Ry

     iteration # 21     ecut=    50.00 Ry     beta= 0.30
     Davidson diagonalization with overlap

---- Real-time Memory Report at c_bands before calling an iterative solver
           136 MiB given to the printing process from OS
           104 MiB allocation reported by mallinfo(arena+hblkhd)
        102190 MiB available memory on the node where the printing process lives
------------------
     ethr =  1.44E-10,  avg # of iterations =  4.2

     total cpu time spent up to now is      722.4 secs

     total energy              =   -2168.18116080 Ry
     estimated scf accuracy    <       0.00000012 Ry

     iteration # 22     ecut=    50.00 Ry     beta= 0.30
     Davidson diagonalization with overlap

---- Real-time Memory Report at c_bands before calling an iterative solver
           136 MiB given to the printing process from OS
           104 MiB allocation reported by mallinfo(arena+hblkhd)
        102182 MiB available memory on the node where the printing process lives
------------------
     ethr =  5.38E-11,  avg # of iterations =  3.3

     total cpu time spent up to now is      748.9 secs

     total energy              =   -2168.18116083 Ry
     estimated scf accuracy    <       0.00000004 Ry

     iteration # 23     ecut=    50.00 Ry     beta= 0.30
     Davidson diagonalization with overlap

---- Real-time Memory Report at c_bands before calling an iterative solver
           136 MiB given to the printing process from OS
           104 MiB allocation reported by mallinfo(arena+hblkhd)
        102166 MiB available memory on the node where the printing process lives
------------------
     ethr =  1.75E-11,  avg # of iterations =  3.5

     total cpu time spent up to now is      773.2 secs

     total energy              =   -2168.18116082 Ry
     estimated scf accuracy    <       0.00000004 Ry

     iteration # 24     ecut=    50.00 Ry     beta= 0.30
     Davidson diagonalization with overlap

---- Real-time Memory Report at c_bands before calling an iterative solver
           136 MiB given to the printing process from OS
           104 MiB allocation reported by mallinfo(arena+hblkhd)
        102182 MiB available memory on the node where the printing process lives
------------------
     ethr =  1.68E-11,  avg # of iterations =  2.9

     total cpu time spent up to now is      795.6 secs

     total energy              =   -2168.18116082 Ry
     estimated scf accuracy    <       0.00000001 Ry

     iteration # 25     ecut=    50.00 Ry     beta= 0.30
     Davidson diagonalization with overlap

---- Real-time Memory Report at c_bands before calling an iterative solver
           136 MiB given to the printing process from OS
           104 MiB allocation reported by mallinfo(arena+hblkhd)
        102176 MiB available memory on the node where the printing process lives
------------------
     ethr =  5.54E-12,  avg # of iterations =  6.6

     total cpu time spent up to now is      835.6 secs

     End of self-consistent calculation

          k = 0.0000 0.0000 0.0000 (  8293 PWs)   bands (ev):

    -8.1569  -7.2986  -7.2986  -6.9188  -6.9188  -6.8987  -6.6940  -6.4494
    -6.4476  -6.4476  -6.4386  -6.4386   4.5059   4.5060   4.6084   4.6131
     4.6230   4.7267   4.7267   4.9923   4.9923   5.0287   5.0288   5.2806
     5.2806   5.3702   5.5479   5.5479   5.5986   5.5986   5.6272   5.6272
     5.6274   5.6274   5.6605   5.7422   5.7422   5.7967   6.1551   6.1551
     6.2675   6.2675   6.3343   6.3811   6.3811   6.5411   6.5411   6.5857
     7.3565   7.3565   7.5075   7.5075   7.6172   7.6172   7.6402   7.6402
     7.6689   7.7763   7.7763   7.9640   7.9640   7.9922   8.1024   8.1024
     8.1845   8.1845   8.1853   8.1853   8.2097   8.2150   8.2150   8.2755
     8.4594   8.5591   8.5912   8.5912   8.8647   8.8647   8.9692   8.9692
     9.0015   9.1993   9.1993   9.4354   9.4354   9.4716   9.6175   9.8994
     9.8994  10.2741  10.2742  10.6058  10.6058  11.3824  11.3824  11.5237
    11.6810  11.6810  11.8874  11.8874  11.9927  12.0893  12.0893  12.3599
    12.3599  13.1544  13.2703  13.2703

     occupation numbers 
     1.0000   1.0000   1.0000   1.0000   1.0000   1.0000   1.0000   1.0000
     1.0000   1.0000   1.0000   1.0000   1.0000   1.0000   1.0000   1.0000
     1.0000   1.0000   1.0000   1.0000   1.0000   1.0000   1.0000   1.0000
     1.0000   1.0000   1.0000   1.0000   1.0000   1.0000   1.0000   1.0000
     1.0000   1.0000   1.0000   1.0000   1.0000   1.0000   1.0000   1.0000
     1.0000   1.0000   1.0000   1.0000   1.0000   1.0000   1.0000   1.0000
     1.0000   1.0000   1.0000   1.0000   1.0000   1.0000   1.0000   1.0000
     1.0000   1.0000   1.0000   1.0000   1.0000   1.0000   1.0000   1.0000
     1.0000   1.0000   1.0000   1.0000   1.0000   1.0000   1.0000   1.0000
     1.0000   1.0000   1.0000   1.0000   1.0000   1.0000   1.0000   1.0000
     1.0000   1.0000   1.0000   1.0000   1.0000   1.0000   1.0000   1.0000
     1.0000   1.0000   1.0000   1.0000   1.0000   1.0000   1.0000   1.0000
     1.0000   1.0000   1.0000   1.0000   1.0000   1.0000   1.0000   1.0000
     1.0000   1.0000   1.0000   1.0000

          k = 0.0000 0.0000 0.3226 (  8285 PWs)   bands (ev):

    -8.0662  -7.2377  -7.2377  -6.8785  -6.8785  -6.8601  -6.7994  -6.4987
    -6.4987  -6.4694  -6.4611  -6.4611   4.4294   4.4294   4.4730   4.4922
     4.5481   4.6283   4.6283   4.7835   4.7835   4.8217   4.8217   5.2417
     5.2892   5.2892   5.5243   5.5243   5.5869   5.5869   5.6279   5.6279
     5.6361   5.6361   5.6993   5.6993   5.7021   5.7801   6.0436   6.0436
     6.2010   6.2010   6.2340   6.2741   6.2741   6.4385   6.4385   6.4916
     7.4801   7.4801   7.5613   7.5613   7.6663   7.6663   7.7951   7.8022
     7.8022   7.8624   7.8624   7.9989   8.0902   8.0902   8.1508   8.1508
     8.1604   8.1604   8.1676   8.1893   8.1893   8.2965   8.3184   8.3184
     8.5077   8.5544   8.5544   8.8850   8.9450   8.9485   8.9485   9.1374
     9.1374   9.4315   9.4315   9.4900   9.4900   9.8321   9.8876  10.0826
    10.0826  10.4387  10.4387  10.5025  10.5025  11.3494  11.3494  11.6364
    11.6934  11.6934  11.8570  11.9786  11.9786  12.1568  12.1568  12.2337
    12.2337  12.6812  13.1789  13.1789

     occupation numbers 
     1.0000   1.0000   1.0000   1.0000   1.0000   1.0000   1.0000   1.0000
     1.0000   1.0000   1.0000   1.0000   1.0000   1.0000   1.0000   1.0000
     1.0000   1.0000   1.0000   1.0000   1.0000   1.0000   1.0000   1.0000
     1.0000   1.0000   1.0000   1.0000   1.0000   1.0000   1.0000   1.0000
     1.0000   1.0000   1.0000   1.0000   1.0000   1.0000   1.0000   1.0000
     1.0000   1.0000   1.0000   1.0000   1.0000   1.0000   1.0000   1.0000
     1.0000   1.0000   1.0000   1.0000   1.0000   1.0000   1.0000   1.0000
     1.0000   1.0000   1.0000   1.0000   1.0000   1.0000   1.0000   1.0000
     1.0000   1.0000   1.0000   1.0000   1.0000   1.0000   1.0000   1.0000
     1.0000   1.0000   1.0000   1.0000   1.0000   1.0000   1.0000   1.0000
     1.0000   1.0000   1.0000   1.0000   1.0000   1.0000   1.0000   1.0000
     1.0000   1.0000   1.0000   1.0000   1.0000   1.0000   1.0000   1.0000
     1.0000   1.0000   1.0000   1.0000   1.0000   1.0000   1.0000   1.0000
     1.0000   1.0000   1.0000   1.0000

          k = 0.0000 0.0000 0.6453 (  8290 PWs)   bands (ev):

    -7.8134  -7.0820  -7.0731  -7.0731  -6.7732  -6.7731  -6.7598  -6.6440
    -6.6440  -6.5325  -6.5303  -6.5303   4.2135   4.2552   4.2729   4.2729
     4.4136   4.4136   4.4242   4.4242   4.4989   4.4989   4.5048   4.9392
     5.3218   5.3218   5.4914   5.4914   5.5361   5.5361   5.6390   5.6390
     5.6536   5.6536   5.7172   5.7172   5.8007   5.8264   5.8659   5.8659
     6.0410   6.0410   6.0485   6.1599   6.1599   6.2629   6.2629   6.2693
     7.7225   7.7225   7.7396   7.7396   7.7886   7.7886   7.8728   7.8728
     7.9405   7.9405   8.0051   8.0186   8.0377   8.0377   8.0690   8.0690
     8.1002   8.1665   8.1665   8.1965   8.1965   8.2668   8.4022   8.4022
     8.6255   8.7071   8.7071   8.7875   9.2223   9.2223   9.3202   9.3202
     9.8034   9.8035   9.8440   9.8440   9.8594  10.3383  10.5953  10.5953
    10.6356  10.6356  10.6979  10.8586  10.8586  11.0734  11.0734  11.4788
    11.7430  11.7708  11.7708  11.8676  11.8835  11.8835  12.0414  12.0414
    12.2307  12.2307  12.9268  12.9268

     occupation numbers 
     1.0000   1.0000   1.0000   1.0000   1.0000   1.0000   1.0000   1.0000
     1.0000   1.0000   1.0000   1.0000   1.0000   1.0000   1.0000   1.0000
     1.0000   1.0000   1.0000   1.0000   1.0000   1.0000   1.0000   1.0000
     1.0000   1.0000   1.0000   1.0000   1.0000   1.0000   1.0000   1.0000
     1.0000   1.0000   1.0000   1.0000   1.0000   1.0000   1.0000   1.0000
     1.0000   1.0000   1.0000   1.0000   1.0000   1.0000   1.0000   1.0000
     1.0000   1.0000   1.0000   1.0000   1.0000   1.0000   1.0000   1.0000
     1.0000   1.0000   1.0000   1.0000   1.0000   1.0000   1.0000   1.0000
     1.0000   1.0000   1.0000   1.0000   1.0000   1.0000   1.0000   1.0000
     1.0000   1.0000   1.0000   1.0000   1.0000   1.0000   1.0000   1.0000
     1.0000   1.0000   1.0000   1.0000   1.0000   1.0000   1.0000   1.0000
     1.0000   1.0000   1.0000   1.0000   1.0000   1.0000   1.0000   1.0000
     1.0000   1.0000   1.0000   1.0000   1.0000   1.0000   1.0000   1.0000
     1.0000   1.0000   1.0000   1.0000

          k = 0.0000 0.0000-0.9679 (  8268 PWs)   bands (ev):

    -7.4553  -7.4553  -6.8537  -6.8537  -6.8537  -6.8537  -6.6427  -6.6427
    -6.6427  -6.6427  -6.6368  -6.6368   4.1184   4.1184   4.2284   4.2284
     4.2284   4.2284   4.3373   4.3373   4.3373   4.3373   4.6433   4.6433
     5.3913   5.3913   5.3913   5.3913   5.5873   5.5873   5.5873   5.5873
     5.7274   5.7274   5.7274   5.7274   5.8623   5.8623   5.8623   5.8623
     5.8934   5.8934   6.0246   6.0246   6.1504   6.1504   6.1504   6.1504
     7.8860   7.8860   7.8860   7.8860   7.9301   7.9301   7.9301   7.9301
     7.9693   7.9693   7.9693   7.9693   7.9734   7.9734   7.9734   7.9734
     8.0507   8.0507   8.1675   8.1675   8.2728   8.2728   8.2728   8.2728
     8.7194   8.7194   9.0168   9.0168   9.0168   9.0168   9.6696   9.6696
     9.6696   9.6696  10.3644  10.3644  10.3644  10.3644  10.9104  10.9104
    10.9355  10.9355  11.3870  11.3870  11.3870  11.3870  11.4223  11.4223
    11.4223  11.4223  11.4373  11.4373  11.4897  11.4897  11.4897  11.4897
    12.5789  12.5789  12.5789  12.5789

     occupation numbers 
     1.0000   1.0000   1.0000   1.0000   1.0000   1.0000   1.0000   1.0000
     1.0000   1.0000   1.0000   1.0000   1.0000   1.0000   1.0000   1.0000
     1.0000   1.0000   1.0000   1.0000   1.0000   1.0000   1.0000   1.0000
     1.0000   1.0000   1.0000   1.0000   1.0000   1.0000   1.0000   1.0000
     1.0000   1.0000   1.0000   1.0000   1.0000   1.0000   1.0000   1.0000
     1.0000   1.0000   1.0000   1.0000   1.0000   1.0000   1.0000   1.0000
     1.0000   1.0000   1.0000   1.0000   1.0000   1.0000   1.0000   1.0000
     1.0000   1.0000   1.0000   1.0000   1.0000   1.0000   1.0000   1.0000
     1.0000   1.0000   1.0000   1.0000   1.0000   1.0000   1.0000   1.0000
     1.0000   1.0000   1.0000   1.0000   1.0000   1.0000   1.0000   1.0000
     1.0000   1.0000   1.0000   1.0000   1.0000   1.0000   1.0000   1.0000
     1.0000   1.0000   1.0000   1.0000   1.0000   1.0000   1.0000   1.0000
     1.0000   1.0000   1.0000   1.0000   1.0000   1.0000   1.0000   1.0000
     1.0000   1.0000   1.0000   1.0000

          k = 0.0000 0.2887 0.0000 (  8249 PWs)   bands (ev):

    -8.0896  -7.4220  -7.1196  -7.1196  -7.0216  -6.7309  -6.6674  -6.4850
    -6.4670  -6.4348  -6.4319  -6.4319   4.4873   4.5345   4.5345   4.6090
     4.6874   4.8283   4.9665   4.9665   4.9667   5.0688   5.1797   5.1863
     5.3143   5.4219   5.5148   5.5148   5.5725   5.5725   5.6072   5.6463
     5.6464   5.6742   5.6773   5.7360   5.7360   5.7516   5.9700   6.1788
     6.2699   6.2699   6.3169   6.4046   6.4046   6.4916   6.4974   6.6177
     7.3464   7.4452   7.4452   7.4913   7.5811   7.5864   7.5893   7.6120
     7.6880   7.7527   7.7527   7.9186   7.9268   8.0035   8.0246   8.0250
     8.0679   8.0680   8.1116   8.1126   8.1735   8.1976   8.1976   8.2028
     8.3951   8.5139   8.5628   8.6974   8.6974   8.8473   9.0162   9.2038
     9.2038   9.2084   9.3891   9.4968   9.7772   9.7772   9.7814   9.8099
    10.1010  10.1856  10.1856  10.3308  10.9127  10.9682  11.1926  11.5861
    11.6937  11.7470  11.8144  11.8144  12.0884  12.0884  12.0954  12.2739
    12.4029  12.8492  13.0877  13.1986

     occupation numbers 
     1.0000   1.0000   1.0000   1.0000   1.0000   1.0000   1.0000   1.0000
     1.0000   1.0000   1.0000   1.0000   1.0000   1.0000   1.0000   1.0000
     1.0000   1.0000   1.0000   1.0000   1.0000   1.0000   1.0000   1.0000
     1.0000   1.0000   1.0000   1.0000   1.0000   1.0000   1.0000   1.0000
     1.0000   1.0000   1.0000   1.0000   1.0000   1.0000   1.0000   1.0000
     1.0000   1.0000   1.0000   1.0000   1.0000   1.0000   1.0000   1.0000
     1.0000   1.0000   1.0000   1.0000   1.0000   1.0000   1.0000   1.0000
     1.0000   1.0000   1.0000   1.0000   1.0000   1.0000   1.0000   1.0000
     1.0000   1.0000   1.0000   1.0000   1.0000   1.0000   1.0000   1.0000
     1.0000   1.0000   1.0000   1.0000   1.0000   1.0000   1.0000   1.0000
     1.0000   1.0000   1.0000   1.0000   1.0000   1.0000   1.0000   1.0000
     1.0000   1.0000   1.0000   1.0000   1.0000   1.0000   1.0000   1.0000
     1.0000   1.0000   1.0000   1.0000   1.0000   1.0000   1.0000   1.0000
     1.0000   1.0000   1.0000   1.0000

          k = 0.0000 0.2887 0.3226 (  8264 PWs)   bands (ev):

    -8.0008  -7.3557  -7.0675  -7.0675  -6.9751  -6.7689  -6.7045  -6.5266
    -6.4908  -6.4700  -6.4700  -6.4651   4.3930   4.4500   4.4500   4.5324
     4.5961   4.6399   4.7539   4.7539   4.8253   4.8981   5.0252   5.1130
     5.3236   5.3698   5.3897   5.5269   5.5780   5.5929   5.5929   5.6184
     5.6327   5.6385   5.6847   5.7204   5.7204   5.7392   5.9057   6.1181
     6.1492   6.1492   6.2007   6.3277   6.3277   6.4070   6.4122   6.4955
     7.4618   7.5360   7.5373   7.5373   7.6360   7.6607   7.6697   7.7514
     7.7996   7.8665   7.8665   7.9312   8.0604   8.0964   8.0978   8.1051
     8.1429   8.1644   8.1644   8.1646   8.1725   8.2237   8.2237   8.2278
     8.5166   8.5815   8.7006   8.7006   8.9444   8.9496   9.0526   9.2712
     9.3249   9.4221   9.4221   9.6568   9.9273   9.9273   9.9519  10.0067
    10.2017  10.2017  10.3375  10.4712  10.8396  10.8477  11.2914  11.6792
    11.7982  11.8439  11.8607  11.8607  11.9623  11.9996  11.9996  12.2579
    12.3318  12.4877  13.0379  13.1034

     occupation numbers 
     1.0000   1.0000   1.0000   1.0000   1.0000   1.0000   1.0000   1.0000
     1.0000   1.0000   1.0000   1.0000   1.0000   1.0000   1.0000   1.0000
     1.0000   1.0000   1.0000   1.0000   1.0000   1.0000   1.0000   1.0000
     1.0000   1.0000   1.0000   1.0000   1.0000   1.0000   1.0000   1.0000
     1.0000   1.0000   1.0000   1.0000   1.0000   1.0000   1.0000   1.0000
     1.0000   1.0000   1.0000   1.0000   1.0000   1.0000   1.0000   1.0000
     1.0000   1.0000   1.0000   1.0000   1.0000   1.0000   1.0000   1.0000
     1.0000   1.0000   1.0000   1.0000   1.0000   1.0000   1.0000   1.0000
     1.0000   1.0000   1.0000   1.0000   1.0000   1.0000   1.0000   1.0000
     1.0000   1.0000   1.0000   1.0000   1.0000   1.0000   1.0000   1.0000
     1.0000   1.0000   1.0000   1.0000   1.0000   1.0000   1.0000   1.0000
     1.0000   1.0000   1.0000   1.0000   1.0000   1.0000   1.0000   1.0000
     1.0000   1.0000   1.0000   1.0000   1.0000   1.0000   1.0000   1.0000
     1.0000   1.0000   1.0000   1.0000

          k = 0.0000 0.2887 0.6453 (  8264 PWs)   bands (ev):

    -7.7534  -7.1752  -7.0420  -6.9284  -6.9284  -6.8522  -6.6942  -6.6391
    -6.5811  -6.5811  -6.5556  -6.5147   4.2074   4.2790   4.2790   4.3162
     4.3660   4.4012   4.4012   4.4722   4.5078   4.6746   4.7068   4.8698
     5.3213   5.3523   5.3591   5.4970   5.5080   5.5349   5.5561   5.6306
     5.6500   5.6500   5.7193   5.7193   5.7575   5.7988   5.8145   5.9789
     5.9934   5.9934   6.0032   6.1537   6.1537   6.2052   6.3253   6.3607
     7.6401   7.6982   7.7546   7.7546   7.7719   7.7833   7.8046   7.8476
     7.8644   7.9426   7.9426   7.9675   8.0394   8.0481   8.0653   8.0915
     8.0997   8.0997   8.1525   8.2228   8.2228   8.2305   8.3068   8.4793
     8.7313   8.7624   8.9826   8.9899   8.9899   9.2104   9.3065   9.5401
     9.5401   9.6170   9.8748  10.1380  10.3232  10.4011  10.4011  10.4848
    10.6303  10.6303  10.6345  10.6348  10.9200  11.0428  11.5432  11.5475
    11.5475  11.5917  11.7940  11.8423  11.9138  11.9335  11.9335  11.9569
    12.1108  12.1363  12.7411  12.8404

     occupation numbers 
     1.0000   1.0000   1.0000   1.0000   1.0000   1.0000   1.0000   1.0000
     1.0000   1.0000   1.0000   1.0000   1.0000   1.0000   1.0000   1.0000
     1.0000   1.0000   1.0000   1.0000   1.0000   1.0000   1.0000   1.0000
     1.0000   1.0000   1.0000   1.0000   1.0000   1.0000   1.0000   1.0000
     1.0000   1.0000   1.0000   1.0000   1.0000   1.0000   1.0000   1.0000
     1.0000   1.0000   1.0000   1.0000   1.0000   1.0000   1.0000   1.0000
     1.0000   1.0000   1.0000   1.0000   1.0000   1.0000   1.0000   1.0000
     1.0000   1.0000   1.0000   1.0000   1.0000   1.0000   1.0000   1.0000
     1.0000   1.0000   1.0000   1.0000   1.0000   1.0000   1.0000   1.0000
     1.0000   1.0000   1.0000   1.0000   1.0000   1.0000   1.0000   1.0000
     1.0000   1.0000   1.0000   1.0000   1.0000   1.0000   1.0000   1.0000
     1.0000   1.0000   1.0000   1.0000   1.0000   1.0000   1.0000   1.0000
     1.0000   1.0000   1.0000   1.0000   1.0000   1.0000   1.0000   1.0000
     1.0000   1.0000   1.0000   1.0000

          k = 0.0000 0.2887-0.9679 (  8284 PWs)   bands (ev):

    -7.4042  -7.4042  -6.9316  -6.9316  -6.7478  -6.7478  -6.7478  -6.7478
    -6.6958  -6.6958  -6.5665  -6.5665   4.1452   4.1452   4.2220   4.2220
     4.2220   4.2220   4.3061   4.3061   4.5531   4.5531   4.6082   4.6082
     5.3921   5.3921   5.4067   5.4067   5.4317   5.4317   5.6011   5.6011
     5.7101   5.7101   5.7101   5.7101   5.8430   5.8430   5.8464   5.8464
     5.9813   5.9813   5.9933   5.9933   5.9934   5.9934   6.3054   6.3054
     7.7342   7.7342   7.9268   7.9268   7.9278   7.9278   7.9328   7.9328
     7.9533   7.9533   7.9533   7.9533   7.9787   7.9787   8.0228   8.0228
     8.0685   8.0685   8.0773   8.0773   8.0773   8.0773   8.5280   8.5280
     8.8329   8.8329   9.0242   9.0242   9.3153   9.3153   9.3153   9.3153
     9.7887   9.7887  10.0186  10.0186  10.9143  10.9143  10.9781  10.9781
    10.9781  10.9781  11.0616  11.0616  11.3099  11.3099  11.4320  11.4320
    11.4659  11.4659  11.4659  11.4659  11.5003  11.5003  11.5351  11.5351
    12.3299  12.3299  12.4767  12.4767

     occupation numbers 
     1.0000   1.0000   1.0000   1.0000   1.0000   1.0000   1.0000   1.0000
     1.0000   1.0000   1.0000   1.0000   1.0000   1.0000   1.0000   1.0000
     1.0000   1.0000   1.0000   1.0000   1.0000   1.0000   1.0000   1.0000
     1.0000   1.0000   1.0000   1.0000   1.0000   1.0000   1.0000   1.0000
     1.0000   1.0000   1.0000   1.0000   1.0000   1.0000   1.0000   1.0000
     1.0000   1.0000   1.0000   1.0000   1.0000   1.0000   1.0000   1.0000
     1.0000   1.0000   1.0000   1.0000   1.0000   1.0000   1.0000   1.0000
     1.0000   1.0000   1.0000   1.0000   1.0000   1.0000   1.0000   1.0000
     1.0000   1.0000   1.0000   1.0000   1.0000   1.0000   1.0000   1.0000
     1.0000   1.0000   1.0000   1.0000   1.0000   1.0000   1.0000   1.0000
     1.0000   1.0000   1.0000   1.0000   1.0000   1.0000   1.0000   1.0000
     1.0000   1.0000   1.0000   1.0000   1.0000   1.0000   1.0000   1.0000
     1.0000   1.0000   1.0000   1.0000   1.0000   1.0000   1.0000   1.0000
     1.0000   1.0000   1.0000   1.0000

          k = 0.0000 0.5774 0.0000 (  8271 PWs)   bands (ev):

    -7.8985  -7.4659  -7.2986  -7.2986  -6.9188  -6.5976  -6.5821  -6.5821
    -6.4753  -6.4476  -6.4476  -6.4386   4.5060   4.5060   4.7166   4.7267
     4.8164   4.9922   4.9973   5.0288   5.0288   5.0377   5.0432   5.4027
     5.4613   5.4662   5.4662   5.5479   5.5906   5.5986   5.5986   5.6093
     5.6115   5.6274   5.6274   5.6314   5.7422   5.8094   5.8262   6.1545
     6.1551   6.1551   6.2675   6.2675   6.3811   6.5411   6.5721   6.5721
     7.3565   7.3565   7.3756   7.4563   7.4829   7.5075   7.6150   7.6368
     7.6402   7.6574   7.6574   7.7763   7.7763   7.7922   7.9640   7.9640
     8.0570   8.1073   8.1358   8.1670   8.1845   8.1845   8.1853   8.2150
     8.3980   8.5912   8.6053   8.8319   8.8646   8.8647   8.9692   9.1993
     9.1993   9.2477   9.2477   9.4354   9.7386   9.8994  10.1862  10.2741
    10.2741  10.6058  10.6058  10.6130  10.6130  10.7249  10.8249  11.1301
    11.3657  11.3824  11.6810  12.0893  12.0893  12.1656  12.3496  12.3574
    12.3599  12.3599  12.8755  12.9932

     occupation numbers 
     1.0000   1.0000   1.0000   1.0000   1.0000   1.0000   1.0000   1.0000
     1.0000   1.0000   1.0000   1.0000   1.0000   1.0000   1.0000   1.0000
     1.0000   1.0000   1.0000   1.0000   1.0000   1.0000   1.0000   1.0000
     1.0000   1.0000   1.0000   1.0000   1.0000   1.0000   1.0000   1.0000
     1.0000   1.0000   1.0000   1.0000   1.0000   1.0000   1.0000   1.0000
     1.0000   1.0000   1.0000   1.0000   1.0000   1.0000   1.0000   1.0000
     1.0000   1.0000   1.0000   1.0000   1.0000   1.0000   1.0000   1.0000
     1.0000   1.0000   1.0000   1.0000   1.0000   1.0000   1.0000   1.0000
     1.0000   1.0000   1.0000   1.0000   1.0000   1.0000   1.0000   1.0000
     1.0000   1.0000   1.0000   1.0000   1.0000   1.0000   1.0000   1.0000
     1.0000   1.0000   1.0000   1.0000   1.0000   1.0000   1.0000   1.0000
     1.0000   1.0000   1.0000   1.0000   1.0000   1.0000   1.0000   1.0000
     1.0000   1.0000   1.0000   1.0000   1.0000   1.0000   1.0000   1.0000
     1.0000   1.0000   1.0000   1.0000

          k = 0.0000 0.5774 0.3226 (  8269 PWs)   bands (ev):

    -7.8152  -7.3979  -7.2377  -7.2377  -6.8785  -6.6877  -6.5714  -6.5714
    -6.5380  -6.4987  -6.4987  -6.4611   4.4294   4.4294   4.6283   4.6407
     4.6810   4.7835   4.7835   4.7903   4.8217   4.9213   5.0673   5.2442
     5.2442   5.4154   5.4515   5.5243   5.5329   5.5580   5.5700   5.6116
     5.6279   5.6279   5.6361   5.6361   5.6993   5.7645   5.8278   6.0436
     6.0436   6.0968   6.2010   6.2010   6.2741   6.4385   6.4877   6.4877
     7.4729   7.4801   7.4801   7.4806   7.5577   7.5613   7.6612   7.7280
     7.7713   7.8022   7.8022   7.8624   7.9413   7.9414   8.1146   8.1370
     8.1391   8.1508   8.1508   8.1604   8.1604   8.1826   8.1893   8.3184
     8.5501   8.5544   8.9485   8.9485   8.9740   9.0704   9.1374   9.1668
     9.1668   9.4315   9.4315   9.4900   9.8852  10.0826  10.3163  10.4387
    10.4387  10.5025  10.5025  10.5487  10.8362  10.8362  10.9251  10.9958
    11.3494  11.4782  11.6934  11.9554  12.1568  12.1568  12.2164  12.2337
    12.2337  12.3872  12.8180  12.8884

     occupation numbers 
     1.0000   1.0000   1.0000   1.0000   1.0000   1.0000   1.0000   1.0000
     1.0000   1.0000   1.0000   1.0000   1.0000   1.0000   1.0000   1.0000
     1.0000   1.0000   1.0000   1.0000   1.0000   1.0000   1.0000   1.0000
     1.0000   1.0000   1.0000   1.0000   1.0000   1.0000   1.0000   1.0000
     1.0000   1.0000   1.0000   1.0000   1.0000   1.0000   1.0000   1.0000
     1.0000   1.0000   1.0000   1.0000   1.0000   1.0000   1.0000   1.0000
     1.0000   1.0000   1.0000   1.0000   1.0000   1.0000   1.0000   1.0000
     1.0000   1.0000   1.0000   1.0000   1.0000   1.0000   1.0000   1.0000
     1.0000   1.0000   1.0000   1.0000   1.0000   1.0000   1.0000   1.0000
     1.0000   1.0000   1.0000   1.0000   1.0000   1.0000   1.0000   1.0000
     1.0000   1.0000   1.0000   1.0000   1.0000   1.0000   1.0000   1.0000
     1.0000   1.0000   1.0000   1.0000   1.0000   1.0000   1.0000   1.0000
     1.0000   1.0000   1.0000   1.0000   1.0000   1.0000   1.0000   1.0000
     1.0000   1.0000   1.0000   1.0000

          k = 0.0000 0.5774 0.6453 (  8275 PWs)   bands (ev):

    -7.5846  -7.2121  -7.0731  -7.0731  -6.9325  -6.7732  -6.7133  -6.6440
    -6.6440  -6.5497  -6.5497  -6.5303   4.2729   4.2729   4.4136   4.4136
     4.4242   4.4650   4.4665   4.4927   4.4989   4.6990   4.8682   4.8682
     5.1383   5.3988   5.4314   5.4597   5.5231   5.5361   5.5408   5.5465
     5.6390   5.6536   5.6536   5.6579   5.7172   5.7172   5.8047   5.8659
     5.8659   5.9663   6.0410   6.0410   6.1599   6.2629   6.4103   6.4103
     7.5449   7.6968   7.7123   7.7225   7.7225   7.7318   7.7396   7.7794
     7.8409   7.8728   7.8728   7.9405   8.0435   8.0650   8.0690   8.0690
     8.0766   8.1513   8.1665   8.1665   8.1965   8.3853   8.3853   8.4022
     8.7071   8.9573   8.9868   8.9868   9.2223   9.3202   9.3202   9.7405
     9.8035   9.8440   9.8440   9.9074  10.0930  10.4332  10.4738  10.5953
    10.5953  10.6356  10.8586  10.8586  10.9089  11.0734  11.1996  11.2789
    11.2789  11.5443  11.7708  11.7839  11.8593  11.8835  11.8835  12.0414
    12.0414  12.1723  12.4297  12.5986

     occupation numbers 
     1.0000   1.0000   1.0000   1.0000   1.0000   1.0000   1.0000   1.0000
     1.0000   1.0000   1.0000   1.0000   1.0000   1.0000   1.0000   1.0000
     1.0000   1.0000   1.0000   1.0000   1.0000   1.0000   1.0000   1.0000
     1.0000   1.0000   1.0000   1.0000   1.0000   1.0000   1.0000   1.0000
     1.0000   1.0000   1.0000   1.0000   1.0000   1.0000   1.0000   1.0000
     1.0000   1.0000   1.0000   1.0000   1.0000   1.0000   1.0000   1.0000
     1.0000   1.0000   1.0000   1.0000   1.0000   1.0000   1.0000   1.0000
     1.0000   1.0000   1.0000   1.0000   1.0000   1.0000   1.0000   1.0000
     1.0000   1.0000   1.0000   1.0000   1.0000   1.0000   1.0000   1.0000
     1.0000   1.0000   1.0000   1.0000   1.0000   1.0000   1.0000   1.0000
     1.0000   1.0000   1.0000   1.0000   1.0000   1.0000   1.0000   1.0000
     1.0000   1.0000   1.0000   1.0000   1.0000   1.0000   1.0000   1.0000
     1.0000   1.0000   1.0000   1.0000   1.0000   1.0000   1.0000   1.0000
     1.0000   1.0000   1.0000   1.0000

          k = 0.0000 0.5774-0.9679 (  8232 PWs)   bands (ev):

    -7.2622  -7.2622  -6.9602  -6.9602  -6.8537  -6.8537  -6.8537  -6.8537
    -6.6427  -6.6427  -6.5388  -6.5388   4.2284   4.2284   4.2284   4.2284
     4.3373   4.3373   4.3543   4.3543   4.5045   4.5045   4.7052   4.7052
     5.2540   5.2540   5.4686   5.4686   5.5267   5.5267   5.5438   5.5438
     5.5873   5.5873   5.7274   5.7274   5.7274   5.7274   5.8454   5.8454
     5.8623   5.8623   5.8623   5.8623   6.1504   6.1504   6.3865   6.3865
     7.6299   7.6299   7.8860   7.8860   7.9230   7.9230   7.9252   7.9252
     7.9259   7.9259   7.9693   7.9693   7.9693   7.9693   7.9734   7.9734
     7.9734   7.9734   7.9821   7.9821   8.2728   8.2728   8.6882   8.6882
     8.7815   8.7815   9.0168   9.0168   9.5132   9.5132   9.6696   9.6696
     9.6696   9.6696  10.1974  10.1974  10.3644  10.3644  10.8475  10.8475
    11.2211  11.2211  11.3870  11.3870  11.3870  11.3870  11.4223  11.4223
    11.4223  11.4223  11.4897  11.4897  11.5031  11.5031  11.5503  11.5503
    11.7869  11.7869  12.1954  12.1954

     occupation numbers 
     1.0000   1.0000   1.0000   1.0000   1.0000   1.0000   1.0000   1.0000
     1.0000   1.0000   1.0000   1.0000   1.0000   1.0000   1.0000   1.0000
     1.0000   1.0000   1.0000   1.0000   1.0000   1.0000   1.0000   1.0000
     1.0000   1.0000   1.0000   1.0000   1.0000   1.0000   1.0000   1.0000
     1.0000   1.0000   1.0000   1.0000   1.0000   1.0000   1.0000   1.0000
     1.0000   1.0000   1.0000   1.0000   1.0000   1.0000   1.0000   1.0000
     1.0000   1.0000   1.0000   1.0000   1.0000   1.0000   1.0000   1.0000
     1.0000   1.0000   1.0000   1.0000   1.0000   1.0000   1.0000   1.0000
     1.0000   1.0000   1.0000   1.0000   1.0000   1.0000   1.0000   1.0000
     1.0000   1.0000   1.0000   1.0000   1.0000   1.0000   1.0000   1.0000
     1.0000   1.0000   1.0000   1.0000   1.0000   1.0000   1.0000   1.0000
     1.0000   1.0000   1.0000   1.0000   1.0000   1.0000   1.0000   1.0000
     1.0000   1.0000   1.0000   1.0000   1.0000   1.0000   1.0000   1.0000
     1.0000   1.0000   1.0000   1.0000

          k = 0.0000-0.8660 0.0000 (  8248 PWs)   bands (ev):

    -7.6166  -7.6166  -7.4220  -7.4219  -6.7309  -6.7309  -6.5118  -6.5118
    -6.4850  -6.4850  -6.4670  -6.4670   4.6090   4.6090   4.6604   4.6604
     4.9667   4.9667   5.0688   5.0688   5.1215   5.1215   5.1863   5.1863
     5.4782   5.4782   5.5113   5.5113   5.5148   5.5148   5.5148   5.5148
     5.6463   5.6463   5.6773   5.6773   5.8431   5.8431   5.9700   5.9700
     6.0172   6.0172   6.1788   6.1788   6.4974   6.4974   6.6177   6.6177
     7.3464   7.3464   7.3648   7.3648   7.4913   7.4913   7.5864   7.5864
     7.6638   7.6638   7.6880   7.6880   7.9268   7.9268   8.0035   8.0035
     8.0250   8.0250   8.0469   8.0469   8.1614   8.1614   8.1735   8.1735
     8.3951   8.3951   8.7358   8.7358   8.8473   8.8473   9.0162   9.0162
     9.3891   9.3891   9.4968   9.4968   9.9182   9.9182  10.1010  10.1010
    10.3308  10.3308  10.8369  10.8369  10.9127  10.9127  10.9682  10.9682
    11.1926  11.1926  11.4205  11.4205  12.2739  12.2739  12.4029  12.4029
    12.5250  12.5250  12.6906  12.6906

     occupation numbers 
     1.0000   1.0000   1.0000   1.0000   1.0000   1.0000   1.0000   1.0000
     1.0000   1.0000   1.0000   1.0000   1.0000   1.0000   1.0000   1.0000
     1.0000   1.0000   1.0000   1.0000   1.0000   1.0000   1.0000   1.0000
     1.0000   1.0000   1.0000   1.0000   1.0000   1.0000   1.0000   1.0000
     1.0000   1.0000   1.0000   1.0000   1.0000   1.0000   1.0000   1.0000
     1.0000   1.0000   1.0000   1.0000   1.0000   1.0000   1.0000   1.0000
     1.0000   1.0000   1.0000   1.0000   1.0000   1.0000   1.0000   1.0000
     1.0000   1.0000   1.0000   1.0000   1.0000   1.0000   1.0000   1.0000
     1.0000   1.0000   1.0000   1.0000   1.0000   1.0000   1.0000   1.0000
     1.0000   1.0000   1.0000   1.0000   1.0000   1.0000   1.0000   1.0000
     1.0000   1.0000   1.0000   1.0000   1.0000   1.0000   1.0000   1.0000
     1.0000   1.0000   1.0000   1.0000   1.0000   1.0000   1.0000   1.0000
     1.0000   1.0000   1.0000   1.0000   1.0000   1.0000   1.0000   1.0000
     1.0000   1.0000   1.0000   1.0000

          k = 0.0000-0.8660 0.3226 (  8246 PWs)   bands (ev):

    -7.5428  -7.5428  -7.3557  -7.3557  -6.7045  -6.7045  -6.5842  -6.5842
    -6.5266  -6.5266  -6.4908  -6.4908   4.5324   4.5324   4.5801   4.5801
     4.8253   4.8253   4.8555   4.8555   4.8981   4.8981   5.0252   5.0252
     5.3897   5.3897   5.5221   5.5221   5.5269   5.5269   5.5310   5.5310
     5.6184   5.6184   5.6385   5.6385   5.7921   5.7921   5.9057   5.9057
     5.9648   5.9648   6.1181   6.1181   6.4122   6.4122   6.4955   6.4955
     7.4618   7.4618   7.4735   7.4735   7.5360   7.5360   7.7024   7.7024
     7.7514   7.7514   7.7996   7.7996   8.0604   8.0604   8.0964   8.0964
     8.1331   8.1331   8.1429   8.1429   8.1572   8.1572   8.1725   8.1725
     8.5815   8.5815   8.9444   8.9444   9.0332   9.0332   9.0526   9.0526
     9.3249   9.3249   9.6568   9.6568  10.0341  10.0341  10.3375  10.3375
    10.4712  10.4712  10.8396  10.8396  10.8477  10.8477  10.9725  10.9725
    11.2545  11.2545  11.2914  11.2914  12.2579  12.2579  12.3318  12.3318
    12.5281  12.5281  12.5745  12.5745

     occupation numbers 
     1.0000   1.0000   1.0000   1.0000   1.0000   1.0000   1.0000   1.0000
     1.0000   1.0000   1.0000   1.0000   1.0000   1.0000   1.0000   1.0000
     1.0000   1.0000   1.0000   1.0000   1.0000   1.0000   1.0000   1.0000
     1.0000   1.0000   1.0000   1.0000   1.0000   1.0000   1.0000   1.0000
     1.0000   1.0000   1.0000   1.0000   1.0000   1.0000   1.0000   1.0000
     1.0000   1.0000   1.0000   1.0000   1.0000   1.0000   1.0000   1.0000
     1.0000   1.0000   1.0000   1.0000   1.0000   1.0000   1.0000   1.0000
     1.0000   1.0000   1.0000   1.0000   1.0000   1.0000   1.0000   1.0000
     1.0000   1.0000   1.0000   1.0000   1.0000   1.0000   1.0000   1.0000
     1.0000   1.0000   1.0000   1.0000   1.0000   1.0000   1.0000   1.0000
     1.0000   1.0000   1.0000   1.0000   1.0000   1.0000   1.0000   1.0000
     1.0000   1.0000   1.0000   1.0000   1.0000   1.0000   1.0000   1.0000
     1.0000   1.0000   1.0000   1.0000   1.0000   1.0000   1.0000   1.0000
     1.0000   1.0000   1.0000   1.0000

          k = 0.0000-0.8660 0.6453 (  8238 PWs)   bands (ev):

    -7.3401  -7.3401  -7.1752  -7.1752  -6.7847  -6.7847  -6.6942  -6.6942
    -6.6391  -6.6391  -6.5147  -6.5147   4.3660   4.3660   4.4055   4.4055
     4.4722   4.4722   4.5279   4.5279   4.6746   4.6746   4.7068   4.7068
     5.3213   5.3213   5.5080   5.5080   5.5345   5.5345   5.5561   5.5561
     5.5934   5.5934   5.6306   5.6306   5.6847   5.6847   5.8145   5.8145
     5.8392   5.8392   5.9789   5.9789   6.3253   6.3253   6.3607   6.3607
     7.6401   7.6401   7.6973   7.6973   7.6982   7.6982   7.8036   7.8036
     7.8046   7.8046   7.8476   7.8476   8.0517   8.0517   8.0653   8.0653
     8.1175   8.1175   8.1525   8.1525   8.3068   8.3068   8.4793   8.4793
     8.7313   8.7313   8.9826   8.9826   9.3065   9.3065   9.6170   9.6170
     9.8508   9.8508  10.1380  10.1380  10.3232  10.3232  10.3974  10.3974
    10.6348  10.6348  10.9200  10.9200  10.9702  10.9702  11.0428  11.0428
    11.3317  11.3317  11.5432  11.5432  11.9138  11.9138  12.1363  12.1363
    12.2299  12.2299  12.2529  12.2529

     occupation numbers 
     1.0000   1.0000   1.0000   1.0000   1.0000   1.0000   1.0000   1.0000
     1.0000   1.0000   1.0000   1.0000   1.0000   1.0000   1.0000   1.0000
     1.0000   1.0000   1.0000   1.0000   1.0000   1.0000   1.0000   1.0000
     1.0000   1.0000   1.0000   1.0000   1.0000   1.0000   1.0000   1.0000
     1.0000   1.0000   1.0000   1.0000   1.0000   1.0000   1.0000   1.0000
     1.0000   1.0000   1.0000   1.0000   1.0000   1.0000   1.0000   1.0000
     1.0000   1.0000   1.0000   1.0000   1.0000   1.0000   1.0000   1.0000
     1.0000   1.0000   1.0000   1.0000   1.0000   1.0000   1.0000   1.0000
     1.0000   1.0000   1.0000   1.0000   1.0000   1.0000   1.0000   1.0000
     1.0000   1.0000   1.0000   1.0000   1.0000   1.0000   1.0000   1.0000
     1.0000   1.0000   1.0000   1.0000   1.0000   1.0000   1.0000   1.0000
     1.0000   1.0000   1.0000   1.0000   1.0000   1.0000   1.0000   1.0000
     1.0000   1.0000   1.0000   1.0000   1.0000   1.0000   1.0000   1.0000
     1.0000   1.0000   1.0000   1.0000

          k = 0.0000-0.8660-0.9679 (  8228 PWs)   bands (ev):

    -7.0620  -7.0620  -7.0619  -7.0619  -6.9316  -6.9316  -6.9316  -6.9316
    -6.5665  -6.5665  -6.5665  -6.5665   4.3061   4.3061   4.3061   4.3061
     4.3603   4.3603   4.3603   4.3603   4.5531   4.5531   4.5531   4.5531
     5.3921   5.3921   5.3921   5.3921   5.5851   5.5851   5.5851   5.5851
     5.6011   5.6011   5.6011   5.6011   5.7012   5.7012   5.7012   5.7012
     5.8430   5.8430   5.8430   5.8430   6.3054   6.3054   6.3054   6.3054
     7.7342   7.7342   7.7342   7.7342   7.9327   7.9327   7.9327   7.9327
     7.9328   7.9328   7.9328   7.9328   7.9346   7.9346   7.9346   7.9346
     7.9787   7.9787   7.9787   7.9787   8.5280   8.5280   8.5280   8.5280
     8.8329   8.8329   8.8329   8.8329   9.7887   9.7887   9.7887   9.7887
    10.0186  10.0186  10.0186  10.0186  10.4022  10.4022  10.4022  10.4022
    11.3099  11.3099  11.3099  11.3099  11.4618  11.4618  11.4618  11.4618
    11.5003  11.5003  11.5003  11.5003  11.5351  11.5351  11.5351  11.5351
    11.8014  11.8014  11.8014  11.8014

     occupation numbers 
     1.0000   1.0000   1.0000   1.0000   1.0000   1.0000   1.0000   1.0000
     1.0000   1.0000   1.0000   1.0000   1.0000   1.0000   1.0000   1.0000
     1.0000   1.0000   1.0000   1.0000   1.0000   1.0000   1.0000   1.0000
     1.0000   1.0000   1.0000   1.0000   1.0000   1.0000   1.0000   1.0000
     1.0000   1.0000   1.0000   1.0000   1.0000   1.0000   1.0000   1.0000
     1.0000   1.0000   1.0000   1.0000   1.0000   1.0000   1.0000   1.0000
     1.0000   1.0000   1.0000   1.0000   1.0000   1.0000   1.0000   1.0000
     1.0000   1.0000   1.0000   1.0000   1.0000   1.0000   1.0000   1.0000
     1.0000   1.0000   1.0000   1.0000   1.0000   1.0000   1.0000   1.0000
     1.0000   1.0000   1.0000   1.0000   1.0000   1.0000   1.0000   1.0000
     1.0000   1.0000   1.0000   1.0000   1.0000   1.0000   1.0000   1.0000
     1.0000   1.0000   1.0000   1.0000   1.0000   1.0000   1.0000   1.0000
     1.0000   1.0000   1.0000   1.0000   1.0000   1.0000   1.0000   1.0000
     1.0000   1.0000   1.0000   1.0000

          k = 0.1667 0.0962 0.0000 (  8282 PWs)   bands (ev):

    -8.1267  -7.5113  -7.1035  -6.9245  -6.9099  -6.9019  -6.6820  -6.4861
    -6.4476  -6.4433  -6.4357  -6.4330   4.4761   4.5890   4.5978   4.6315
     4.6471   4.7140   4.8417   4.8634   4.9008   4.9952   5.1120   5.2295
     5.2959   5.3988   5.5212   5.5443   5.5830   5.6134   5.6173   5.6347
     5.6393   5.6483   5.7011   5.7178   5.7646   5.7853   5.9459   6.0984
     6.2884   6.3440   6.3656   6.3742   6.4261   6.5068   6.5723   6.5838
     7.3391   7.3923   7.5035   7.6009   7.6068   7.6145   7.6206   7.6581
     7.6946   7.7560   7.8726   7.9212   7.9636   8.0175   8.1071   8.1071
     8.1671   8.1694   8.1976   8.2077   8.2103   8.2135   8.2271   8.2600
     8.4717   8.5169   8.5601   8.6402   8.6892   8.7939   8.8203   9.0605
     9.1145   9.1750   9.2796   9.3594   9.5981   9.6355   9.7187   9.8406
     9.8710   9.9439  10.0444  10.6472  11.1563  11.4012  11.4306  11.4955
    11.5420  11.7504  11.8104  11.8242  11.8310  11.9478  12.1698  12.3847
    12.5792  13.0491  13.1277  13.2383

     occupation numbers 
     1.0000   1.0000   1.0000   1.0000   1.0000   1.0000   1.0000   1.0000
     1.0000   1.0000   1.0000   1.0000   1.0000   1.0000   1.0000   1.0000
     1.0000   1.0000   1.0000   1.0000   1.0000   1.0000   1.0000   1.0000
     1.0000   1.0000   1.0000   1.0000   1.0000   1.0000   1.0000   1.0000
     1.0000   1.0000   1.0000   1.0000   1.0000   1.0000   1.0000   1.0000
     1.0000   1.0000   1.0000   1.0000   1.0000   1.0000   1.0000   1.0000
     1.0000   1.0000   1.0000   1.0000   1.0000   1.0000   1.0000   1.0000
     1.0000   1.0000   1.0000   1.0000   1.0000   1.0000   1.0000   1.0000
     1.0000   1.0000   1.0000   1.0000   1.0000   1.0000   1.0000   1.0000
     1.0000   1.0000   1.0000   1.0000   1.0000   1.0000   1.0000   1.0000
     1.0000   1.0000   1.0000   1.0000   1.0000   1.0000   1.0000   1.0000
     1.0000   1.0000   1.0000   1.0000   1.0000   1.0000   1.0000   1.0000
     1.0000   1.0000   1.0000   1.0000   1.0000   1.0000   1.0000   1.0000
     1.0000   1.0000   1.0000   1.0000

          k = 0.1667 0.0962 0.3226 (  8273 PWs)   bands (ev):

    -8.0369  -7.4414  -7.0523  -6.8837  -6.8703  -6.8630  -6.7856  -6.5516
    -6.4697  -6.4681  -6.4647  -6.4588   4.3902   4.4720   4.5217   4.5272
     4.5612   4.5704   4.6906   4.6927   4.7364   4.8415   4.8694   5.1698
     5.3046   5.3390   5.5240   5.5569   5.5670   5.5819   5.5982   5.6074
     5.6343   5.6706   5.6737   5.7098   5.7421   5.7685   5.8757   6.0420
     6.1657   6.2442   6.2644   6.2647   6.3473   6.4194   6.4673   6.4860
     7.4586   7.4877   7.5925   7.6525   7.6633   7.6782   7.7294   7.7687
     7.8483   7.8895   7.8946   7.9561   8.0938   8.0971   8.1391   8.1585
     8.1611   8.1727   8.1826   8.1874   8.1919   8.3066   8.3114   8.3198
[...]
     atom   14 type  1   force =    -0.00000014    0.00000050   -0.14765253
     atom   15 type  2   force =    -0.00000376   -0.00000163   -0.08018895
     atom   16 type  2   force =     0.00000252    0.00000143   -0.08018857
     atom   17 type  1   force =     0.00000064    0.00000011   -0.14765260
     atom   18 type  1   force =    -0.00000057    0.00000137   -0.14765352
     atom   19 type  2   force =    -0.00000209   -0.00000137   -0.08018873
     atom   20 type  2   force =     0.00000238    0.00000028   -0.08018877
     atom   21 type  1   force =    -0.00000025   -0.00000021   -0.14765332
     atom   22 type  1   force =     0.00000042   -0.00000105   -0.14765293
     atom   23 type  2   force =    -0.00000183   -0.00000120   -0.08018880
     atom   24 type  2   force =     0.00000155    0.00000207   -0.08018878
     The ionic contribution  to forces
     atom    1 type  1   force =     0.00000001    0.00000002   -0.98676529
     atom    2 type  1   force =     0.00000001    0.00000002   -0.98676529
     atom    3 type  2   force =     0.00000000    0.00000001    0.98676529
     atom    4 type  2   force =     0.00000001    0.00000001    0.98676529
     atom    5 type  1   force =     0.00000000    0.00000000   -0.98676529
     atom    6 type  1   force =     0.00000001   -0.00000002   -0.98676529
     atom    7 type  2   force =    -0.00000000    0.00000000    0.98676529
     atom    8 type  2   force =     0.00000001   -0.00000001    0.98676529
     atom    9 type  1   force =    -0.00000001    0.00000001   -0.98676529
     atom   10 type  1   force =     0.00000001    0.00000001   -0.98676529
     atom   11 type  2   force =    -0.00000001    0.00000001    0.98676529
     atom   12 type  2   force =     0.00000001   -0.00000000    0.98676529
     atom   13 type  1   force =    -0.00000002    0.00000000   -0.98676530
     atom   14 type  1   force =     0.00000002   -0.00000002   -0.98676529
     atom   15 type  2   force =    -0.00000001    0.00000000    0.98676530
     atom   16 type  2   force =     0.00000001   -0.00000002    0.98676529
     atom   17 type  1   force =    -0.00000001    0.00000001   -0.98676529
     atom   18 type  1   force =    -0.00000001    0.00000000   -0.98676529
     atom   19 type  2   force =    -0.00000000    0.00000001    0.98676529
     atom   20 type  2   force =    -0.00000000    0.00000000    0.98676529
     atom   21 type  1   force =    -0.00000001   -0.00000001   -0.98676529
     atom   22 type  1   force =    -0.00000001   -0.00000003   -0.98676529
     atom   23 type  2   force =    -0.00000001   -0.00000000    0.98676529
     atom   24 type  2   force =     0.00000000   -0.00000002    0.98676529
     The local contribution  to forces
     atom    1 type  1   force =     0.00000091    0.00000321    1.05872476
     atom    2 type  1   force =     0.00000473   -0.00000121    1.05872194
     atom    3 type  2   force =     0.00000227    0.00000195   -0.84684454
     atom    4 type  2   force =    -0.00000120   -0.00000116   -0.84684415
     atom    5 type  1   force =     0.00000399   -0.00000004    1.05872313
     atom    6 type  1   force =     0.00000168    0.00000461    1.05872079
     atom    7 type  2   force =     0.00000341    0.00000110   -0.84684487
     atom    8 type  2   force =    -0.00000110   -0.00000028   -0.84684434
     atom    9 type  1   force =     0.00000006   -0.00000316    1.05872269
     atom   10 type  1   force =    -0.00000493   -0.00000204    1.05872123
     atom   11 type  2   force =     0.00000175   -0.00000070   -0.84684468
     atom   12 type  2   force =    -0.00000402   -0.00000172   -0.84684388
     atom   13 type  1   force =    -0.00000521    0.00000036    1.05872354
     atom   14 type  1   force =     0.00000047   -0.00000067    1.05872198
     atom   15 type  2   force =     0.00000005    0.00000166   -0.84684518
     atom   16 type  2   force =    -0.00000193   -0.00000148   -0.84684382
     atom   17 type  1   force =    -0.00000137    0.00000048    1.05872100
     atom   18 type  1   force =     0.00000075   -0.00000348    1.05872436
     atom   19 type  2   force =     0.00000193    0.00000041   -0.84684408
     atom   20 type  2   force =    -0.00000087   -0.00000248   -0.84684417
     atom   21 type  1   force =     0.00000056   -0.00000094    1.05872249
     atom   22 type  1   force =    -0.00000191    0.00000280    1.05872194
     atom   23 type  2   force =     0.00000263    0.00000190   -0.84684472
     atom   24 type  2   force =    -0.00000254    0.00000082   -0.84684389
     The core correction contribution to forces
     atom    1 type  1   force =    -0.00000001   -0.00000002    0.01559253
     atom    2 type  1   force =    -0.00000003    0.00000001    0.01559260
     atom    3 type  2   force =     0.00000003    0.00000001    0.00036746
     atom    4 type  2   force =    -0.00000003   -0.00000001    0.00036746
     atom    5 type  1   force =    -0.00000007    0.00000001    0.01559261
     atom    6 type  1   force =    -0.00000001   -0.00000007    0.01559263
     atom    7 type  2   force =     0.00000002    0.00000001    0.00036746
     atom    8 type  2   force =    -0.00000003   -0.00000002    0.00036746
     atom    9 type  1   force =    -0.00000002    0.00000000    0.01559261
     atom   10 type  1   force =     0.00000005    0.00000001    0.01559259
     atom   11 type  2   force =     0.00000003    0.00000002    0.00036747
     atom   12 type  2   force =    -0.00000002   -0.00000001    0.00036746
     atom   13 type  1   force =     0.00000001    0.00000002    0.01559260
     atom   14 type  1   force =     0.00000000   -0.00000002    0.01559255
     atom   15 type  2   force =     0.00000004    0.00000002    0.00036746
     atom   16 type  2   force =    -0.00000003   -0.00000001    0.00036746
     atom   17 type  1   force =    -0.00000002   -0.00000004    0.01559260
     atom   18 type  1   force =     0.00000005    0.00000001    0.01559256
     atom   19 type  2   force =     0.00000002    0.00000001    0.00036746
     atom   20 type  2   force =    -0.00000002   -0.00000000    0.00036746
     atom   21 type  1   force =    -0.00000001    0.00000006    0.01559263
     atom   22 type  1   force =     0.00000006    0.00000002    0.01559260
     atom   23 type  2   force =     0.00000002    0.00000001    0.00036746
     atom   24 type  2   force =    -0.00000002   -0.00000002    0.00036746
     The Hubbard contrib.    to forces
     atom    1 type  1   force =     0.00000000    0.00000000    0.00000000
     atom    2 type  1   force =     0.00000000    0.00000000    0.00000000
     atom    3 type  2   force =     0.00000000    0.00000000    0.00000000
     atom    4 type  2   force =     0.00000000    0.00000000    0.00000000
     atom    5 type  1   force =     0.00000000    0.00000000    0.00000000
     atom    6 type  1   force =     0.00000000    0.00000000    0.00000000
     atom    7 type  2   force =     0.00000000    0.00000000    0.00000000
     atom    8 type  2   force =     0.00000000    0.00000000    0.00000000
     atom    9 type  1   force =     0.00000000    0.00000000    0.00000000
     atom   10 type  1   force =     0.00000000    0.00000000    0.00000000
     atom   11 type  2   force =     0.00000000    0.00000000    0.00000000
     atom   12 type  2   force =     0.00000000    0.00000000    0.00000000
     atom   13 type  1   force =     0.00000000    0.00000000    0.00000000
     atom   14 type  1   force =     0.00000000    0.00000000    0.00000000
     atom   15 type  2   force =     0.00000000    0.00000000    0.00000000
     atom   16 type  2   force =     0.00000000    0.00000000    0.00000000
     atom   17 type  1   force =     0.00000000    0.00000000    0.00000000
     atom   18 type  1   force =     0.00000000    0.00000000    0.00000000
     atom   19 type  2   force =     0.00000000    0.00000000    0.00000000
     atom   20 type  2   force =     0.00000000    0.00000000    0.00000000
     atom   21 type  1   force =     0.00000000    0.00000000    0.00000000
     atom   22 type  1   force =     0.00000000    0.00000000    0.00000000
     atom   23 type  2   force =     0.00000000    0.00000000    0.00000000
     atom   24 type  2   force =     0.00000000    0.00000000    0.00000000
     The SCF correction term to forces
     atom    1 type  1   force =    -0.00000184   -0.00000432    0.00000105
     atom    2 type  1   force =    -0.00000549    0.00000204    0.00000509
     atom    3 type  2   force =    -0.00000052   -0.00000113    0.00000057
     atom    4 type  2   force =    -0.00000112    0.00000030    0.00000004
     atom    5 type  1   force =    -0.00000529   -0.00000011    0.00000307
     atom    6 type  1   force =    -0.00000190   -0.00000597    0.00000671
     atom    7 type  2   force =    -0.00000229    0.00000001    0.00000098
     atom    8 type  2   force =    -0.00000106   -0.00000152   -0.00000004
     atom    9 type  1   force =    -0.00000057    0.00000369    0.00000392
     atom   10 type  1   force =     0.00000639    0.00000303    0.00000631
     atom   11 type  2   force =     0.00000063    0.00000245    0.00000066
     atom   12 type  2   force =     0.00000283    0.00000083   -0.00000055
     atom   13 type  1   force =     0.00000606   -0.00000049    0.00000270
     atom   14 type  1   force =    -0.00000021    0.00000088    0.00000506
     atom   15 type  2   force =     0.00000311   -0.00000035    0.00000133
     atom   16 type  2   force =    -0.00000013    0.00000027   -0.00000041
     atom   17 type  1   force =     0.00000116   -0.00000114    0.00000646
     atom   18 type  1   force =    -0.00000062    0.00000471    0.00000203
     atom   19 type  2   force =    -0.00000022    0.00000065   -0.00000002
     atom   20 type  2   force =    -0.00000117    0.00000238   -0.00000002
     atom   21 type  1   force =    -0.00000104    0.00000149    0.00000444
     atom   22 type  1   force =     0.00000302   -0.00000377    0.00000533
     atom   23 type  2   force =    -0.00000104   -0.00000085    0.00000055
     atom   24 type  2   force =     0.00000130   -0.00000261   -0.00000035

     Total force =     0.294426     Total SCF correction =     0.000024

     init_run     :     16.44s CPU     16.83s WALL (       1 calls)
     electrons    :    800.59s CPU    817.68s WALL (       1 calls)
     forces       :      8.08s CPU      8.12s WALL (       1 calls)

     Called by init_run:
     wfcinit      :      8.30s CPU      8.59s WALL (       1 calls)
     wfcinit:atom :      0.04s CPU      0.04s WALL (       7 calls)
     wfcinit:wfcr :      7.93s CPU      8.20s WALL (       7 calls)
     potinit      :      3.28s CPU      3.32s WALL (       1 calls)
     hinit0       :      4.48s CPU      4.50s WALL (       1 calls)

     Called by electrons:
     c_bands      :    722.65s CPU    737.03s WALL (      25 calls)
     sum_band     :     63.27s CPU     65.49s WALL (      25 calls)
     v_of_rho     :      9.87s CPU     10.12s WALL (      26 calls)
     v_h          :      0.41s CPU      0.43s WALL (      26 calls)
     v_xc         :      9.84s CPU     10.07s WALL (      27 calls)
     newd         :      3.07s CPU      3.12s WALL (      26 calls)
     mix_rho      :      0.56s CPU      0.60s WALL (      25 calls)

     Called by c_bands:
     init_us_2    :      3.09s CPU      3.14s WALL (     364 calls)
     init_us_2:cp :      3.09s CPU      3.14s WALL (     364 calls)
     cegterg      :    623.24s CPU    637.37s WALL (     175 calls)

     Called by sum_band:
     sum_band:wei :      0.03s CPU      0.04s WALL (      25 calls)
     sum_band:loo :     52.86s CPU     54.83s WALL (      25 calls)
     sum_band:buf :      0.43s CPU      0.46s WALL (     175 calls)
     sum_band:ini :      1.18s CPU      1.19s WALL (     175 calls)
     sum_band:cal :     15.08s CPU     15.21s WALL (     175 calls)
     sum_band:bec :      0.15s CPU      0.15s WALL (     175 calls)
     addusdens    :      2.66s CPU      2.76s WALL (      25 calls)
     addusd:skk   :      0.02s CPU      0.02s WALL (      50 calls)
     addusd:dgemm :      0.49s CPU      0.50s WALL (      50 calls)
     addusd:qvan2 :      0.71s CPU      0.72s WALL (      50 calls)

     Called by *egterg:
     cdiaghg      :     44.83s CPU     45.82s WALL (    1056 calls)
     cegterg:over :     54.14s CPU     54.32s WALL (     881 calls)
     cegterg:upda :     32.69s CPU     32.86s WALL (     881 calls)
     cegterg:last :     70.24s CPU     70.57s WALL (     546 calls)
     cdiaghg:chol :      2.67s CPU      2.68s WALL (    1056 calls)
     cdiaghg:inve :      0.69s CPU      0.70s WALL (    1056 calls)
     cdiaghg:para :      8.26s CPU      9.02s WALL (    2112 calls)
     h_psi        :    365.96s CPU    378.49s WALL (    1063 calls)
     s_psi        :     46.10s CPU     46.16s WALL (    1063 calls)
     g_psi        :      1.20s CPU      1.21s WALL (     881 calls)

     Called by h_psi:
     h_psi:calbec :     53.12s CPU     53.59s WALL (    1063 calls)
     vloc_psi     :    264.62s CPU    276.61s WALL (    1063 calls)
     add_vuspsi   :     46.98s CPU     47.04s WALL (    1063 calls)

     General routines
     calbec       :     71.19s CPU     71.81s WALL (    1266 calls)
     fft          :      8.78s CPU      9.11s WALL (     347 calls)
     ffts         :      0.52s CPU      0.53s WALL (      51 calls)
     fftw         :    278.12s CPU    291.20s WALL (  146048 calls)
     interpolate  :      0.85s CPU      0.89s WALL (      26 calls)

     Parallel routines

     PWSCF        :  13m46.70s CPU  14m 4.25s WALL


   This run was terminated on:  22:48:33   1Sep2025            

=------------------------------------------------------------------------------=
   JOB DONE.
=------------------------------------------------------------------------------=
Note: The following floating-point exceptions are signalling: IEEE_UNDERFLOW_FLAG IEEE_DENORMAL
Note: The following floating-point exceptions are signalling: IEEE_UNDERFLOW_FLAG IEEE_DENORMAL
Note: The following floating-point exceptions are signalling: IEEE_UNDERFLOW_FLAG IEEE_DENORMAL
Note: The following floating-point exceptions are signalling: IEEE_UNDERFLOW_FLAG IEEE_DENORMAL
Note: The following floating-point exceptions are signalling: IEEE_UNDERFLOW_FLAG IEEE_DENORMAL
Note: The following floating-point exceptions are signalling: IEEE_UNDERFLOW_FLAG IEEE_DENORMAL
Note: The following floating-point exceptions are signalling: IEEE_UNDERFLOW_FLAG IEEE_DENORMAL
Note: The following floating-point exceptions are signalling: IEEE_UNDERFLOW_FLAG IEEE_DENORMAL
Note: The following floating-point exceptions are signalling: IEEE_UNDERFLOW_FLAG IEEE_DENORMAL
Note: The following floating-point exceptions are signalling: IEEE_UNDERFLOW_FLAG IEEE_DENORMAL
Note: The following floating-point exceptions are signalling: IEEE_UNDERFLOW_FLAG IEEE_DENORMAL
Note: The following floating-point exceptions are signalling: IEEE_UNDERFLOW_FLAG IEEE_DENORMAL
Note: The following floating-point exceptions are signalling: IEEE_UNDERFLOW_FLAG IEEE_DENORMAL
Note: The following floating-point exceptions are signalling: IEEE_UNDERFLOW_FLAG IEEE_DENORMAL
Note: The following floating-point exceptions are signalling: IEEE_UNDERFLOW_FLAG IEEE_DENORMAL
Note: The following floating-point exceptions are signalling: IEEE_UNDERFLOW_FLAG IEEE_DENORMAL
Note: The following floating-point exceptions are signalling: IEEE_UNDERFLOW_FLAG IEEE_DENORMAL
Note: The following floating-point exceptions are signalling: IEEE_UNDERFLOW_FLAG IEEE_DENORMAL
Note: The following floating-point exceptions are signalling: IEEE_UNDERFLOW_FLAG IEEE_DENORMAL
Note: The following floating-point exceptions are signalling: IEEE_UNDERFLOW_FLAG IEEE_DENORMAL
Note: The following floating-point exceptions are signalling: IEEE_UNDERFLOW_FLAG IEEE_DENORMAL
Note: The following floating-point exceptions are signalling: IEEE_UNDERFLOW_FLAG IEEE_DENORMAL
Note: The following floating-point exceptions are signalling: IEEE_UNDERFLOW_FLAG IEEE_DENORMAL
Note: The following floating-point exceptions are signalling: IEEE_UNDERFLOW_FLAG IEEE_DENORMAL
Note: The following floating-point exceptions are signalling: IEEE_UNDERFLOW_FLAG IEEE_DENORMAL
Note: The following floating-point exceptions are signalling: IEEE_UNDERFLOW_FLAG IEEE_DENORMAL
Note: The following floating-point exceptions are signalling: IEEE_UNDERFLOW_FLAG IEEE_DENORMAL
Note: The following floating-point exceptions are signalling: IEEE_UNDERFLOW_FLAG IEEE_DENORMAL
Note: The following floating-point exceptions are signalling: IEEE_UNDERFLOW_FLAG IEEE_DENORMAL
Note: The following floating-point exceptions are signalling: IEEE_UNDERFLOW_FLAG IEEE_DENORMAL
Note: The following floating-point exceptions are signalling: IEEE_UNDERFLOW_FLAG IEEE_DENORMAL
Note: The following floating-point exceptions are signalling: IEEE_UNDERFLOW_FLAG IEEE_DENORMAL
Note: The following floating-point exceptions are signalling: IEEE_UNDERFLOW_FLAG IEEE_DENORMAL
Note: The following floating-point exceptions are signalling: IEEE_UNDERFLOW_FLAG IEEE_DENORMAL
Note: The following floating-point exceptions are signalling: IEEE_UNDERFLOW_FLAG IEEE_DENORMAL
Note: The following floating-point exceptions are signalling: IEEE_UNDERFLOW_FLAG IEEE_DENORMAL
Note: The following floating-point exceptions are signalling: IEEE_UNDERFLOW_FLAG IEEE_DENORMAL
Note: The following floating-point exceptions are signalling: IEEE_UNDERFLOW_FLAG IEEE_DENORMAL
Note: The following floating-point exceptions are signalling: IEEE_UNDERFLOW_FLAG IEEE_DENORMAL
Note: The following floating-point exceptions are signalling: IEEE_UNDERFLOW_FLAG IEEE_DENORMAL
Note: The following floating-point exceptions are signalling: IEEE_UNDERFLOW_FLAG IEEE_DENORMAL
Note: The following floating-point exceptions are signalling: IEEE_UNDERFLOW_FLAG IEEE_DENORMAL
Note: The following floating-point exceptions are signalling: IEEE_UNDERFLOW_FLAG IEEE_DENORMAL
Note: The following floating-point exceptions are signalling: IEEE_UNDERFLOW_FLAG IEEE_DENORMAL
Note: The following floating-point exceptions are signalling: IEEE_UNDERFLOW_FLAG IEEE_DENORMAL
Note: The following floating-point exceptions are signalling: IEEE_UNDERFLOW_FLAG IEEE_DENORMAL
Note: The following floating-point exceptions are signalling: IEEE_UNDERFLOW_FLAG IEEE_DENORMAL
Note: The following floating-point exceptions are signalling: IEEE_UNDERFLOW_FLAG IEEE_DENORMAL
Note: The following floating-point exceptions are signalling: IEEE_UNDERFLOW_FLAG IEEE_DENORMAL
Note: The following floating-point exceptions are signalling: IEEE_UNDERFLOW_FLAG IEEE_DENORMAL
Note: The following floating-point exceptions are signalling: IEEE_UNDERFLOW_FLAG IEEE_DENORMAL
Note: The following floating-point exceptions are signalling: IEEE_UNDERFLOW_FLAG IEEE_DENORMAL
Note: The following floating-point exceptions are signalling: IEEE_UNDERFLOW_FLAG IEEE_DENORMAL
Note: The following floating-point exceptions are signalling: IEEE_UNDERFLOW_FLAG IEEE_DENORMAL
Note: The following floating-point exceptions are signalling: IEEE_UNDERFLOW_FLAG IEEE_DENORMAL
Note: The following floating-point exceptions are signalling: IEEE_UNDERFLOW_FLAG IEEE_DENORMAL
Note: The following floating-point exceptions are signalling: IEEE_UNDERFLOW_FLAG IEEE_DENORMAL
Note: The following floating-point exceptions are signalling: IEEE_UNDERFLOW_FLAG IEEE_DENORMAL
Note: The following floating-point exceptions are signalling: IEEE_UNDERFLOW_FLAG IEEE_DENORMAL
Note: The following floating-point exceptions are signalling: IEEE_UNDERFLOW_FLAG IEEE_DENORMAL
Note: The following floating-point exceptions are signalling: IEEE_UNDERFLOW_FLAG IEEE_DENORMAL
Note: The following floating-point exceptions are signalling: IEEE_UNDERFLOW_FLAG IEEE_DENORMAL
Note: The following floating-point exceptions are signalling: IEEE_UNDERFLOW_FLAG IEEE_DENORMAL
Note: The following floating-point exceptions are signalling: IEEE_UNDERFLOW_FLAG IEEE_DENORMAL
