
     Program PWSCF v.7.0 starts on  2Sep2025 at  2:20:13 

     This program is part of the open-source Quantum ESPRESSO suite
     for quantum simulation of materials; please cite
         "P. Giannozzi et al., J. Phys.:Condens. Matter 21 395502 (2009);
         "P. Giannozzi et al., J. Phys.:Condens. Matter 29 465901 (2017);
         "P. Giannozzi et al., J. Chem. Phys. 152 154105 (2020);
          URL http://www.quantum-espresso.org", 
     in publications or presentations arising from this work. More details at
     http://www.quantum-espresso.org/quote

     Parallel version (MPI & OpenMP), running on      64 processor cores
     Number of MPI processes:                64
     Threads/MPI process:                     1

     MPI processes distributed on     1 nodes
     K-points division:     npool     =      16
     R & G space division:  proc/nbgrp/npool/nimage =       4
     107670 MiB available memory on the printing compute node when the environment starts

     Reading input from /home/jvc/QEspresso7.2/ZnO_database/scripts/cell321.in/ZnO-3.01-1.65-321.in
Warning: card &CELL ignored
Warning: card / ignored
Warning: card &FCP ignored
Warning: card / ignored
Warning: card &RISM ignored
Warning: card / ignored

     Current dimensions of program PWSCF are:
     Max number of different atomic species (ntypx) = 10
     Max number of k-points (npk) =  40000
     Max angular momentum in pseudopotentials (lmaxx) =  4
     file Zn.upf: wavefunction(s)  3D renormalized
     Found identity + ( -0.0000 -0.5000  0.0000) symmetry
     This is a supercell, fractional translations are disabled

     Subspace diagonalization in iterative solution of the eigenvalue problem:
     one sub-group per band group will be used
     scalapack distributed-memory algorithm (size of sub-group:  2*  2 procs)


     Parallelization info
     --------------------
     sticks:   dense  smooth     PW     G-vecs:    dense   smooth      PW
     Min        1337     667    193                53076    18759    2967
     Max        1338     668    195                53077    18762    2968
     Sum        5349    2671    775               212307    75041   11869

     Using Slab Decomposition



     bravais-lattice index     =            0
     lattice parameter (alat)  =      17.0536  a.u.
     unit-cell volume          =    1571.6986 (a.u.)^3
     number of atoms/cell      =           24
     number of atomic types    =            2
     number of electrons       =       216.00
     number of Kohn-Sham states=          108
     kinetic-energy cutoff     =      50.0000  Ry
     charge density cutoff     =     400.0000  Ry
     scf convergence threshold =      1.0E-08
     mixing beta               =       0.3000
     number of iterations used =            8  plain     mixing
     Exchange-correlation= PBE
                           (   1   4   3   4   0   0   0)

     celldm(1)=  17.053637  celldm(2)=   0.000000  celldm(3)=   0.000000
     celldm(4)=   0.000000  celldm(5)=   0.000000  celldm(6)=   0.000000

     crystal axes: (cart. coord. in units of alat)
               a(1) = (   1.000000   0.000000   0.000000 )  
               a(2) = (  -0.333333   0.577350   0.000000 )  
               a(3) = (   0.000000   0.000000   0.548882 )  

     reciprocal axes: (cart. coord. in units 2 pi/alat)
               b(1) = (  1.000000  0.577350 -0.000000 )  
               b(2) = (  0.000000  1.732051  0.000000 )  
               b(3) = (  0.000000 -0.000000  1.821886 )  


     PseudoPot. # 1 for Zn read from file:
     /home/jvc/QEspresso7.2/ZnO_database/pseudos/Zn.upf
     MD5 check sum: 7f56cabf9682ed8c977c2f7d0c5985c5
     Pseudo is Ultrasoft + core correction, Zval = 12.0
     Generated using &quot;atomic&quot; code by A. Dal Corso  v.6.2.2
     Using radial grid of 1201 points,  6 beta functions with: 
                l(1) =   0
                l(2) =   0
                l(3) =   1
                l(4) =   1
                l(5) =   2
                l(6) =   2
     Q(r) pseudized with 0 coefficients 


     PseudoPot. # 2 for O  read from file:
     /home/jvc/QEspresso7.2/ZnO_database/pseudos/O.upf
     MD5 check sum: 91400c9766925bcf19f520983a725ff0
     Pseudo is Ultrasoft + core correction, Zval =  6.0
     Generated using &quot;atomic&quot; code by A. Dal Corso  v.6.3MaX
     Using radial grid of 1095 points,  4 beta functions with: 
                l(1) =   0
                l(2) =   0
                l(3) =   1
                l(4) =   1
     Q(r) pseudized with 0 coefficients 


     atomic species   valence    mass     pseudopotential
        Zn            12.00    65.38000     Zn( 1.00)
        O              6.00    15.99900     O ( 1.00)

     No symmetry found


                                    s                        frac. trans.

      isym =  1     identity                                     

 cryst.   s( 1) = (     1          0          0      )
                  (     0          1          0      )
                  (     0          0          1      )

 cart.    s( 1) = (  1.0000000  0.0000000  0.0000000 )
                  (  0.0000000  1.0000000  0.0000000 )
                  (  0.0000000  0.0000000  1.0000000 )


   Cartesian axes

     site n.     atom                  positions (alat units)
         1           Zn  tau(   1) = (   0.1666667   0.0962250   0.2747887  )
         2           Zn  tau(   2) = (   0.0000000   0.1924501   0.0003478  )
         3           O   tau(   3) = (   0.1666667   0.0962250   0.4828384  )
         4           O   tau(   4) = (   0.0000000   0.1924501   0.2083975  )
         5           Zn  tau(   5) = (   0.0000000   0.3849002   0.2747887  )
         6           Zn  tau(   6) = (  -0.1666667   0.4811252   0.0003478  )
         7           O   tau(   7) = (   0.0000000   0.3849002   0.4828384  )
         8           O   tau(   8) = (  -0.1666667   0.4811252   0.2083975  )
         9           Zn  tau(   9) = (   0.5000000   0.0962250   0.2747887  )
        10           Zn  tau(  10) = (   0.3333333   0.1924501   0.0003478  )
        11           O   tau(  11) = (   0.5000000   0.0962250   0.4828384  )
        12           O   tau(  12) = (   0.3333333   0.1924501   0.2083975  )
        13           Zn  tau(  13) = (   0.3333333   0.3849002   0.2747887  )
        14           Zn  tau(  14) = (   0.1666667   0.4811252   0.0003478  )
        15           O   tau(  15) = (   0.3333333   0.3849002   0.4828384  )
        16           O   tau(  16) = (   0.1666667   0.4811252   0.2083975  )
        17           Zn  tau(  17) = (   0.8333333   0.0962250   0.2747887  )
        18           Zn  tau(  18) = (   0.6666667   0.1924501   0.0003478  )
        19           O   tau(  19) = (   0.8333333   0.0962250   0.4828384  )
        20           O   tau(  20) = (   0.6666667   0.1924501   0.2083975  )
        21           Zn  tau(  21) = (   0.6666667   0.3849002   0.2747887  )
        22           Zn  tau(  22) = (   0.5000000   0.4811252   0.0003478  )
        23           O   tau(  23) = (   0.6666667   0.3849002   0.4828384  )
        24           O   tau(  24) = (   0.5000000   0.4811252   0.2083975  )

   Crystallographic axes

     site n.     atom                  positions (cryst. coord.)
         1           Zn  tau(   1) = (  0.2222222  0.1666667  0.5006336  )
         2           Zn  tau(   2) = (  0.1111111  0.3333333  0.0006336  )
         3           O   tau(   3) = (  0.2222222  0.1666667  0.8796764  )
         4           O   tau(   4) = (  0.1111111  0.3333333  0.3796764  )
         5           Zn  tau(   5) = (  0.2222222  0.6666667  0.5006336  )
         6           Zn  tau(   6) = (  0.1111111  0.8333333  0.0006336  )
         7           O   tau(   7) = (  0.2222222  0.6666667  0.8796764  )
         8           O   tau(   8) = (  0.1111111  0.8333333  0.3796764  )
         9           Zn  tau(   9) = (  0.5555556  0.1666667  0.5006336  )
        10           Zn  tau(  10) = (  0.4444444  0.3333333  0.0006336  )
        11           O   tau(  11) = (  0.5555556  0.1666667  0.8796764  )
        12           O   tau(  12) = (  0.4444444  0.3333333  0.3796764  )
        13           Zn  tau(  13) = (  0.5555556  0.6666667  0.5006336  )
        14           Zn  tau(  14) = (  0.4444444  0.8333333  0.0006336  )
        15           O   tau(  15) = (  0.5555556  0.6666667  0.8796764  )
        16           O   tau(  16) = (  0.4444444  0.8333333  0.3796764  )
        17           Zn  tau(  17) = (  0.8888889  0.1666667  0.5006336  )
        18           Zn  tau(  18) = (  0.7777778  0.3333333  0.0006336  )
        19           O   tau(  19) = (  0.8888889  0.1666667  0.8796764  )
        20           O   tau(  20) = (  0.7777778  0.3333333  0.3796764  )
        21           Zn  tau(  21) = (  0.8888889  0.6666667  0.5006336  )
        22           Zn  tau(  22) = (  0.7777778  0.8333333  0.0006336  )
        23           O   tau(  23) = (  0.8888889  0.6666667  0.8796764  )
        24           O   tau(  24) = (  0.7777778  0.8333333  0.3796764  )

     number of k points=   112
                       cart. coord. in units 2pi/alat
        k(    1) = (   0.0000000   0.0000000   0.0000000), wk =   0.0092593
        k(    2) = (   0.0000000   0.0000000   0.3036476), wk =   0.0185185
        k(    3) = (   0.0000000   0.0000000   0.6072952), wk =   0.0185185
        k(    4) = (   0.0000000   0.0000000  -0.9109429), wk =   0.0092593
        k(    5) = (   0.0000000   0.2886751   0.0000000), wk =   0.0185185
        k(    6) = (   0.0000000   0.2886751   0.3036476), wk =   0.0185185
        k(    7) = (   0.0000000   0.2886751   0.6072952), wk =   0.0185185
        k(    8) = (   0.0000000   0.2886751  -0.9109429), wk =   0.0185185
        k(    9) = (   0.0000000   0.5773503   0.0000000), wk =   0.0185185
        k(   10) = (   0.0000000   0.5773503   0.3036476), wk =   0.0185185
        k(   11) = (   0.0000000   0.5773503   0.6072952), wk =   0.0185185
        k(   12) = (   0.0000000   0.5773503  -0.9109429), wk =   0.0185185
        k(   13) = (   0.0000000  -0.8660254   0.0000000), wk =   0.0092593
        k(   14) = (   0.0000000  -0.8660254   0.3036476), wk =   0.0185185
        k(   15) = (   0.0000000  -0.8660254   0.6072952), wk =   0.0185185
        k(   16) = (   0.0000000  -0.8660254  -0.9109429), wk =   0.0092593
        k(   17) = (   0.1666667   0.0962250   0.0000000), wk =   0.0185185
        k(   18) = (   0.1666667   0.0962250   0.3036476), wk =   0.0185185
        k(   19) = (   0.1666667   0.0962250   0.6072952), wk =   0.0185185
        k(   20) = (   0.1666667   0.0962250  -0.9109429), wk =   0.0185185
        k(   21) = (   0.1666667   0.3849002   0.0000000), wk =   0.0185185
        k(   22) = (   0.1666667   0.3849002   0.3036476), wk =   0.0185185
        k(   23) = (   0.1666667   0.3849002   0.6072952), wk =   0.0185185
        k(   24) = (   0.1666667   0.3849002  -0.9109429), wk =   0.0185185
        k(   25) = (   0.1666667   0.6735753   0.0000000), wk =   0.0185185
        k(   26) = (   0.1666667   0.6735753   0.3036476), wk =   0.0185185
        k(   27) = (   0.1666667   0.6735753   0.6072952), wk =   0.0185185
        k(   28) = (   0.1666667   0.6735753  -0.9109429), wk =   0.0185185
        k(   29) = (   0.1666667  -0.7698004   0.0000000), wk =   0.0185185
        k(   30) = (   0.1666667  -0.7698004   0.3036476), wk =   0.0185185
        k(   31) = (   0.1666667  -0.7698004   0.6072952), wk =   0.0185185
        k(   32) = (   0.1666667  -0.7698004  -0.9109429), wk =   0.0185185
        k(   33) = (   0.1666667  -0.4811252   0.0000000), wk =   0.0185185
        k(   34) = (   0.1666667  -0.4811252   0.3036476), wk =   0.0185185
        k(   35) = (   0.1666667  -0.4811252   0.6072952), wk =   0.0185185
        k(   36) = (   0.1666667  -0.4811252  -0.9109429), wk =   0.0185185
        k(   37) = (   0.1666667  -0.1924501   0.0000000), wk =   0.0185185
        k(   38) = (   0.1666667  -0.1924501   0.3036476), wk =   0.0185185
        k(   39) = (   0.1666667  -0.1924501   0.6072952), wk =   0.0185185
        k(   40) = (   0.1666667  -0.1924501  -0.9109429), wk =   0.0185185
        k(   41) = (   0.3333333   0.1924501   0.0000000), wk =   0.0185185
        k(   42) = (   0.3333333   0.1924501   0.3036476), wk =   0.0185185
        k(   43) = (   0.3333333   0.1924501   0.6072952), wk =   0.0185185
        k(   44) = (   0.3333333   0.1924501  -0.9109429), wk =   0.0185185
        k(   45) = (   0.3333333   0.4811252   0.0000000), wk =   0.0185185
        k(   46) = (   0.3333333   0.4811252   0.3036476), wk =   0.0185185
        k(   47) = (   0.3333333   0.4811252   0.6072952), wk =   0.0185185
        k(   48) = (   0.3333333   0.4811252  -0.9109429), wk =   0.0185185
        k(   49) = (   0.3333333   0.7698004   0.0000000), wk =   0.0185185
        k(   50) = (   0.3333333   0.7698004   0.3036476), wk =   0.0185185
        k(   51) = (   0.3333333   0.7698004   0.6072952), wk =   0.0185185
        k(   52) = (   0.3333333   0.7698004  -0.9109429), wk =   0.0185185
        k(   53) = (   0.3333333  -0.6735753   0.0000000), wk =   0.0185185
        k(   54) = (   0.3333333  -0.6735753   0.3036476), wk =   0.0185185
        k(   55) = (   0.3333333  -0.6735753   0.6072952), wk =   0.0185185
        k(   56) = (   0.3333333  -0.6735753  -0.9109429), wk =   0.0185185
        k(   57) = (   0.3333333  -0.3849002   0.0000000), wk =   0.0185185
        k(   58) = (   0.3333333  -0.3849002   0.3036476), wk =   0.0185185
        k(   59) = (   0.3333333  -0.3849002   0.6072952), wk =   0.0185185
        k(   60) = (   0.3333333  -0.3849002  -0.9109429), wk =   0.0185185
        k(   61) = (   0.3333333  -0.0962250   0.0000000), wk =   0.0185185
        k(   62) = (   0.3333333  -0.0962250   0.3036476), wk =   0.0185185
        k(   63) = (   0.3333333  -0.0962250   0.6072952), wk =   0.0185185
        k(   64) = (   0.3333333  -0.0962250  -0.9109429), wk =   0.0185185
        k(   65) = (  -0.5000000  -0.2886751   0.0000000), wk =   0.0092593
        k(   66) = (  -0.5000000  -0.2886751   0.3036476), wk =   0.0185185
        k(   67) = (  -0.5000000  -0.2886751   0.6072952), wk =   0.0185185
        k(   68) = (  -0.5000000  -0.2886751  -0.9109429), wk =   0.0092593
        k(   69) = (  -0.5000000   0.0000000   0.0000000), wk =   0.0185185
        k(   70) = (  -0.5000000   0.0000000   0.3036476), wk =   0.0185185
        k(   71) = (  -0.5000000   0.0000000   0.6072952), wk =   0.0185185
        k(   72) = (  -0.5000000   0.0000000  -0.9109429), wk =   0.0185185
        k(   73) = (  -0.5000000   0.2886751   0.0000000), wk =   0.0185185
        k(   74) = (  -0.5000000   0.2886751   0.3036476), wk =   0.0185185
        k(   75) = (  -0.5000000   0.2886751   0.6072952), wk =   0.0185185
        k(   76) = (  -0.5000000   0.2886751  -0.9109429), wk =   0.0185185
        k(   77) = (  -0.5000000  -1.1547005   0.0000000), wk =   0.0092593
        k(   78) = (  -0.5000000  -1.1547005   0.3036476), wk =   0.0185185
        k(   79) = (  -0.5000000  -1.1547005   0.6072952), wk =   0.0185185
        k(   80) = (  -0.5000000  -1.1547005  -0.9109429), wk =   0.0092593
        k(   81) = (   0.0000000  -0.2886751   0.3036476), wk =   0.0185185
        k(   82) = (   0.0000000  -0.2886751   0.6072952), wk =   0.0185185
        k(   83) = (   0.0000000  -0.5773503   0.3036476), wk =   0.0185185
        k(   84) = (   0.0000000  -0.5773503   0.6072952), wk =   0.0185185
        k(   85) = (  -0.1666667  -0.0962250   0.3036476), wk =   0.0185185
        k(   86) = (  -0.1666667  -0.0962250   0.6072952), wk =   0.0185185
        k(   87) = (  -0.1666667  -0.3849002   0.3036476), wk =   0.0185185
        k(   88) = (  -0.1666667  -0.3849002   0.6072952), wk =   0.0185185
        k(   89) = (  -0.1666667  -0.6735753   0.3036476), wk =   0.0185185
        k(   90) = (  -0.1666667  -0.6735753   0.6072952), wk =   0.0185185
        k(   91) = (  -0.1666667   0.7698004   0.3036476), wk =   0.0185185
        k(   92) = (  -0.1666667   0.7698004   0.6072952), wk =   0.0185185
        k(   93) = (  -0.1666667   0.4811252   0.3036476), wk =   0.0185185
        k(   94) = (  -0.1666667   0.4811252   0.6072952), wk =   0.0185185
        k(   95) = (  -0.1666667   0.1924501   0.3036476), wk =   0.0185185
        k(   96) = (  -0.1666667   0.1924501   0.6072952), wk =   0.0185185
        k(   97) = (  -0.3333333  -0.1924501   0.3036476), wk =   0.0185185
        k(   98) = (  -0.3333333  -0.1924501   0.6072952), wk =   0.0185185
        k(   99) = (  -0.3333333  -0.4811252   0.3036476), wk =   0.0185185
        k(  100) = (  -0.3333333  -0.4811252   0.6072952), wk =   0.0185185
        k(  101) = (  -0.3333333  -0.7698004   0.3036476), wk =   0.0185185
        k(  102) = (  -0.3333333  -0.7698004   0.6072952), wk =   0.0185185
        k(  103) = (  -0.3333333   0.6735753   0.3036476), wk =   0.0185185
        k(  104) = (  -0.3333333   0.6735753   0.6072952), wk =   0.0185185
        k(  105) = (  -0.3333333   0.3849002   0.3036476), wk =   0.0185185
        k(  106) = (  -0.3333333   0.3849002   0.6072952), wk =   0.0185185
        k(  107) = (  -0.3333333   0.0962250   0.3036476), wk =   0.0185185
        k(  108) = (  -0.3333333   0.0962250   0.6072952), wk =   0.0185185
        k(  109) = (   0.5000000   0.0000000   0.3036476), wk =   0.0185185
        k(  110) = (   0.5000000   0.0000000   0.6072952), wk =   0.0185185
        k(  111) = (   0.5000000  -0.2886751   0.3036476), wk =   0.0185185
        k(  112) = (   0.5000000  -0.2886751   0.6072952), wk =   0.0185185

                       cryst. coord.
        k(    1) = (   0.0000000   0.0000000   0.0000000), wk =   0.0092593
        k(    2) = (   0.0000000   0.0000000   0.1666667), wk =   0.0185185
        k(    3) = (   0.0000000   0.0000000   0.3333333), wk =   0.0185185
        k(    4) = (   0.0000000   0.0000000  -0.5000000), wk =   0.0092593
        k(    5) = (   0.0000000   0.1666667   0.0000000), wk =   0.0185185
        k(    6) = (   0.0000000   0.1666667   0.1666667), wk =   0.0185185
        k(    7) = (   0.0000000   0.1666667   0.3333333), wk =   0.0185185
        k(    8) = (   0.0000000   0.1666667  -0.5000000), wk =   0.0185185
        k(    9) = (   0.0000000   0.3333333   0.0000000), wk =   0.0185185
        k(   10) = (   0.0000000   0.3333333   0.1666667), wk =   0.0185185
        k(   11) = (   0.0000000   0.3333333   0.3333333), wk =   0.0185185
        k(   12) = (   0.0000000   0.3333333  -0.5000000), wk =   0.0185185
        k(   13) = (   0.0000000  -0.5000000   0.0000000), wk =   0.0092593
        k(   14) = (   0.0000000  -0.5000000   0.1666667), wk =   0.0185185
        k(   15) = (   0.0000000  -0.5000000   0.3333333), wk =   0.0185185
        k(   16) = (   0.0000000  -0.5000000  -0.5000000), wk =   0.0092593
        k(   17) = (   0.1666667   0.0000000   0.0000000), wk =   0.0185185
        k(   18) = (   0.1666667   0.0000000   0.1666667), wk =   0.0185185
        k(   19) = (   0.1666667   0.0000000   0.3333333), wk =   0.0185185
        k(   20) = (   0.1666667   0.0000000  -0.5000000), wk =   0.0185185
        k(   21) = (   0.1666667   0.1666667   0.0000000), wk =   0.0185185
        k(   22) = (   0.1666667   0.1666667   0.1666667), wk =   0.0185185
        k(   23) = (   0.1666667   0.1666667   0.3333333), wk =   0.0185185
        k(   24) = (   0.1666667   0.1666667  -0.5000000), wk =   0.0185185
        k(   25) = (   0.1666667   0.3333333   0.0000000), wk =   0.0185185
        k(   26) = (   0.1666667   0.3333333   0.1666667), wk =   0.0185185
        k(   27) = (   0.1666667   0.3333333   0.3333333), wk =   0.0185185
        k(   28) = (   0.1666667   0.3333333  -0.5000000), wk =   0.0185185
        k(   29) = (   0.1666667  -0.5000000   0.0000000), wk =   0.0185185
        k(   30) = (   0.1666667  -0.5000000   0.1666667), wk =   0.0185185
        k(   31) = (   0.1666667  -0.5000000   0.3333333), wk =   0.0185185
        k(   32) = (   0.1666667  -0.5000000  -0.5000000), wk =   0.0185185
        k(   33) = (   0.1666667  -0.3333333   0.0000000), wk =   0.0185185
        k(   34) = (   0.1666667  -0.3333333   0.1666667), wk =   0.0185185
        k(   35) = (   0.1666667  -0.3333333   0.3333333), wk =   0.0185185
        k(   36) = (   0.1666667  -0.3333333  -0.5000000), wk =   0.0185185
        k(   37) = (   0.1666667  -0.1666667   0.0000000), wk =   0.0185185
        k(   38) = (   0.1666667  -0.1666667   0.1666667), wk =   0.0185185
        k(   39) = (   0.1666667  -0.1666667   0.3333333), wk =   0.0185185
        k(   40) = (   0.1666667  -0.1666667  -0.5000000), wk =   0.0185185
        k(   41) = (   0.3333333   0.0000000   0.0000000), wk =   0.0185185
        k(   42) = (   0.3333333   0.0000000   0.1666667), wk =   0.0185185
        k(   43) = (   0.3333333   0.0000000   0.3333333), wk =   0.0185185
        k(   44) = (   0.3333333   0.0000000  -0.5000000), wk =   0.0185185
        k(   45) = (   0.3333333   0.1666667   0.0000000), wk =   0.0185185
        k(   46) = (   0.3333333   0.1666667   0.1666667), wk =   0.0185185
        k(   47) = (   0.3333333   0.1666667   0.3333333), wk =   0.0185185
        k(   48) = (   0.3333333   0.1666667  -0.5000000), wk =   0.0185185
        k(   49) = (   0.3333333   0.3333333   0.0000000), wk =   0.0185185
        k(   50) = (   0.3333333   0.3333333   0.1666667), wk =   0.0185185
        k(   51) = (   0.3333333   0.3333333   0.3333333), wk =   0.0185185
        k(   52) = (   0.3333333   0.3333333  -0.5000000), wk =   0.0185185
        k(   53) = (   0.3333333  -0.5000000   0.0000000), wk =   0.0185185
        k(   54) = (   0.3333333  -0.5000000   0.1666667), wk =   0.0185185
        k(   55) = (   0.3333333  -0.5000000   0.3333333), wk =   0.0185185
        k(   56) = (   0.3333333  -0.5000000  -0.5000000), wk =   0.0185185
        k(   57) = (   0.3333333  -0.3333333   0.0000000), wk =   0.0185185
        k(   58) = (   0.3333333  -0.3333333   0.1666667), wk =   0.0185185
        k(   59) = (   0.3333333  -0.3333333   0.3333333), wk =   0.0185185
        k(   60) = (   0.3333333  -0.3333333  -0.5000000), wk =   0.0185185
        k(   61) = (   0.3333333  -0.1666667   0.0000000), wk =   0.0185185
        k(   62) = (   0.3333333  -0.1666667   0.1666667), wk =   0.0185185
        k(   63) = (   0.3333333  -0.1666667   0.3333333), wk =   0.0185185
        k(   64) = (   0.3333333  -0.1666667  -0.5000000), wk =   0.0185185
        k(   65) = (  -0.5000000  -0.0000000   0.0000000), wk =   0.0092593
        k(   66) = (  -0.5000000  -0.0000000   0.1666667), wk =   0.0185185
        k(   67) = (  -0.5000000  -0.0000000   0.3333333), wk =   0.0185185
        k(   68) = (  -0.5000000  -0.0000000  -0.5000000), wk =   0.0092593
        k(   69) = (  -0.5000000   0.1666667   0.0000000), wk =   0.0185185
        k(   70) = (  -0.5000000   0.1666667   0.1666667), wk =   0.0185185
        k(   71) = (  -0.5000000   0.1666667   0.3333333), wk =   0.0185185
        k(   72) = (  -0.5000000   0.1666667  -0.5000000), wk =   0.0185185
        k(   73) = (  -0.5000000   0.3333333   0.0000000), wk =   0.0185185
        k(   74) = (  -0.5000000   0.3333333   0.1666667), wk =   0.0185185
        k(   75) = (  -0.5000000   0.3333333   0.3333333), wk =   0.0185185
        k(   76) = (  -0.5000000   0.3333333  -0.5000000), wk =   0.0185185
        k(   77) = (  -0.5000000  -0.5000000   0.0000000), wk =   0.0092593
        k(   78) = (  -0.5000000  -0.5000000   0.1666667), wk =   0.0185185
        k(   79) = (  -0.5000000  -0.5000000   0.3333333), wk =   0.0185185
        k(   80) = (  -0.5000000  -0.5000000  -0.5000000), wk =   0.0092593
        k(   81) = (   0.0000000  -0.1666667   0.1666667), wk =   0.0185185
        k(   82) = (   0.0000000  -0.1666667   0.3333333), wk =   0.0185185
        k(   83) = (   0.0000000  -0.3333333   0.1666667), wk =   0.0185185
        k(   84) = (   0.0000000  -0.3333333   0.3333333), wk =   0.0185185
        k(   85) = (  -0.1666667   0.0000000   0.1666667), wk =   0.0185185
        k(   86) = (  -0.1666667   0.0000000   0.3333333), wk =   0.0185185
        k(   87) = (  -0.1666667  -0.1666667   0.1666667), wk =   0.0185185
        k(   88) = (  -0.1666667  -0.1666667   0.3333333), wk =   0.0185185
        k(   89) = (  -0.1666667  -0.3333333   0.1666667), wk =   0.0185185
        k(   90) = (  -0.1666667  -0.3333333   0.3333333), wk =   0.0185185
        k(   91) = (  -0.1666667   0.5000000   0.1666667), wk =   0.0185185
        k(   92) = (  -0.1666667   0.5000000   0.3333333), wk =   0.0185185
        k(   93) = (  -0.1666667   0.3333333   0.1666667), wk =   0.0185185
        k(   94) = (  -0.1666667   0.3333333   0.3333333), wk =   0.0185185
        k(   95) = (  -0.1666667   0.1666667   0.1666667), wk =   0.0185185
        k(   96) = (  -0.1666667   0.1666667   0.3333333), wk =   0.0185185
        k(   97) = (  -0.3333333   0.0000000   0.1666667), wk =   0.0185185
        k(   98) = (  -0.3333333   0.0000000   0.3333333), wk =   0.0185185
        k(   99) = (  -0.3333333  -0.1666667   0.1666667), wk =   0.0185185
        k(  100) = (  -0.3333333  -0.1666667   0.3333333), wk =   0.0185185
        k(  101) = (  -0.3333333  -0.3333333   0.1666667), wk =   0.0185185
        k(  102) = (  -0.3333333  -0.3333333   0.3333333), wk =   0.0185185
        k(  103) = (  -0.3333333   0.5000000   0.1666667), wk =   0.0185185
        k(  104) = (  -0.3333333   0.5000000   0.3333333), wk =   0.0185185
        k(  105) = (  -0.3333333   0.3333333   0.1666667), wk =   0.0185185
        k(  106) = (  -0.3333333   0.3333333   0.3333333), wk =   0.0185185
        k(  107) = (  -0.3333333   0.1666667   0.1666667), wk =   0.0185185
        k(  108) = (  -0.3333333   0.1666667   0.3333333), wk =   0.0185185
        k(  109) = (   0.5000000  -0.1666667   0.1666667), wk =   0.0185185
        k(  110) = (   0.5000000  -0.1666667   0.3333333), wk =   0.0185185
        k(  111) = (   0.5000000  -0.3333333   0.1666667), wk =   0.0185185
        k(  112) = (   0.5000000  -0.3333333   0.3333333), wk =   0.0185185

     Dense  grid:   212307 G-vectors     FFT dimensions: ( 120,  75,  60)

     Smooth grid:    75041 G-vectors     FFT dimensions: (  80,  54,  45)

     Dynamical RAM for                 wfc:       3.87 MB

     Dynamical RAM for     wfc (w. buffer):      30.93 MB

     Dynamical RAM for           str. fact:       1.62 MB

     Dynamical RAM for           local pot:       0.00 MB

     Dynamical RAM for          nlocal pot:      11.17 MB

     Dynamical RAM for                qrad:       3.21 MB

     Dynamical RAM for          rho,v,vnew:       5.52 MB

     Dynamical RAM for               rhoin:       1.84 MB

     Dynamical RAM for            rho*nmix:      12.96 MB

     Dynamical RAM for           G-vectors:       3.18 MB

     Dynamical RAM for          h,s,v(r/c):       0.53 MB

     Dynamical RAM for          <psi|beta>:       0.51 MB

     Dynamical RAM for                 psi:       7.73 MB

     Dynamical RAM for                hpsi:       7.73 MB

     Dynamical RAM for                spsi:       7.73 MB

     Dynamical RAM for      wfcinit/wfcrot:      11.73 MB

     Dynamical RAM for           addusdens:      10.78 MB

     Dynamical RAM for          addusforce:      11.59 MB

     Estimated static dynamical RAM per process >      65.05 MB

     Estimated max dynamical RAM per process >     102.25 MB

     Estimated total dynamical RAM >       5.63 GB

     Check: negative core charge=   -0.000001

     Initial potential from superposition of free atoms

     starting charge     215.9553, renormalised to     216.0000
     Starting wfcs are  156 randomized atomic wfcs

     total cpu time spent up to now is       20.0 secs

     per-process dynamical memory:    88.2 Mb

     Self-consistent Calculation

     iteration #  1     ecut=    50.00 Ry     beta= 0.30
     Davidson diagonalization with overlap

---- Real-time Memory Report at c_bands before calling an iterative solver
           116 MiB given to the printing process from OS
            86 MiB allocation reported by mallinfo(arena+hblkhd)
        102240 MiB available memory on the node where the printing process lives
------------------
     ethr =  1.00E-02,  avg # of iterations =  2.0

     total cpu time spent up to now is       44.7 secs

     total energy              =   -2168.39168984 Ry
     estimated scf accuracy    <       4.05090132 Ry

     iteration #  2     ecut=    50.00 Ry     beta= 0.30
     Davidson diagonalization with overlap

---- Real-time Memory Report at c_bands before calling an iterative solver
           135 MiB given to the printing process from OS
            99 MiB allocation reported by mallinfo(arena+hblkhd)
        101563 MiB available memory on the node where the printing process lives
------------------
     ethr =  1.88E-03,  avg # of iterations =  2.0

     total cpu time spent up to now is       73.5 secs

     total energy              =   -2168.64070650 Ry
     estimated scf accuracy    <       0.80323537 Ry

     iteration #  3     ecut=    50.00 Ry     beta= 0.30
     Davidson diagonalization with overlap

---- Real-time Memory Report at c_bands before calling an iterative solver
           138 MiB given to the printing process from OS
            99 MiB allocation reported by mallinfo(arena+hblkhd)
        101591 MiB available memory on the node where the printing process lives
------------------
     ethr =  3.72E-04,  avg # of iterations =  6.9

     total cpu time spent up to now is      124.0 secs

     total energy              =   -2169.13135646 Ry
     estimated scf accuracy    <       0.57787740 Ry

     iteration #  4     ecut=    50.00 Ry     beta= 0.30
     Davidson diagonalization with overlap

---- Real-time Memory Report at c_bands before calling an iterative solver
           139 MiB given to the printing process from OS
           100 MiB allocation reported by mallinfo(arena+hblkhd)
        101543 MiB available memory on the node where the printing process lives
------------------
     ethr =  2.68E-04,  avg # of iterations =  2.0

     total cpu time spent up to now is      148.2 secs

     total energy              =   -2169.10827507 Ry
     estimated scf accuracy    <       0.16093686 Ry

     iteration #  5     ecut=    50.00 Ry     beta= 0.30
     Davidson diagonalization with overlap

---- Real-time Memory Report at c_bands before calling an iterative solver
           140 MiB given to the printing process from OS
           101 MiB allocation reported by mallinfo(arena+hblkhd)
        101601 MiB available memory on the node where the printing process lives
------------------
     ethr =  7.45E-05,  avg # of iterations = 10.8

     total cpu time spent up to now is      221.6 secs

     total energy              =   -2169.49856797 Ry
     estimated scf accuracy    <       2.94552911 Ry

     iteration #  6     ecut=    50.00 Ry     beta= 0.30
     Davidson diagonalization with overlap

---- Real-time Memory Report at c_bands before calling an iterative solver
           140 MiB given to the printing process from OS
           101 MiB allocation reported by mallinfo(arena+hblkhd)
        101526 MiB available memory on the node where the printing process lives
------------------
     ethr =  7.45E-05,  avg # of iterations =  5.4

     total cpu time spent up to now is      258.9 secs

     total energy              =   -2169.01001760 Ry
     estimated scf accuracy    <       1.50432922 Ry

     iteration #  7     ecut=    50.00 Ry     beta= 0.30
     Davidson diagonalization with overlap

---- Real-time Memory Report at c_bands before calling an iterative solver
           141 MiB given to the printing process from OS
           102 MiB allocation reported by mallinfo(arena+hblkhd)
        101577 MiB available memory on the node where the printing process lives
------------------
     ethr =  7.45E-05,  avg # of iterations =  7.8

     total cpu time spent up to now is      312.4 secs

     total energy              =   -2169.16132396 Ry
     estimated scf accuracy    <       0.07746340 Ry

     iteration #  8     ecut=    50.00 Ry     beta= 0.30
     Davidson diagonalization with overlap

---- Real-time Memory Report at c_bands before calling an iterative solver
           141 MiB given to the printing process from OS
           102 MiB allocation reported by mallinfo(arena+hblkhd)
        101545 MiB available memory on the node where the printing process lives
------------------
     ethr =  3.59E-05,  avg # of iterations =  6.9

     total cpu time spent up to now is      357.7 secs

     total energy              =   -2169.20459020 Ry
     estimated scf accuracy    <       0.02165610 Ry

     iteration #  9     ecut=    50.00 Ry     beta= 0.30
     Davidson diagonalization with overlap

---- Real-time Memory Report at c_bands before calling an iterative solver
           142 MiB given to the printing process from OS
           103 MiB allocation reported by mallinfo(arena+hblkhd)
        101555 MiB available memory on the node where the printing process lives
------------------
     ethr =  1.00E-05,  avg # of iterations =  4.0

     total cpu time spent up to now is      393.2 secs

     total energy              =   -2169.19455387 Ry
     estimated scf accuracy    <       0.03144193 Ry

     iteration # 10     ecut=    50.00 Ry     beta= 0.30
     Davidson diagonalization with overlap

---- Real-time Memory Report at c_bands before calling an iterative solver
           143 MiB given to the printing process from OS
           103 MiB allocation reported by mallinfo(arena+hblkhd)
        101578 MiB available memory on the node where the printing process lives
------------------
     ethr =  1.00E-05,  avg # of iterations =  2.0

     total cpu time spent up to now is      417.6 secs

     total energy              =   -2169.19212050 Ry
     estimated scf accuracy    <       0.00915348 Ry

     iteration # 11     ecut=    50.00 Ry     beta= 0.30
     Davidson diagonalization with overlap

---- Real-time Memory Report at c_bands before calling an iterative solver
           143 MiB given to the printing process from OS
           103 MiB allocation reported by mallinfo(arena+hblkhd)
        101573 MiB available memory on the node where the printing process lives
------------------
     ethr =  4.24E-06,  avg # of iterations =  6.3

     total cpu time spent up to now is      458.8 secs

     total energy              =   -2169.19746874 Ry
     estimated scf accuracy    <       0.00112937 Ry

     iteration # 12     ecut=    50.00 Ry     beta= 0.30
     Davidson diagonalization with overlap

---- Real-time Memory Report at c_bands before calling an iterative solver
           143 MiB given to the printing process from OS
           103 MiB allocation reported by mallinfo(arena+hblkhd)
        101537 MiB available memory on the node where the printing process lives
------------------
     ethr =  5.23E-07,  avg # of iterations =  4.2

     total cpu time spent up to now is      503.3 secs

     total energy              =   -2169.19766465 Ry
     estimated scf accuracy    <       0.00049381 Ry

     iteration # 13     ecut=    50.00 Ry     beta= 0.30
     Davidson diagonalization with overlap

---- Real-time Memory Report at c_bands before calling an iterative solver
           143 MiB given to the printing process from OS
           103 MiB allocation reported by mallinfo(arena+hblkhd)
        101532 MiB available memory on the node where the printing process lives
------------------
     ethr =  2.29E-07,  avg # of iterations =  2.0

     total cpu time spent up to now is      528.4 secs

     total energy              =   -2169.19770795 Ry
     estimated scf accuracy    <       0.00030870 Ry

     iteration # 14     ecut=    50.00 Ry     beta= 0.30
     Davidson diagonalization with overlap

---- Real-time Memory Report at c_bands before calling an iterative solver
           143 MiB given to the printing process from OS
           103 MiB allocation reported by mallinfo(arena+hblkhd)
        101614 MiB available memory on the node where the printing process lives
------------------
     ethr =  1.43E-07,  avg # of iterations =  1.7

     total cpu time spent up to now is      551.6 secs

     total energy              =   -2169.19766691 Ry
     estimated scf accuracy    <       0.00029580 Ry

     iteration # 15     ecut=    50.00 Ry     beta= 0.30
     Davidson diagonalization with overlap

---- Real-time Memory Report at c_bands before calling an iterative solver
           143 MiB given to the printing process from OS
           103 MiB allocation reported by mallinfo(arena+hblkhd)
        101579 MiB available memory on the node where the printing process lives
------------------
     ethr =  1.37E-07,  avg # of iterations =  1.8

     total cpu time spent up to now is      575.6 secs

     total energy              =   -2169.19763811 Ry
     estimated scf accuracy    <       0.00015791 Ry

     iteration # 16     ecut=    50.00 Ry     beta= 0.30
     Davidson diagonalization with overlap

---- Real-time Memory Report at c_bands before calling an iterative solver
           143 MiB given to the printing process from OS
           103 MiB allocation reported by mallinfo(arena+hblkhd)
        101568 MiB available memory on the node where the printing process lives
------------------
     ethr =  7.31E-08,  avg # of iterations =  4.4

     total cpu time spent up to now is      608.0 secs

     total energy              =   -2169.19766345 Ry
     estimated scf accuracy    <       0.00001822 Ry

     iteration # 17     ecut=    50.00 Ry     beta= 0.30
     Davidson diagonalization with overlap

---- Real-time Memory Report at c_bands before calling an iterative solver
           143 MiB given to the printing process from OS
           103 MiB allocation reported by mallinfo(arena+hblkhd)
        101549 MiB available memory on the node where the printing process lives
------------------
     ethr =  8.44E-09,  avg # of iterations =  6.2

     total cpu time spent up to now is      656.3 secs

     total energy              =   -2169.19767767 Ry
     estimated scf accuracy    <       0.00000135 Ry

     iteration # 18     ecut=    50.00 Ry     beta= 0.30
     Davidson diagonalization with overlap

---- Real-time Memory Report at c_bands before calling an iterative solver
           143 MiB given to the printing process from OS
           103 MiB allocation reported by mallinfo(arena+hblkhd)
        101545 MiB available memory on the node where the printing process lives
------------------
     ethr =  6.26E-10,  avg # of iterations =  7.2

     total cpu time spent up to now is      705.7 secs

     total energy              =   -2169.19767817 Ry
     estimated scf accuracy    <       0.00000669 Ry

     iteration # 19     ecut=    50.00 Ry     beta= 0.30
     Davidson diagonalization with overlap

---- Real-time Memory Report at c_bands before calling an iterative solver
           143 MiB given to the printing process from OS
           103 MiB allocation reported by mallinfo(arena+hblkhd)
        101540 MiB available memory on the node where the printing process lives
------------------
     ethr =  6.26E-10,  avg # of iterations =  1.1

     total cpu time spent up to now is      727.7 secs

     total energy              =   -2169.19767522 Ry
     estimated scf accuracy    <       0.00000569 Ry

     iteration # 20     ecut=    50.00 Ry     beta= 0.30
     Davidson diagonalization with overlap

---- Real-time Memory Report at c_bands before calling an iterative solver
           143 MiB given to the printing process from OS
           103 MiB allocation reported by mallinfo(arena+hblkhd)
        101577 MiB available memory on the node where the printing process lives
------------------
     ethr =  6.26E-10,  avg # of iterations =  8.1

     total cpu time spent up to now is      782.9 secs

     total energy              =   -2169.19767709 Ry
     estimated scf accuracy    <       0.00000011 Ry

     iteration # 21     ecut=    50.00 Ry     beta= 0.30
     Davidson diagonalization with overlap

---- Real-time Memory Report at c_bands before calling an iterative solver
           144 MiB given to the printing process from OS
           103 MiB allocation reported by mallinfo(arena+hblkhd)
        101518 MiB available memory on the node where the printing process lives
------------------
     ethr =  4.92E-11,  avg # of iterations = 10.5

     total cpu time spent up to now is      855.6 secs

     total energy              =   -2169.19767619 Ry
     estimated scf accuracy    <       0.00000279 Ry

     iteration # 22     ecut=    50.00 Ry     beta= 0.30
     Davidson diagonalization with overlap

---- Real-time Memory Report at c_bands before calling an iterative solver
           144 MiB given to the printing process from OS
           103 MiB allocation reported by mallinfo(arena+hblkhd)
        101506 MiB available memory on the node where the printing process lives
------------------
     ethr =  4.92E-11,  avg # of iterations = 10.8

     total cpu time spent up to now is      930.4 secs

     End of self-consistent calculation

          k = 0.0000 0.0000 0.0000 (  9361 PWs)   bands (ev):

    -9.2657  -8.5424  -8.5424  -8.2352  -8.2352  -8.2286  -8.2202  -7.9444
    -7.9444  -7.9055  -7.8987  -7.8987   3.1331   3.1331   3.2237   3.2519
     3.2856   3.3703   3.3703   3.6118   3.6118   3.6121   3.6121   3.7527
     3.7528   3.8286   4.0029   4.0029   4.0577   4.0577   4.0577   4.0577
     4.1215   4.1880   4.1880   4.3038   4.3038   4.4094   4.5016   4.5016
     4.5664   4.5664   4.6634   4.7075   4.7075   4.8042   4.8042   4.8255
     5.4478   5.4478   5.5515   5.5515   5.6710   5.6710   5.6823   5.6926
     5.6926   5.7807   5.7807   5.9398   5.9841   5.9841   6.0151   6.0151
     6.0337   6.0337   6.0638   6.0784   6.0784   6.1565   6.1565   6.1667
     6.3836   6.3873   6.4565   6.4565   6.5434   6.5434   6.6868   7.0034
     7.0034   7.0305   7.0305   7.1691   7.1691   7.3098   7.6968   7.6968
     7.8602   8.2579   8.2579   8.4064   8.4064   9.0046   9.0046   9.0876
     9.3087   9.3087   9.6169   9.6332   9.6332   9.7856   9.7856   9.9451
     9.9451  10.5445  10.7812  10.7812

     occupation numbers 
     1.0000   1.0000   1.0000   1.0000   1.0000   1.0000   1.0000   1.0000
     1.0000   1.0000   1.0000   1.0000   1.0000   1.0000   1.0000   1.0000
     1.0000   1.0000   1.0000   1.0000   1.0000   1.0000   1.0000   1.0000
     1.0000   1.0000   1.0000   1.0000   1.0000   1.0000   1.0000   1.0000
     1.0000   1.0000   1.0000   1.0000   1.0000   1.0000   1.0000   1.0000
     1.0000   1.0000   1.0000   1.0000   1.0000   1.0000   1.0000   1.0000
     1.0000   1.0000   1.0000   1.0000   1.0000   1.0000   1.0000   1.0000
     1.0000   1.0000   1.0000   1.0000   1.0000   1.0000   1.0000   1.0000
     1.0000   1.0000   1.0000   1.0000   1.0000   1.0000   1.0000   1.0000
     1.0000   1.0000   1.0000   1.0000   1.0000   1.0000   1.0000   1.0000
     1.0000   1.0000   1.0000   1.0000   1.0000   1.0000   1.0000   1.0000
     1.0000   1.0000   1.0000   1.0000   1.0000   1.0000   1.0000   1.0000
     1.0000   1.0000   1.0000   1.0000   1.0000   1.0000   1.0000   1.0000
     1.0000   1.0000   1.0000   1.0000

          k = 0.0000 0.0000 0.3036 (  9385 PWs)   bands (ev):

    -9.2014  -8.5013  -8.5013  -8.3038  -8.2093  -8.2093  -8.1957  -7.9828
    -7.9828  -7.9226  -7.9175  -7.9175   3.0883   3.0883   3.1756   3.1842
     3.1982   3.3092   3.3092   3.4406   3.4406   3.4972   3.4972   3.7430
     3.7622   3.7622   3.9782   3.9782   4.0441   4.0441   4.0836   4.0836
     4.1569   4.1843   4.1843   4.2629   4.2629   4.3898   4.4347   4.4347
     4.5216   4.5216   4.6142   4.6410   4.6410   4.7358   4.7358   4.7613
     5.5280   5.5280   5.5946   5.5946   5.6985   5.6985   5.7754   5.7960
     5.7960   5.8280   5.8280   5.9438   5.9707   5.9707   6.0128   6.0128
     6.0443   6.0699   6.0699   6.0963   6.0963   6.1662   6.2641   6.2641
     6.3911   6.3911   6.4060   6.6158   6.6672   6.7175   6.7175   7.0761
     7.0761   7.1675   7.1675   7.2927   7.2927   7.6181   7.8355   7.8355
     8.0024   8.1821   8.1821   8.5212   8.5212   8.9876   8.9876   9.1571
     9.2798   9.2798   9.5111   9.6373   9.6374   9.8486   9.8486   9.8521
     9.8521  10.0200  10.7149  10.7149

     occupation numbers 
     1.0000   1.0000   1.0000   1.0000   1.0000   1.0000   1.0000   1.0000
     1.0000   1.0000   1.0000   1.0000   1.0000   1.0000   1.0000   1.0000
     1.0000   1.0000   1.0000   1.0000   1.0000   1.0000   1.0000   1.0000
     1.0000   1.0000   1.0000   1.0000   1.0000   1.0000   1.0000   1.0000
     1.0000   1.0000   1.0000   1.0000   1.0000   1.0000   1.0000   1.0000
     1.0000   1.0000   1.0000   1.0000   1.0000   1.0000   1.0000   1.0000
     1.0000   1.0000   1.0000   1.0000   1.0000   1.0000   1.0000   1.0000
     1.0000   1.0000   1.0000   1.0000   1.0000   1.0000   1.0000   1.0000
     1.0000   1.0000   1.0000   1.0000   1.0000   1.0000   1.0000   1.0000
     1.0000   1.0000   1.0000   1.0000   1.0000   1.0000   1.0000   1.0000
     1.0000   1.0000   1.0000   1.0000   1.0000   1.0000   1.0000   1.0000
     1.0000   1.0000   1.0000   1.0000   1.0000   1.0000   1.0000   1.0000
     1.0000   1.0000   1.0000   1.0000   1.0000   1.0000   1.0000   1.0000
     1.0000   1.0000   1.0000   1.0000

          k = 0.0000 0.0000 0.6073 (  9361 PWs)   bands (ev):

    -9.0223  -8.5047  -8.3895  -8.3895  -8.1409  -8.1409  -8.1308  -8.0894
    -8.0894  -7.9726  -7.9718  -7.9718   3.0054   3.0054   3.0059   3.0208
     3.1596   3.1596   3.1858   3.1858   3.2019   3.2698   3.2698   3.5360
     3.7935   3.7935   3.9172   3.9172   4.0618   4.0618   4.1592   4.1592
     4.1908   4.1908   4.1981   4.1981   4.2598   4.3257   4.3257   4.3873
     4.4091   4.4091   4.5170   4.5661   4.5661   4.6028   4.6192   4.6192
     5.6965   5.6965   5.7334   5.7334   5.7707   5.7707   5.8380   5.8380
     5.8897   5.8897   5.9289   5.9289   5.9358   5.9556   5.9608   5.9608
     6.0071   6.0356   6.0356   6.0761   6.0761   6.1392   6.2534   6.2534
     6.4459   6.5371   6.5406   6.5406   6.9863   6.9863   7.1070   7.1070
     7.3772   7.4775   7.4775   7.7190   7.7190   8.2388   8.2388   8.2630
     8.2630   8.2690   8.3597   8.7753   8.7753   8.8216   8.8216   9.1738
     9.1884   9.2179   9.2530   9.2530   9.4469   9.4469   9.5824   9.5824
    10.0344  10.0344  10.5332  10.5332

     occupation numbers 
     1.0000   1.0000   1.0000   1.0000   1.0000   1.0000   1.0000   1.0000
     1.0000   1.0000   1.0000   1.0000   1.0000   1.0000   1.0000   1.0000
     1.0000   1.0000   1.0000   1.0000   1.0000   1.0000   1.0000   1.0000
     1.0000   1.0000   1.0000   1.0000   1.0000   1.0000   1.0000   1.0000
     1.0000   1.0000   1.0000   1.0000   1.0000   1.0000   1.0000   1.0000
     1.0000   1.0000   1.0000   1.0000   1.0000   1.0000   1.0000   1.0000
     1.0000   1.0000   1.0000   1.0000   1.0000   1.0000   1.0000   1.0000
     1.0000   1.0000   1.0000   1.0000   1.0000   1.0000   1.0000   1.0000
     1.0000   1.0000   1.0000   1.0000   1.0000   1.0000   1.0000   1.0000
     1.0000   1.0000   1.0000   1.0000   1.0000   1.0000   1.0000   1.0000
     1.0000   1.0000   1.0000   1.0000   1.0000   1.0000   1.0000   1.0000
     1.0000   1.0000   1.0000   1.0000   1.0000   1.0000   1.0000   1.0000
     1.0000   1.0000   1.0000   1.0000   1.0000   1.0000   1.0000   1.0000
     1.0000   1.0000   1.0000   1.0000

          k = 0.0000 0.0000-0.9109 (  9366 PWs)   bands (ev):

    -8.7690  -8.7690  -8.2382  -8.2381  -8.2381  -8.2381  -8.0528  -8.0528
    -8.0528  -8.0528  -8.0480  -8.0480   2.9353   2.9353   3.0025   3.0025
     3.0025   3.0025   3.1437   3.1437   3.1437   3.1437   3.3220   3.3220
     3.8476   3.8477   3.8477   3.8477   4.1275   4.1275   4.1275   4.1275
     4.2377   4.2377   4.2378   4.2378   4.2751   4.2751   4.2751   4.2751
     4.4180   4.4180   4.4331   4.4331   4.5520   4.5520   4.5520   4.5520
     5.8518   5.8518   5.8518   5.8518   5.8566   5.8566   5.8566   5.8566
     5.8799   5.8799   5.8799   5.8799   5.8972   5.8972   5.8972   5.8972
     5.9766   5.9766   6.0628   6.0628   6.1355   6.1355   6.1355   6.1355
     6.4879   6.4879   6.7918   6.7918   6.7918   6.7918   7.3876   7.3876
     7.3876   7.3876   8.1823   8.1823   8.1823   8.1823   8.2686   8.2687
     8.8032   8.8032   8.8796   8.8796   8.8796   8.8796   8.8901   8.8901
     8.9818   8.9818   8.9818   8.9818   9.2100   9.2100   9.2100   9.2100
    10.2839  10.2839  10.2839  10.2839

     occupation numbers 
     1.0000   1.0000   1.0000   1.0000   1.0000   1.0000   1.0000   1.0000
     1.0000   1.0000   1.0000   1.0000   1.0000   1.0000   1.0000   1.0000
     1.0000   1.0000   1.0000   1.0000   1.0000   1.0000   1.0000   1.0000
     1.0000   1.0000   1.0000   1.0000   1.0000   1.0000   1.0000   1.0000
     1.0000   1.0000   1.0000   1.0000   1.0000   1.0000   1.0000   1.0000
     1.0000   1.0000   1.0000   1.0000   1.0000   1.0000   1.0000   1.0000
     1.0000   1.0000   1.0000   1.0000   1.0000   1.0000   1.0000   1.0000
     1.0000   1.0000   1.0000   1.0000   1.0000   1.0000   1.0000   1.0000
     1.0000   1.0000   1.0000   1.0000   1.0000   1.0000   1.0000   1.0000
     1.0000   1.0000   1.0000   1.0000   1.0000   1.0000   1.0000   1.0000
     1.0000   1.0000   1.0000   1.0000   1.0000   1.0000   1.0000   1.0000
     1.0000   1.0000   1.0000   1.0000   1.0000   1.0000   1.0000   1.0000
     1.0000   1.0000   1.0000   1.0000   1.0000   1.0000   1.0000   1.0000
     1.0000   1.0000   1.0000   1.0000

          k = 0.0000 0.2887 0.0000 (  9385 PWs)   bands (ev):

    -9.2080  -8.6443  -8.3963  -8.3963  -8.3176  -8.2005  -8.0889  -7.9723
    -7.9168  -7.9137  -7.9137  -7.9062   3.1388   3.1765   3.1765   3.2214
     3.2987   3.4524   3.5464   3.5705   3.5705   3.6589   3.6823   3.7839
     3.8484   3.8612   3.9745   3.9845   4.0450   4.0517   4.0517   4.1031
     4.1067   4.1541   4.2497   4.2879   4.2879   4.3324   4.3464   4.4961
     4.6104   4.6104   4.6533   4.6854   4.6854   4.7509   4.8183   4.9083
     5.4451   5.5107   5.5107   5.5569   5.6098   5.6179   5.6409   5.6655
     5.7190   5.7777   5.7777   5.8863   5.8885   5.9556   5.9890   6.0078
     6.0239   6.0485   6.0485   6.0540   6.0622   6.0747   6.0886   6.0886
     6.3649   6.3705   6.4675   6.4985   6.5231   6.5231   6.7562   6.7996
     6.8706   6.8706   7.0806   7.3997   7.6048   7.8507   7.8507   7.8537
     7.9965   7.9965   8.0171   8.3707   8.5858   8.6044   8.8670   9.2565
     9.3897   9.3897   9.4875   9.6662   9.6899   9.6900   9.7083   9.8112
     9.9741  10.3260  10.4939  10.7135

     occupation numbers 
     1.0000   1.0000   1.0000   1.0000   1.0000   1.0000   1.0000   1.0000
     1.0000   1.0000   1.0000   1.0000   1.0000   1.0000   1.0000   1.0000
     1.0000   1.0000   1.0000   1.0000   1.0000   1.0000   1.0000   1.0000
     1.0000   1.0000   1.0000   1.0000   1.0000   1.0000   1.0000   1.0000
     1.0000   1.0000   1.0000   1.0000   1.0000   1.0000   1.0000   1.0000
     1.0000   1.0000   1.0000   1.0000   1.0000   1.0000   1.0000   1.0000
     1.0000   1.0000   1.0000   1.0000   1.0000   1.0000   1.0000   1.0000
     1.0000   1.0000   1.0000   1.0000   1.0000   1.0000   1.0000   1.0000
     1.0000   1.0000   1.0000   1.0000   1.0000   1.0000   1.0000   1.0000
     1.0000   1.0000   1.0000   1.0000   1.0000   1.0000   1.0000   1.0000
     1.0000   1.0000   1.0000   1.0000   1.0000   1.0000   1.0000   1.0000
     1.0000   1.0000   1.0000   1.0000   1.0000   1.0000   1.0000   1.0000
     1.0000   1.0000   1.0000   1.0000   1.0000   1.0000   1.0000   1.0000
     1.0000   1.0000   1.0000   1.0000

          k = 0.0000 0.2887 0.3036 (  9387 PWs)   bands (ev):

    -9.1452  -8.5991  -8.3618  -8.3618  -8.2873  -8.2731  -8.0732  -8.0166
    -7.9433  -7.9433  -7.9304  -7.9239   3.0809   3.1251   3.1251   3.1753
     3.2502   3.3216   3.4233   3.4233   3.4814   3.5271   3.6379   3.7193
     3.7942   3.8317   3.9703   3.9964   4.0024   4.0194   4.0750   4.0750
     4.1364   4.1394   4.1933   4.2665   4.2665   4.3029   4.3285   4.4575
     4.5325   4.5325   4.5872   4.6344   4.6344   4.6931   4.7732   4.8259
     5.5204   5.5724   5.5724   5.5834   5.6735   5.6744   5.6935   5.7548
     5.7616   5.8401   5.8401   5.8939   5.9745   5.9881   5.9898   6.0043
     6.0185   6.0313   6.0313   6.0343   6.1033   6.1590   6.1590   6.1608
     6.3840   6.5636   6.5636   6.5719   6.6668   6.7417   6.7463   6.9056
     7.0405   7.0610   7.0610   7.5070   7.7116   7.8428   7.8428   8.0314
     8.1204   8.1204   8.1502   8.3749   8.5429   8.6046   8.9136   9.3104
     9.4137   9.4137   9.5532   9.5956   9.5956   9.6050   9.7366   9.7831
     9.8797   9.8969  10.5007  10.6441

     occupation numbers 
     1.0000   1.0000   1.0000   1.0000   1.0000   1.0000   1.0000   1.0000
     1.0000   1.0000   1.0000   1.0000   1.0000   1.0000   1.0000   1.0000
     1.0000   1.0000   1.0000   1.0000   1.0000   1.0000   1.0000   1.0000
     1.0000   1.0000   1.0000   1.0000   1.0000   1.0000   1.0000   1.0000
     1.0000   1.0000   1.0000   1.0000   1.0000   1.0000   1.0000   1.0000
     1.0000   1.0000   1.0000   1.0000   1.0000   1.0000   1.0000   1.0000
     1.0000   1.0000   1.0000   1.0000   1.0000   1.0000   1.0000   1.0000
     1.0000   1.0000   1.0000   1.0000   1.0000   1.0000   1.0000   1.0000
     1.0000   1.0000   1.0000   1.0000   1.0000   1.0000   1.0000   1.0000
     1.0000   1.0000   1.0000   1.0000   1.0000   1.0000   1.0000   1.0000
     1.0000   1.0000   1.0000   1.0000   1.0000   1.0000   1.0000   1.0000
     1.0000   1.0000   1.0000   1.0000   1.0000   1.0000   1.0000   1.0000
     1.0000   1.0000   1.0000   1.0000   1.0000   1.0000   1.0000   1.0000
     1.0000   1.0000   1.0000   1.0000

          k = 0.0000 0.2887 0.6073 (  9372 PWs)   bands (ev):

    -8.9704  -8.4754  -8.4673  -8.2688  -8.2688  -8.2061  -8.1385  -8.0333
    -8.0264  -8.0264  -7.9994  -7.9468   2.9730   3.0286   3.0286   3.0842
     3.0853   3.1623   3.1623   3.2072   3.2122   3.4316   3.4769   3.4880
     3.8261   3.8275   3.9039   3.9245   3.9562   4.0431   4.0836   4.1156
     4.1421   4.1421   4.2346   4.2449   4.2449   4.2564   4.3270   4.3650
     4.4286   4.4286   4.4711   4.5155   4.5155   4.5496   4.7231   4.7418
     5.6680   5.6841   5.7282   5.7282   5.7553   5.7659   5.7752   5.8117
     5.8139   5.8898   5.8898   5.9157   5.9291   5.9364   5.9522   5.9919
     5.9923   5.9923   6.0266   6.0913   6.0913   6.0970   6.1546   6.3201
     6.5068   6.5860   6.7914   6.8154   6.8154   6.9267   7.1810   7.2263
     7.2263   7.3221   7.3930   7.7977   8.0761   8.1548   8.1548   8.2192
     8.3146   8.4514   8.4514   8.4896   8.6298   8.8411   9.0565   9.1413
     9.2399   9.2399   9.2760   9.3194   9.3931   9.3931   9.5246   9.6198
     9.7578   9.9293  10.3091  10.4537

     occupation numbers 
     1.0000   1.0000   1.0000   1.0000   1.0000   1.0000   1.0000   1.0000
     1.0000   1.0000   1.0000   1.0000   1.0000   1.0000   1.0000   1.0000
     1.0000   1.0000   1.0000   1.0000   1.0000   1.0000   1.0000   1.0000
     1.0000   1.0000   1.0000   1.0000   1.0000   1.0000   1.0000   1.0000
     1.0000   1.0000   1.0000   1.0000   1.0000   1.0000   1.0000   1.0000
     1.0000   1.0000   1.0000   1.0000   1.0000   1.0000   1.0000   1.0000
     1.0000   1.0000   1.0000   1.0000   1.0000   1.0000   1.0000   1.0000
     1.0000   1.0000   1.0000   1.0000   1.0000   1.0000   1.0000   1.0000
     1.0000   1.0000   1.0000   1.0000   1.0000   1.0000   1.0000   1.0000
     1.0000   1.0000   1.0000   1.0000   1.0000   1.0000   1.0000   1.0000
     1.0000   1.0000   1.0000   1.0000   1.0000   1.0000   1.0000   1.0000
     1.0000   1.0000   1.0000   1.0000   1.0000   1.0000   1.0000   1.0000
     1.0000   1.0000   1.0000   1.0000   1.0000   1.0000   1.0000   1.0000
     1.0000   1.0000   1.0000   1.0000

          k = 0.0000 0.2887-0.9109 (  9370 PWs)   bands (ev):

    -8.7237  -8.7237  -8.3065  -8.3065  -8.1452  -8.1451  -8.1451  -8.1451
    -8.0997  -8.0997  -7.9858  -7.9858   2.9497   2.9497   3.0142   3.0142
     3.0142   3.0142   3.0665   3.0665   3.2954   3.2954   3.3709   3.3709
     3.8664   3.8664   3.8846   3.8846   3.9634   3.9634   4.0909   4.0909
     4.2184   4.2184   4.2184   4.2184   4.2739   4.2739   4.3765   4.3765
     4.3802   4.3802   4.4122   4.4122   4.4122   4.4122   4.7108   4.7108
     5.7336   5.7336   5.8536   5.8536   5.8541   5.8541   5.8598   5.8598
     5.8854   5.8854   5.8854   5.8854   5.8919   5.8919   5.9493   5.9493
     5.9636   5.9636   5.9748   5.9748   5.9748   5.9748   6.3330   6.3330
     6.6065   6.6065   6.7870   6.7870   7.0676   7.0676   7.0676   7.0676
     7.6403   7.6403   7.7024   7.7024   8.2810   8.2810   8.7295   8.7295
     8.7295   8.7295   8.8621   8.8621   8.8833   8.8833   8.9166   8.9167
     8.9857   8.9857   9.0087   9.0087   9.0087   9.0087   9.2653   9.2653
    10.0281  10.0281  10.1921  10.1921

     occupation numbers 
     1.0000   1.0000   1.0000   1.0000   1.0000   1.0000   1.0000   1.0000
     1.0000   1.0000   1.0000   1.0000   1.0000   1.0000   1.0000   1.0000
     1.0000   1.0000   1.0000   1.0000   1.0000   1.0000   1.0000   1.0000
     1.0000   1.0000   1.0000   1.0000   1.0000   1.0000   1.0000   1.0000
     1.0000   1.0000   1.0000   1.0000   1.0000   1.0000   1.0000   1.0000
     1.0000   1.0000   1.0000   1.0000   1.0000   1.0000   1.0000   1.0000
     1.0000   1.0000   1.0000   1.0000   1.0000   1.0000   1.0000   1.0000
     1.0000   1.0000   1.0000   1.0000   1.0000   1.0000   1.0000   1.0000
     1.0000   1.0000   1.0000   1.0000   1.0000   1.0000   1.0000   1.0000
     1.0000   1.0000   1.0000   1.0000   1.0000   1.0000   1.0000   1.0000
     1.0000   1.0000   1.0000   1.0000   1.0000   1.0000   1.0000   1.0000
     1.0000   1.0000   1.0000   1.0000   1.0000   1.0000   1.0000   1.0000
     1.0000   1.0000   1.0000   1.0000   1.0000   1.0000   1.0000   1.0000
     1.0000   1.0000   1.0000   1.0000

          k = 0.0000 0.5774 0.0000 (  9382 PWs)   bands (ev):

    -9.0449  -8.6808  -8.5424  -8.5424  -8.2352  -8.1251  -7.9834  -7.9794
    -7.9794  -7.9444  -7.9444  -7.8987   3.1331   3.1331   3.3232   3.3703
     3.4043   3.5856   3.5942   3.6118   3.6118   3.6121   3.6178   3.8673
     3.8817   4.0141   4.0535   4.0577   4.0577   4.0577   4.0590   4.1277
     4.1277   4.1661   4.1769   4.1880   4.1880   4.2481   4.3038   4.4774
     4.5016   4.5016   4.5664   4.5664   4.7075   4.8042   4.9174   4.9174
     5.4478   5.4478   5.4675   5.4958   5.5515   5.5619   5.6550   5.6550
     5.6645   5.6842   5.6926   5.7275   5.7807   5.7807   6.0011   6.0151
     6.0151   6.0199   6.0337   6.0337   6.0622   6.0784   6.0868   6.1565
     6.3502   6.4278   6.4565   6.4847   6.5434   6.5434   6.9290   6.9290
     7.0034   7.0305   7.0305   7.1691   7.6809   7.6968   8.1738   8.2579
     8.2579   8.3327   8.3327   8.4064   8.4064   8.4362   8.7305   8.7564
     9.0046   9.3087   9.3402   9.6332   9.6332   9.6574   9.8910   9.9179
     9.9451   9.9451  10.3186  10.5220

     occupation numbers 
     1.0000   1.0000   1.0000   1.0000   1.0000   1.0000   1.0000   1.0000
     1.0000   1.0000   1.0000   1.0000   1.0000   1.0000   1.0000   1.0000
     1.0000   1.0000   1.0000   1.0000   1.0000   1.0000   1.0000   1.0000
     1.0000   1.0000   1.0000   1.0000   1.0000   1.0000   1.0000   1.0000
     1.0000   1.0000   1.0000   1.0000   1.0000   1.0000   1.0000   1.0000
     1.0000   1.0000   1.0000   1.0000   1.0000   1.0000   1.0000   1.0000
     1.0000   1.0000   1.0000   1.0000   1.0000   1.0000   1.0000   1.0000
     1.0000   1.0000   1.0000   1.0000   1.0000   1.0000   1.0000   1.0000
     1.0000   1.0000   1.0000   1.0000   1.0000   1.0000   1.0000   1.0000
     1.0000   1.0000   1.0000   1.0000   1.0000   1.0000   1.0000   1.0000
     1.0000   1.0000   1.0000   1.0000   1.0000   1.0000   1.0000   1.0000
     1.0000   1.0000   1.0000   1.0000   1.0000   1.0000   1.0000   1.0000
     1.0000   1.0000   1.0000   1.0000   1.0000   1.0000   1.0000   1.0000
     1.0000   1.0000   1.0000   1.0000

          k = 0.0000 0.5774 0.3036 (  9378 PWs)   bands (ev):

    -8.9865  -8.6341  -8.5013  -8.5013  -8.2093  -8.1900  -8.0297  -7.9828
    -7.9828  -7.9749  -7.9749  -7.9175   3.0883   3.0883   3.2725   3.3092
     3.3284   3.4406   3.4406   3.4527   3.4972   3.5046   3.6118   3.8804
     3.9066   3.9564   3.9564   4.0088   4.0175   4.0351   4.0441   4.0836
     4.0836   4.1130   4.1378   4.1843   4.1843   4.2559   4.2629   4.4347
     4.4347   4.4421   4.5216   4.5216   4.6410   4.7358   4.8674   4.8674
     5.5194   5.5280   5.5280   5.5328   5.5946   5.6079   5.6916   5.7148
     5.7354   5.7960   5.7960   5.8280   5.8682   5.8682   5.9833   6.0003
     6.0128   6.0128   6.0315   6.0699   6.0963   6.0963   6.1119   6.2641
     6.3911   6.5612   6.6740   6.7175   6.7175   6.7522   6.8649   6.8649
     7.0761   7.1675   7.1675   7.2927   7.7903   7.8355   8.1821   8.1821
     8.2205   8.2879   8.4967   8.4967   8.5212   8.5212   8.6988   8.8026
     8.9876   9.2798   9.4215   9.4692   9.6373   9.6374   9.8159   9.8486
     9.8486   9.8556  10.2218  10.4447

     occupation numbers 
     1.0000   1.0000   1.0000   1.0000   1.0000   1.0000   1.0000   1.0000
     1.0000   1.0000   1.0000   1.0000   1.0000   1.0000   1.0000   1.0000
     1.0000   1.0000   1.0000   1.0000   1.0000   1.0000   1.0000   1.0000
     1.0000   1.0000   1.0000   1.0000   1.0000   1.0000   1.0000   1.0000
     1.0000   1.0000   1.0000   1.0000   1.0000   1.0000   1.0000   1.0000
     1.0000   1.0000   1.0000   1.0000   1.0000   1.0000   1.0000   1.0000
     1.0000   1.0000   1.0000   1.0000   1.0000   1.0000   1.0000   1.0000
     1.0000   1.0000   1.0000   1.0000   1.0000   1.0000   1.0000   1.0000
     1.0000   1.0000   1.0000   1.0000   1.0000   1.0000   1.0000   1.0000
     1.0000   1.0000   1.0000   1.0000   1.0000   1.0000   1.0000   1.0000
     1.0000   1.0000   1.0000   1.0000   1.0000   1.0000   1.0000   1.0000
     1.0000   1.0000   1.0000   1.0000   1.0000   1.0000   1.0000   1.0000
     1.0000   1.0000   1.0000   1.0000   1.0000   1.0000   1.0000   1.0000
     1.0000   1.0000   1.0000   1.0000

          k = 0.0000 0.5774 0.6073 (  9395 PWs)   bands (ev):

    -8.8247  -8.5065  -8.3895  -8.3895  -8.3649  -8.1569  -8.1409  -8.0894
    -8.0894  -7.9718  -7.9660  -7.9659   3.0054   3.0054   3.1596   3.1596
     3.1637   3.1858   3.2088   3.2135   3.2698   3.3392   3.6738   3.6738
     3.6892   3.9131   3.9205   3.9676   3.9834   4.0093   4.0144   4.0618
     4.0677   4.1592   4.1592   4.1908   4.1908   4.1981   4.2486   4.3257
     4.3257   4.3578   4.4091   4.4091   4.5661   4.6192   4.8243   4.8243
     5.5705   5.6791   5.6879   5.6965   5.6965   5.7186   5.7334   5.7621
     5.8058   5.8380   5.8380   5.8897   5.9311   5.9493   5.9584   5.9608
     5.9608   6.0289   6.0356   6.0356   6.0761   6.2094   6.2094   6.2534
     6.5406   6.7135   6.7135   6.9178   6.9863   7.1070   7.1070   7.3924
     7.4296   7.4775   7.4775   7.7190   7.9010   8.1480   8.1747   8.2388
     8.2388   8.2630   8.7753   8.7830   8.8216   8.8216   8.8231   8.8231
     8.8734   9.1619   9.2530   9.4469   9.4469   9.5432   9.5824   9.5824
     9.5849   9.6418   9.8876  10.2322

     occupation numbers 
     1.0000   1.0000   1.0000   1.0000   1.0000   1.0000   1.0000   1.0000
     1.0000   1.0000   1.0000   1.0000   1.0000   1.0000   1.0000   1.0000
     1.0000   1.0000   1.0000   1.0000   1.0000   1.0000   1.0000   1.0000
     1.0000   1.0000   1.0000   1.0000   1.0000   1.0000   1.0000   1.0000
     1.0000   1.0000   1.0000   1.0000   1.0000   1.0000   1.0000   1.0000
     1.0000   1.0000   1.0000   1.0000   1.0000   1.0000   1.0000   1.0000
     1.0000   1.0000   1.0000   1.0000   1.0000   1.0000   1.0000   1.0000
     1.0000   1.0000   1.0000   1.0000   1.0000   1.0000   1.0000   1.0000
     1.0000   1.0000   1.0000   1.0000   1.0000   1.0000   1.0000   1.0000
     1.0000   1.0000   1.0000   1.0000   1.0000   1.0000   1.0000   1.0000
     1.0000   1.0000   1.0000   1.0000   1.0000   1.0000   1.0000   1.0000
     1.0000   1.0000   1.0000   1.0000   1.0000   1.0000   1.0000   1.0000
     1.0000   1.0000   1.0000   1.0000   1.0000   1.0000   1.0000   1.0000
     1.0000   1.0000   1.0000   1.0000

          k = 0.0000 0.5774-0.9109 (  9376 PWs)   bands (ev):

    -8.5981  -8.5981  -8.3316  -8.3316  -8.2382  -8.2381  -8.2381  -8.2381
    -8.0528  -8.0528  -7.9614  -7.9614   3.0025   3.0025   3.0025   3.0025
     3.1109   3.1109   3.1437   3.1437   3.2127   3.2127   3.5531   3.5531
     3.8131   3.8131   3.9404   3.9404   3.9867   3.9867   4.0134   4.0134
     4.1275   4.1275   4.2378   4.2378   4.2378   4.2378   4.2751   4.2751
     4.2751   4.2751   4.2771   4.2771   4.5520   4.5520   4.8118   4.8118
     5.6280   5.6280   5.8478   5.8478   5.8511   5.8511   5.8518   5.8518
     5.8569   5.8569   5.8799   5.8799   5.8799   5.8799   5.8925   5.8925
     5.8972   5.8972   5.8972   5.8972   6.1355   6.1355   6.4444   6.4444
     6.5482   6.5482   6.7918   6.7918   7.3876   7.3876   7.3876   7.3876
     7.4019   7.4019   7.8592   7.8592   8.1823   8.1823   8.2675   8.2675
     8.8373   8.8373   8.8796   8.8796   8.8796   8.8796   8.9818   8.9818
     8.9880   8.9880   9.2100   9.2100   9.2100   9.2100   9.2289   9.2289
     9.4503   9.4503   9.9389   9.9389

     occupation numbers 
     1.0000   1.0000   1.0000   1.0000   1.0000   1.0000   1.0000   1.0000
     1.0000   1.0000   1.0000   1.0000   1.0000   1.0000   1.0000   1.0000
     1.0000   1.0000   1.0000   1.0000   1.0000   1.0000   1.0000   1.0000
     1.0000   1.0000   1.0000   1.0000   1.0000   1.0000   1.0000   1.0000
     1.0000   1.0000   1.0000   1.0000   1.0000   1.0000   1.0000   1.0000
     1.0000   1.0000   1.0000   1.0000   1.0000   1.0000   1.0000   1.0000
     1.0000   1.0000   1.0000   1.0000   1.0000   1.0000   1.0000   1.0000
     1.0000   1.0000   1.0000   1.0000   1.0000   1.0000   1.0000   1.0000
     1.0000   1.0000   1.0000   1.0000   1.0000   1.0000   1.0000   1.0000
     1.0000   1.0000   1.0000   1.0000   1.0000   1.0000   1.0000   1.0000
     1.0000   1.0000   1.0000   1.0000   1.0000   1.0000   1.0000   1.0000
     1.0000   1.0000   1.0000   1.0000   1.0000   1.0000   1.0000   1.0000
     1.0000   1.0000   1.0000   1.0000   1.0000   1.0000   1.0000   1.0000
     1.0000   1.0000   1.0000   1.0000

          k = 0.0000-0.8660 0.0000 (  9384 PWs)   bands (ev):

    -8.8067  -8.8067  -8.6443  -8.6443  -8.0889  -8.0889  -8.0278  -8.0278
    -7.9723  -7.9723  -7.9168  -7.9168   3.2214   3.2214   3.2522   3.2522
     3.5464   3.5464   3.6589   3.6589   3.7165   3.7165   3.8484   3.8484
     3.9636   3.9636   3.9714   3.9714   3.9745   3.9745   4.1031   4.1031
     4.1541   4.1541   4.2040   4.2040   4.2497   4.2497   4.3324   4.3324
     4.3507   4.3507   4.4961   4.4961   4.8183   4.8183   4.9083   4.9083
     5.4451   5.4451   5.4653   5.4653   5.5569   5.5569   5.6098   5.6098
     5.6977   5.6977   5.7190   5.7190   5.8885   5.8885   5.9556   5.9556
     6.0158   6.0158   6.0239   6.0239   6.0622   6.0622   6.0705   6.0705
     6.4042   6.4042   6.4675   6.4675   6.4985   6.4985   6.7562   6.7562
     7.0806   7.0806   7.3997   7.3997   7.8227   7.8227   7.8537   7.8537
     8.3707   8.3707   8.5858   8.5858   8.6045   8.6045   8.8670   8.8670
     8.8870   8.8870   8.9644   8.9644   9.8112   9.8112   9.9741   9.9741
    10.0226  10.0226  10.2444  10.2444

     occupation numbers 
     1.0000   1.0000   1.0000   1.0000   1.0000   1.0000   1.0000   1.0000
     1.0000   1.0000   1.0000   1.0000   1.0000   1.0000   1.0000   1.0000
     1.0000   1.0000   1.0000   1.0000   1.0000   1.0000   1.0000   1.0000
     1.0000   1.0000   1.0000   1.0000   1.0000   1.0000   1.0000   1.0000
     1.0000   1.0000   1.0000   1.0000   1.0000   1.0000   1.0000   1.0000
     1.0000   1.0000   1.0000   1.0000   1.0000   1.0000   1.0000   1.0000
     1.0000   1.0000   1.0000   1.0000   1.0000   1.0000   1.0000   1.0000
     1.0000   1.0000   1.0000   1.0000   1.0000   1.0000   1.0000   1.0000
     1.0000   1.0000   1.0000   1.0000   1.0000   1.0000   1.0000   1.0000
     1.0000   1.0000   1.0000   1.0000   1.0000   1.0000   1.0000   1.0000
     1.0000   1.0000   1.0000   1.0000   1.0000   1.0000   1.0000   1.0000
     1.0000   1.0000   1.0000   1.0000   1.0000   1.0000   1.0000   1.0000
     1.0000   1.0000   1.0000   1.0000   1.0000   1.0000   1.0000   1.0000
     1.0000   1.0000   1.0000   1.0000

          k = 0.0000-0.8660 0.3036 (  9386 PWs)   bands (ev):

    -8.7557  -8.7557  -8.5991  -8.5991  -8.0808  -8.0808  -8.0732  -8.0732
    -8.0166  -8.0166  -7.9239  -7.9239   3.1753   3.1753   3.2062   3.2062
     3.4814   3.4814   3.5014   3.5014   3.5271   3.5271   3.7193   3.7193
     3.9897   3.9897   3.9964   3.9964   4.0024   4.0024   4.0160   4.0160
     4.1364   4.1364   4.1852   4.1852   4.1933   4.1933   4.3029   4.3029
     4.3164   4.3164   4.4575   4.4575   4.7732   4.7732   4.8259   4.8259
     5.5204   5.5204   5.5340   5.5340   5.5834   5.5834   5.7204   5.7204
     5.7548   5.7548   5.7616   5.7616   5.9898   5.9898   5.9952   5.9952
     6.0043   6.0043   6.0185   6.0185   6.0743   6.0743   6.1033   6.1033
     6.5719   6.5719   6.7085   6.7085   6.7417   6.7417   6.7463   6.7463
     7.0405   7.0405   7.5070   7.5070   7.9098   7.9098   8.0314   8.0314
     8.3749   8.3749   8.5429   8.5429   8.6046   8.6046   8.8384   8.8384
     8.9136   8.9136   8.9835   8.9836   9.7831   9.7831   9.8797   9.8797
     9.9605   9.9605  10.1571  10.1571

     occupation numbers 
     1.0000   1.0000   1.0000   1.0000   1.0000   1.0000   1.0000   1.0000
     1.0000   1.0000   1.0000   1.0000   1.0000   1.0000   1.0000   1.0000
     1.0000   1.0000   1.0000   1.0000   1.0000   1.0000   1.0000   1.0000
     1.0000   1.0000   1.0000   1.0000   1.0000   1.0000   1.0000   1.0000
     1.0000   1.0000   1.0000   1.0000   1.0000   1.0000   1.0000   1.0000
     1.0000   1.0000   1.0000   1.0000   1.0000   1.0000   1.0000   1.0000
     1.0000   1.0000   1.0000   1.0000   1.0000   1.0000   1.0000   1.0000
     1.0000   1.0000   1.0000   1.0000   1.0000   1.0000   1.0000   1.0000
     1.0000   1.0000   1.0000   1.0000   1.0000   1.0000   1.0000   1.0000
     1.0000   1.0000   1.0000   1.0000   1.0000   1.0000   1.0000   1.0000
     1.0000   1.0000   1.0000   1.0000   1.0000   1.0000   1.0000   1.0000
     1.0000   1.0000   1.0000   1.0000   1.0000   1.0000   1.0000   1.0000
     1.0000   1.0000   1.0000   1.0000   1.0000   1.0000   1.0000   1.0000
     1.0000   1.0000   1.0000   1.0000

          k = 0.0000-0.8660 0.6073 (  9390 PWs)   bands (ev):

    -8.6153  -8.6153  -8.4754  -8.4754  -8.2252  -8.2252  -8.1385  -8.1385
    -8.0333  -8.0333  -7.9468  -7.9468   3.0842   3.0842   3.1145   3.1145
     3.2072   3.2072   3.2330   3.2330   3.4316   3.4316   3.4880   3.4880
     3.9039   3.9039   4.0390   4.0390   4.0431   4.0431   4.0442   4.0442
     4.0836   4.0836   4.1156   4.1156   4.1336   4.1336   4.2309   4.2309
     4.2564   4.2564   4.3650   4.3650   4.7231   4.7231   4.7418   4.7418
     5.6680   5.6680   5.6839   5.6839   5.6841   5.6841   5.7752   5.7752
     5.7811   5.7811   5.8139   5.8139   5.9391   5.9391   5.9522   5.9522
     5.9924   5.9924   6.0266   6.0266   6.1546   6.1546   6.3201   6.3201
     6.5068   6.5068   6.7914   6.7914   7.1810   7.1810   7.3221   7.3221
     7.4259   7.4259   7.7977   7.7977   8.0761   8.0761   8.1327   8.1327
     8.3146   8.3146   8.6287   8.6287   8.6298   8.6298   8.8411   8.8411
     9.0565   9.0565   9.2417   9.2417   9.5246   9.5246   9.6198   9.6198
     9.6208   9.6208   9.9171   9.9171

     occupation numbers 
     1.0000   1.0000   1.0000   1.0000   1.0000   1.0000   1.0000   1.0000
     1.0000   1.0000   1.0000   1.0000   1.0000   1.0000   1.0000   1.0000
     1.0000   1.0000   1.0000   1.0000   1.0000   1.0000   1.0000   1.0000
     1.0000   1.0000   1.0000   1.0000   1.0000   1.0000   1.0000   1.0000
     1.0000   1.0000   1.0000   1.0000   1.0000   1.0000   1.0000   1.0000
     1.0000   1.0000   1.0000   1.0000   1.0000   1.0000   1.0000   1.0000
     1.0000   1.0000   1.0000   1.0000   1.0000   1.0000   1.0000   1.0000
     1.0000   1.0000   1.0000   1.0000   1.0000   1.0000   1.0000   1.0000
     1.0000   1.0000   1.0000   1.0000   1.0000   1.0000   1.0000   1.0000
     1.0000   1.0000   1.0000   1.0000   1.0000   1.0000   1.0000   1.0000
     1.0000   1.0000   1.0000   1.0000   1.0000   1.0000   1.0000   1.0000
     1.0000   1.0000   1.0000   1.0000   1.0000   1.0000   1.0000   1.0000
     1.0000   1.0000   1.0000   1.0000   1.0000   1.0000   1.0000   1.0000
     1.0000   1.0000   1.0000   1.0000

          k = 0.0000-0.8660-0.9109 (  9392 PWs)   bands (ev):

    -8.4213  -8.4213  -8.4213  -8.4213  -8.3065  -8.3065  -8.3065  -8.3065
    -7.9858  -7.9858  -7.9858  -7.9858   3.0665   3.0665   3.0665   3.0665
     3.0989   3.0989   3.0989   3.0989   3.3709   3.3709   3.3709   3.3709
     3.9634   3.9634   3.9634   3.9634   4.0751   4.0751   4.0751   4.0751
     4.0909   4.0909   4.0909   4.0909   4.1299   4.1299   4.1299   4.1299
     4.2739   4.2739   4.2739   4.2739   4.7108   4.7108   4.7108   4.7108
     5.7336   5.7336   5.7336   5.7336   5.8503   5.8503   5.8503   5.8503
     5.8598   5.8598   5.8598   5.8598   5.8612   5.8612   5.8612   5.8612
     5.8919   5.8919   5.8919   5.8919   6.3330   6.3330   6.3330   6.3330
     6.6065   6.6065   6.6065   6.6065   7.6403   7.6403   7.6403   7.6403
     7.7024   7.7024   7.7024   7.7024   8.0027   8.0027   8.0027   8.0027
     8.8621   8.8621   8.8621   8.8621   8.9857   8.9857   8.9857   8.9857
     8.9863   8.9863   8.9863   8.9863   9.2653   9.2653   9.2653   9.2653
     9.5838   9.5838   9.5838   9.5838

     occupation numbers 
     1.0000   1.0000   1.0000   1.0000   1.0000   1.0000   1.0000   1.0000
     1.0000   1.0000   1.0000   1.0000   1.0000   1.0000   1.0000   1.0000
     1.0000   1.0000   1.0000   1.0000   1.0000   1.0000   1.0000   1.0000
     1.0000   1.0000   1.0000   1.0000   1.0000   1.0000   1.0000   1.0000
     1.0000   1.0000   1.0000   1.0000   1.0000   1.0000   1.0000   1.0000
     1.0000   1.0000   1.0000   1.0000   1.0000   1.0000   1.0000   1.0000
     1.0000   1.0000   1.0000   1.0000   1.0000   1.0000   1.0000   1.0000
     1.0000   1.0000   1.0000   1.0000   1.0000   1.0000   1.0000   1.0000
     1.0000   1.0000   1.0000   1.0000   1.0000   1.0000   1.0000   1.0000
     1.0000   1.0000   1.0000   1.0000   1.0000   1.0000   1.0000   1.0000
     1.0000   1.0000   1.0000   1.0000   1.0000   1.0000   1.0000   1.0000
     1.0000   1.0000   1.0000   1.0000   1.0000   1.0000   1.0000   1.0000
     1.0000   1.0000   1.0000   1.0000   1.0000   1.0000   1.0000   1.0000
     1.0000   1.0000   1.0000   1.0000

          k = 0.1667 0.0962 0.0000 (  9397 PWs)   bands (ev):

    -9.2398  -8.7186  -8.3834  -8.2394  -8.2285  -8.2226  -8.2159  -7.9966
    -7.9130  -7.9044  -7.9016  -7.8969   3.1216   3.2014   3.2407   3.2580
     3.2804   3.3626   3.4876   3.4989   3.5103   3.5967   3.6910   3.7190
     3.7668   3.8448   3.9936   4.0036   4.0219   4.0437   4.0732   4.0946
     4.1082   4.1229   4.2579   4.2989   4.3019   4.3481   4.3904   4.4213
     4.6289   4.6723   4.6919   4.6978   4.7051   4.7857   4.8204   4.8252
     5.4422   5.4651   5.5543   5.6408   5.6573   5.6663   5.6681   5.6739
     5.7199   5.7721   5.8526   5.8875   5.9862   5.9947   6.0211   6.0213
     6.0475   6.0536   6.0676   6.0743   6.0797   6.1469   6.1681   6.1701
     6.3774   6.3800   6.3976   6.4481   6.4797   6.5229   6.7481   6.7994
     6.8859   6.9379   7.2296   7.2941   7.3104   7.5332   7.5617   7.7841
     7.8062   7.8379   8.1282   8.7244   8.7288   9.0225   9.0432   9.0662
     9.1777   9.3699   9.4538   9.5711   9.6503   9.7318   9.7748   9.8999
    10.1432  10.5063  10.5535  10.7509

     occupation numbers 
     1.0000   1.0000   1.0000   1.0000   1.0000   1.0000   1.0000   1.0000
     1.0000   1.0000   1.0000   1.0000   1.0000   1.0000   1.0000   1.0000
     1.0000   1.0000   1.0000   1.0000   1.0000   1.0000   1.0000   1.0000
     1.0000   1.0000   1.0000   1.0000   1.0000   1.0000   1.0000   1.0000
     1.0000   1.0000   1.0000   1.0000   1.0000   1.0000   1.0000   1.0000
     1.0000   1.0000   1.0000   1.0000   1.0000   1.0000   1.0000   1.0000
     1.0000   1.0000   1.0000   1.0000   1.0000   1.0000   1.0000   1.0000
     1.0000   1.0000   1.0000   1.0000   1.0000   1.0000   1.0000   1.0000
     1.0000   1.0000   1.0000   1.0000   1.0000   1.0000   1.0000   1.0000
     1.0000   1.0000   1.0000   1.0000   1.0000   1.0000   1.0000   1.0000
     1.0000   1.0000   1.0000   1.0000   1.0000   1.0000   1.0000   1.0000
     1.0000   1.0000   1.0000   1.0000   1.0000   1.0000   1.0000   1.0000
     1.0000   1.0000   1.0000   1.0000   1.0000   1.0000   1.0000   1.0000
     1.0000   1.0000   1.0000   1.0000

          k = 0.1667 0.0962 0.3036 (  9392 PWs)   bands (ev):

    -9.1762  -8.6707  -8.3496  -8.2899  -8.2132  -8.2033  -8.1978  -8.0449
    -7.9417  -7.9217  -7.9197  -7.9161   3.0698   3.1575   3.1669   3.2149
     3.2223   3.2559   3.3658   3.3787   3.4205   3.4901   3.5213   3.6826
     3.7766   3.8060   3.9736   3.9966   4.0244   4.0707   4.0763   4.0895
     4.1253   4.1386   4.1755   4.2670   4.2864   4.3261   4.3716   4.3842
     4.5548   4.6219   4.6304   4.6365   4.6441   4.7293   4.7491   4.7586
     5.5189   5.5369   5.6133   5.6867   5.6873   5.6959   5.7404   5.7561
     5.8175   5.8537   5.8625   5.9064   5.9725   5.9787   6.0002   6.0274
     6.0514   6.0633   6.0722   6.0834   6.1249   6.1844   6.2277   6.2715
     6.3649   6.3828   6.4489   6.5117   6.6668   6.7009   6.7253   6.8810
     6.9737   7.0652   7.3971   7.4445   7.5742   7.6277   7.6604   7.8264
     7.9388   7.9863   8.2555   8.6150   8.8269   8.9503   9.0607   9.1300
     9.2244   9.3732   9.4108   9.4691   9.6734   9.7167   9.8001   9.8595
     9.9674  10.0527  10.6036  10.6831

     occupation numbers 
     1.0000   1.0000   1.0000   1.0000   1.0000   1.0000   1.0000   1.0000
     1.0000   1.0000   1.0000   1.0000   1.0000   1.0000   1.0000   1.0000
     1.0000   1.0000   1.0000   1.0000   1.0000   1.0000   1.0000   1.0000
     1.0000   1.0000   1.0000   1.0000   1.0000   1.0000   1.0000   1.0000
     1.0000   1.0000   1.0000   1.0000   1.0000   1.0000   1.0000   1.0000
     1.0000   1.0000   1.0000   1.0000   1.0000   1.0000   1.0000   1.0000
     1.0000   1.0000   1.0000   1.0000   1.0000   1.0000   1.0000   1.0000
     1.0000   1.0000   1.0000   1.0000   1.0000   1.0000   1.0000   1.0000
     1.0000   1.0000   1.0000   1.0000   1.0000   1.0000   1.0000   1.0000
     1.0000   1.0000   1.0000   1.0000   1.0000   1.0000   1.0000   1.0000
     1.0000   1.0000   1.0000   1.0000   1.0000   1.0000   1.0000   1.0000
     1.0000   1.0000   1.0000   1.0000   1.0000   1.0000   1.0000   1.0000
     1.0000   1.0000   1.0000   1.0000   1.0000   1.0000   1.0000   1.0000
     1.0000   1.0000   1.0000   1.0000

          k = 0.1667 0.0962 0.6073 (  9372 PWs)   bands (ev):

    -8.9990  -8.5391  -8.4879  -8.2586  -8.1773  -8.1438  -8.1364  -8.1324
    -8.0223  -7.9725  -7.9721  -7.9716   2.9743   3.0220   3.0634   3.0723
     3.0867   3.1102   3.1591   3.2071   3.2083   3.2793   3.3360   3.5089
     3.8081   3.8087   3.9194   3.9346   4.0130   4.0854   4.0885   4.1073
     4.1503   4.1970   4.2149   4.2282   4.2866   4.2910   4.2932   4.3613
[...]
     atom   14 type  1   force =    -0.00000125   -0.00000055    0.05667811
     atom   15 type  2   force =    -0.00000184   -0.00000196    0.04493608
     atom   16 type  2   force =     0.00000260    0.00000204    0.04493838
     atom   17 type  1   force =     0.00000155   -0.00000043    0.05667588
     atom   18 type  1   force =    -0.00000132   -0.00000311    0.05667728
     atom   19 type  2   force =    -0.00000328   -0.00000137    0.04493698
     atom   20 type  2   force =     0.00000284    0.00000215    0.04493766
     atom   21 type  1   force =     0.00000141    0.00000174    0.05667594
     atom   22 type  1   force =    -0.00000186    0.00000124    0.05667730
     atom   23 type  2   force =    -0.00000266   -0.00000182    0.04493761
     atom   24 type  2   force =     0.00000331    0.00000169    0.04493835
     The ionic contribution  to forces
     atom    1 type  1   force =     0.00000001    0.00000002    0.54943326
     atom    2 type  1   force =     0.00000001    0.00000001    0.54943326
     atom    3 type  2   force =     0.00000000    0.00000001   -0.54943326
     atom    4 type  2   force =     0.00000001    0.00000001   -0.54943326
     atom    5 type  1   force =     0.00000000    0.00000000    0.54943326
     atom    6 type  1   force =     0.00000001   -0.00000001    0.54943326
     atom    7 type  2   force =    -0.00000000    0.00000000   -0.54943326
     atom    8 type  2   force =     0.00000001   -0.00000001   -0.54943326
     atom    9 type  1   force =    -0.00000001    0.00000001    0.54943326
     atom   10 type  1   force =     0.00000001    0.00000001    0.54943325
     atom   11 type  2   force =    -0.00000001    0.00000001   -0.54943326
     atom   12 type  2   force =     0.00000001   -0.00000000   -0.54943325
     atom   13 type  1   force =    -0.00000002    0.00000000    0.54943325
     atom   14 type  1   force =     0.00000002   -0.00000002    0.54943325
     atom   15 type  2   force =    -0.00000001    0.00000000   -0.54943325
     atom   16 type  2   force =     0.00000001   -0.00000002   -0.54943325
     atom   17 type  1   force =    -0.00000001    0.00000001    0.54943326
     atom   18 type  1   force =    -0.00000001    0.00000000    0.54943326
     atom   19 type  2   force =    -0.00000000    0.00000001   -0.54943326
     atom   20 type  2   force =    -0.00000000    0.00000000   -0.54943326
     atom   21 type  1   force =    -0.00000001   -0.00000001    0.54943326
     atom   22 type  1   force =    -0.00000001   -0.00000002    0.54943326
     atom   23 type  2   force =    -0.00000001   -0.00000000   -0.54943326
     atom   24 type  2   force =     0.00000000   -0.00000001   -0.54943326
     The local contribution  to forces
     atom    1 type  1   force =    -0.00000218   -0.00000234   -0.58286598
     atom    2 type  1   force =     0.00000017    0.00000541   -0.58287297
     atom    3 type  2   force =     0.00000450    0.00000069    0.48630494
     atom    4 type  2   force =    -0.00000424   -0.00000095    0.48630398
     atom    5 type  1   force =    -0.00000540   -0.00000282   -0.58286541
     atom    6 type  1   force =     0.00000025   -0.00000323   -0.58287360
     atom    7 type  2   force =     0.00000199    0.00000087    0.48630539
     atom    8 type  2   force =    -0.00000537   -0.00000394    0.48630558
     atom    9 type  1   force =     0.00000176    0.00000355   -0.58286592
     atom   10 type  1   force =     0.00000344    0.00000204   -0.58287674
     atom   11 type  2   force =     0.00000255    0.00000615    0.48630289
     atom   12 type  2   force =    -0.00000265   -0.00000064    0.48630570
     atom   13 type  1   force =     0.00000390   -0.00000147   -0.58286466
     atom   14 type  1   force =    -0.00000066   -0.00000047   -0.58287564
     atom   15 type  2   force =     0.00000473   -0.00000059    0.48630664
     atom   16 type  2   force =    -0.00000222   -0.00000201    0.48630418
     atom   17 type  1   force =    -0.00000048    0.00000232   -0.58286939
     atom   18 type  1   force =    -0.00000084    0.00000641   -0.58287244
     atom   19 type  2   force =     0.00000420    0.00000411    0.48630367
     atom   20 type  2   force =    -0.00000321    0.00000125    0.48630646
     atom   21 type  1   force =    -0.00000007   -0.00000250   -0.58286892
     atom   22 type  1   force =     0.00000112   -0.00000630   -0.58287316
     atom   23 type  2   force =     0.00000296   -0.00000097    0.48630411
     atom   24 type  2   force =    -0.00000213   -0.00000501    0.48630504
     The core correction contribution to forces
     atom    1 type  1   force =    -0.00000011   -0.00000005   -0.00475091
     atom    2 type  1   force =     0.00000017    0.00000013   -0.00475091
     atom    3 type  2   force =     0.00000003    0.00000000   -0.00029182
     atom    4 type  2   force =    -0.00000002   -0.00000001   -0.00029186
     atom    5 type  1   force =    -0.00000017   -0.00000016   -0.00475095
     atom    6 type  1   force =     0.00000016    0.00000014   -0.00475090
     atom    7 type  2   force =     0.00000003    0.00000001   -0.00029183
     atom    8 type  2   force =    -0.00000002   -0.00000001   -0.00029184
     atom    9 type  1   force =    -0.00000024   -0.00000012   -0.00475096
     atom   10 type  1   force =     0.00000024    0.00000012   -0.00475088
     atom   11 type  2   force =     0.00000003    0.00000003   -0.00029185
     atom   12 type  2   force =    -0.00000003   -0.00000001   -0.00029185
     atom   13 type  1   force =    -0.00000025   -0.00000022   -0.00475095
     atom   14 type  1   force =     0.00000020    0.00000015   -0.00475085
     atom   15 type  2   force =     0.00000002    0.00000000   -0.00029181
     atom   16 type  2   force =    -0.00000002   -0.00000001   -0.00029186
     atom   17 type  1   force =    -0.00000019   -0.00000008   -0.00475090
     atom   18 type  1   force =     0.00000029    0.00000015   -0.00475090
     atom   19 type  2   force =     0.00000004    0.00000001   -0.00029183
     atom   20 type  2   force =    -0.00000003   -0.00000001   -0.00029184
     atom   21 type  1   force =    -0.00000023   -0.00000022   -0.00475101
     atom   22 type  1   force =     0.00000017    0.00000015   -0.00475092
     atom   23 type  2   force =     0.00000003    0.00000000   -0.00029184
     atom   24 type  2   force =    -0.00000003   -0.00000002   -0.00029185
     The Hubbard contrib.    to forces
     atom    1 type  1   force =     0.00000000    0.00000000    0.00000000
     atom    2 type  1   force =     0.00000000    0.00000000    0.00000000
     atom    3 type  2   force =     0.00000000    0.00000000    0.00000000
     atom    4 type  2   force =     0.00000000    0.00000000    0.00000000
     atom    5 type  1   force =     0.00000000    0.00000000    0.00000000
     atom    6 type  1   force =     0.00000000    0.00000000    0.00000000
     atom    7 type  2   force =     0.00000000    0.00000000    0.00000000
     atom    8 type  2   force =     0.00000000    0.00000000    0.00000000
     atom    9 type  1   force =     0.00000000    0.00000000    0.00000000
     atom   10 type  1   force =     0.00000000    0.00000000    0.00000000
     atom   11 type  2   force =     0.00000000    0.00000000    0.00000000
     atom   12 type  2   force =     0.00000000    0.00000000    0.00000000
     atom   13 type  1   force =     0.00000000    0.00000000    0.00000000
     atom   14 type  1   force =     0.00000000    0.00000000    0.00000000
     atom   15 type  2   force =     0.00000000    0.00000000    0.00000000
     atom   16 type  2   force =     0.00000000    0.00000000    0.00000000
     atom   17 type  1   force =     0.00000000    0.00000000    0.00000000
     atom   18 type  1   force =     0.00000000    0.00000000    0.00000000
     atom   19 type  2   force =     0.00000000    0.00000000    0.00000000
     atom   20 type  2   force =     0.00000000    0.00000000    0.00000000
     atom   21 type  1   force =     0.00000000    0.00000000    0.00000000
     atom   22 type  1   force =     0.00000000    0.00000000    0.00000000
     atom   23 type  2   force =     0.00000000    0.00000000    0.00000000
     atom   24 type  2   force =     0.00000000    0.00000000    0.00000000
     The SCF correction term to forces
     atom    1 type  1   force =    -0.00000097    0.00000193    0.00000143
     atom    2 type  1   force =     0.00000125   -0.00000703    0.00001333
     atom    3 type  2   force =    -0.00000216    0.00000089   -0.00000358
     atom    4 type  2   force =     0.00000213   -0.00000107   -0.00000427
     atom    5 type  1   force =     0.00000579    0.00000212    0.00000071
     atom    6 type  1   force =     0.00000261    0.00000436    0.00001339
     atom    7 type  2   force =     0.00000119    0.00000101   -0.00000456
     atom    8 type  2   force =     0.00000308    0.00000243   -0.00000542
     atom    9 type  1   force =    -0.00000481   -0.00000561    0.00000145
     atom   10 type  1   force =    -0.00000386   -0.00000002    0.00001944
     atom   11 type  2   force =     0.00000085   -0.00000424   -0.00000231
     atom   12 type  2   force =    -0.00000093   -0.00000129   -0.00000585
     atom   13 type  1   force =    -0.00000722    0.00000140    0.00000051
     atom   14 type  1   force =     0.00000305    0.00000026    0.00001600
     atom   15 type  2   force =    -0.00000270    0.00000275   -0.00000520
     atom   16 type  2   force =    -0.00000056   -0.00000028   -0.00000440
     atom   17 type  1   force =    -0.00000104   -0.00000396    0.00000761
     atom   18 type  1   force =     0.00000158   -0.00000796    0.00001158
     atom   19 type  2   force =    -0.00000095   -0.00000266   -0.00000254
     atom   20 type  2   force =     0.00000034   -0.00000370   -0.00000622
     atom   21 type  1   force =    -0.00000112    0.00000330    0.00000896
     atom   22 type  1   force =     0.00000046    0.00000973    0.00001288
     atom   23 type  2   force =    -0.00000009    0.00000295   -0.00000389
     atom   24 type  2   force =    -0.00000118    0.00000361   -0.00000526

     Total force =     0.090593     Total SCF correction =     0.000047

     init_run     :     18.24s CPU     18.79s WALL (       1 calls)
     electrons    :    882.15s CPU    910.46s WALL (       1 calls)
     forces       :      9.23s CPU      9.34s WALL (       1 calls)

     Called by init_run:
     wfcinit      :      9.90s CPU     10.30s WALL (       1 calls)
     wfcinit:atom :      0.05s CPU      0.06s WALL (       7 calls)
     wfcinit:wfcr :      9.42s CPU      9.79s WALL (       7 calls)
     potinit      :      3.03s CPU      3.10s WALL (       1 calls)
     hinit0       :      4.47s CPU      4.51s WALL (       1 calls)

     Called by electrons:
     c_bands      :    789.86s CPU    814.28s WALL (      22 calls)
     sum_band     :     77.37s CPU     80.56s WALL (      22 calls)
     v_of_rho     :      8.78s CPU      9.27s WALL (      23 calls)
     v_h          :      0.49s CPU      0.52s WALL (      23 calls)
     v_xc         :      8.71s CPU      9.19s WALL (      24 calls)
     newd         :      4.80s CPU      4.89s WALL (      23 calls)
     mix_rho      :      0.49s CPU      0.52s WALL (      22 calls)

     Called by c_bands:
     init_us_2    :      4.76s CPU      4.85s WALL (     322 calls)
     init_us_2:cp :      4.76s CPU      4.85s WALL (     322 calls)
     cegterg      :    673.45s CPU    697.27s WALL (     154 calls)

     Called by sum_band:
     sum_band:wei :      0.03s CPU      0.04s WALL (      22 calls)
     sum_band:loo :     70.37s CPU     72.95s WALL (      22 calls)
     sum_band:buf :      0.46s CPU      0.47s WALL (     154 calls)
     sum_band:ini :      1.52s CPU      1.53s WALL (     154 calls)
     sum_band:cal :     24.74s CPU     24.98s WALL (     154 calls)
     sum_band:bec :      0.14s CPU      0.14s WALL (     154 calls)
     addusdens    :      2.22s CPU      2.63s WALL (      22 calls)
     addusd:skk   :      0.05s CPU      0.05s WALL (      44 calls)
     addusd:dgemm :      0.28s CPU      0.59s WALL (      44 calls)
     addusd:qvan2 :      1.52s CPU      1.54s WALL (      44 calls)

     Called by *egterg:
     cdiaghg      :     45.32s CPU     46.52s WALL (    1033 calls)
     cegterg:over :     58.70s CPU     59.15s WALL (     879 calls)
     cegterg:upda :     37.14s CPU     37.97s WALL (     879 calls)
     cegterg:last :     82.14s CPU     82.96s WALL (     542 calls)
     cdiaghg:chol :      2.70s CPU      2.73s WALL (    1033 calls)
     cdiaghg:inve :      0.70s CPU      0.71s WALL (    1033 calls)
     cdiaghg:para :      8.38s CPU      9.18s WALL (    2066 calls)
     h_psi        :    391.99s CPU    410.14s WALL (    1040 calls)
     s_psi        :     50.96s CPU     51.29s WALL (    1040 calls)
     g_psi        :      1.41s CPU      1.43s WALL (     879 calls)

     Called by h_psi:
     h_psi:calbec :     58.95s CPU     59.76s WALL (    1040 calls)
     vloc_psi     :    279.58s CPU    295.48s WALL (    1040 calls)
     add_vuspsi   :     52.30s CPU     52.61s WALL (    1040 calls)

     General routines
     calbec       :     86.54s CPU     87.63s WALL (    1222 calls)
     fft          :      7.26s CPU      7.75s WALL (     308 calls)
     ffts         :      0.60s CPU      0.62s WALL (      45 calls)
     fftw         :    280.60s CPU    297.20s WALL (  139358 calls)
     interpolate  :      1.03s CPU      1.07s WALL (      23 calls)

     Parallel routines

     PWSCF        :  15m11.03s CPU  15m40.05s WALL


   This run was terminated on:   2:35:53   2Sep2025            

=------------------------------------------------------------------------------=
   JOB DONE.
=------------------------------------------------------------------------------=
Note: The following floating-point exceptions are signalling: IEEE_UNDERFLOW_FLAG IEEE_DENORMAL
Note: The following floating-point exceptions are signalling: IEEE_UNDERFLOW_FLAG IEEE_DENORMAL
Note: The following floating-point exceptions are signalling: IEEE_UNDERFLOW_FLAG IEEE_DENORMAL
Note: The following floating-point exceptions are signalling: IEEE_UNDERFLOW_FLAG IEEE_DENORMAL
Note: The following floating-point exceptions are signalling: IEEE_UNDERFLOW_FLAG IEEE_DENORMAL
Note: The following floating-point exceptions are signalling: IEEE_UNDERFLOW_FLAG IEEE_DENORMAL
Note: The following floating-point exceptions are signalling: IEEE_UNDERFLOW_FLAG IEEE_DENORMAL
Note: The following floating-point exceptions are signalling: IEEE_UNDERFLOW_FLAG IEEE_DENORMAL
Note: The following floating-point exceptions are signalling: IEEE_UNDERFLOW_FLAG IEEE_DENORMAL
Note: The following floating-point exceptions are signalling: IEEE_UNDERFLOW_FLAG IEEE_DENORMAL
Note: The following floating-point exceptions are signalling: IEEE_UNDERFLOW_FLAG IEEE_DENORMAL
Note: The following floating-point exceptions are signalling: IEEE_UNDERFLOW_FLAG IEEE_DENORMAL
Note: The following floating-point exceptions are signalling: IEEE_UNDERFLOW_FLAG IEEE_DENORMAL
Note: The following floating-point exceptions are signalling: IEEE_UNDERFLOW_FLAG IEEE_DENORMAL
Note: The following floating-point exceptions are signalling: IEEE_UNDERFLOW_FLAG IEEE_DENORMAL
Note: The following floating-point exceptions are signalling: IEEE_UNDERFLOW_FLAG IEEE_DENORMAL
Note: The following floating-point exceptions are signalling: IEEE_UNDERFLOW_FLAG IEEE_DENORMAL
Note: The following floating-point exceptions are signalling: IEEE_UNDERFLOW_FLAG IEEE_DENORMAL
Note: The following floating-point exceptions are signalling: IEEE_UNDERFLOW_FLAG IEEE_DENORMAL
Note: The following floating-point exceptions are signalling: IEEE_UNDERFLOW_FLAG IEEE_DENORMAL
Note: The following floating-point exceptions are signalling: IEEE_UNDERFLOW_FLAG IEEE_DENORMAL
Note: The following floating-point exceptions are signalling: IEEE_UNDERFLOW_FLAG IEEE_DENORMAL
Note: The following floating-point exceptions are signalling: IEEE_UNDERFLOW_FLAG IEEE_DENORMAL
Note: The following floating-point exceptions are signalling: IEEE_UNDERFLOW_FLAG IEEE_DENORMAL
Note: The following floating-point exceptions are signalling: IEEE_UNDERFLOW_FLAG IEEE_DENORMAL
Note: The following floating-point exceptions are signalling: IEEE_UNDERFLOW_FLAG IEEE_DENORMAL
Note: The following floating-point exceptions are signalling: IEEE_UNDERFLOW_FLAG IEEE_DENORMAL
Note: The following floating-point exceptions are signalling: IEEE_UNDERFLOW_FLAG IEEE_DENORMAL
Note: The following floating-point exceptions are signalling: IEEE_UNDERFLOW_FLAG IEEE_DENORMAL
Note: The following floating-point exceptions are signalling: IEEE_UNDERFLOW_FLAG IEEE_DENORMAL
Note: The following floating-point exceptions are signalling: IEEE_UNDERFLOW_FLAG IEEE_DENORMAL
Note: The following floating-point exceptions are signalling: IEEE_UNDERFLOW_FLAG IEEE_DENORMAL
Note: The following floating-point exceptions are signalling: IEEE_UNDERFLOW_FLAG IEEE_DENORMAL
Note: The following floating-point exceptions are signalling: IEEE_UNDERFLOW_FLAG IEEE_DENORMAL
Note: The following floating-point exceptions are signalling: IEEE_UNDERFLOW_FLAG IEEE_DENORMAL
Note: The following floating-point exceptions are signalling: IEEE_UNDERFLOW_FLAG IEEE_DENORMAL
Note: The following floating-point exceptions are signalling: IEEE_UNDERFLOW_FLAG IEEE_DENORMAL
Note: The following floating-point exceptions are signalling: IEEE_UNDERFLOW_FLAG IEEE_DENORMAL
Note: The following floating-point exceptions are signalling: IEEE_UNDERFLOW_FLAG IEEE_DENORMAL
Note: The following floating-point exceptions are signalling: IEEE_UNDERFLOW_FLAG IEEE_DENORMAL
Note: The following floating-point exceptions are signalling: IEEE_UNDERFLOW_FLAG IEEE_DENORMAL
Note: The following floating-point exceptions are signalling: IEEE_UNDERFLOW_FLAG IEEE_DENORMAL
Note: The following floating-point exceptions are signalling: IEEE_UNDERFLOW_FLAG IEEE_DENORMAL
Note: The following floating-point exceptions are signalling: IEEE_UNDERFLOW_FLAG IEEE_DENORMAL
Note: The following floating-point exceptions are signalling: IEEE_UNDERFLOW_FLAG IEEE_DENORMAL
Note: The following floating-point exceptions are signalling: IEEE_UNDERFLOW_FLAG IEEE_DENORMAL
Note: The following floating-point exceptions are signalling: IEEE_UNDERFLOW_FLAG IEEE_DENORMAL
Note: The following floating-point exceptions are signalling: IEEE_UNDERFLOW_FLAG IEEE_DENORMAL
Note: The following floating-point exceptions are signalling: IEEE_UNDERFLOW_FLAG IEEE_DENORMAL
Note: The following floating-point exceptions are signalling: IEEE_UNDERFLOW_FLAG IEEE_DENORMAL
Note: The following floating-point exceptions are signalling: IEEE_UNDERFLOW_FLAG IEEE_DENORMAL
Note: The following floating-point exceptions are signalling: IEEE_UNDERFLOW_FLAG IEEE_DENORMAL
Note: The following floating-point exceptions are signalling: IEEE_UNDERFLOW_FLAG IEEE_DENORMAL
Note: The following floating-point exceptions are signalling: IEEE_UNDERFLOW_FLAG IEEE_DENORMAL
Note: The following floating-point exceptions are signalling: IEEE_UNDERFLOW_FLAG IEEE_DENORMAL
Note: The following floating-point exceptions are signalling: IEEE_UNDERFLOW_FLAG IEEE_DENORMAL
Note: The following floating-point exceptions are signalling: IEEE_UNDERFLOW_FLAG IEEE_DENORMAL
Note: The following floating-point exceptions are signalling: IEEE_UNDERFLOW_FLAG IEEE_DENORMAL
Note: The following floating-point exceptions are signalling: IEEE_UNDERFLOW_FLAG IEEE_DENORMAL
Note: The following floating-point exceptions are signalling: IEEE_UNDERFLOW_FLAG IEEE_DENORMAL
Note: The following floating-point exceptions are signalling: IEEE_UNDERFLOW_FLAG IEEE_DENORMAL
Note: The following floating-point exceptions are signalling: IEEE_UNDERFLOW_FLAG IEEE_DENORMAL
Note: The following floating-point exceptions are signalling: IEEE_UNDERFLOW_FLAG IEEE_DENORMAL
Note: The following floating-point exceptions are signalling: IEEE_UNDERFLOW_FLAG IEEE_DENORMAL
