
     Program PWSCF v.7.0 starts on  2Sep2025 at  4: 2:31 

     This program is part of the open-source Quantum ESPRESSO suite
     for quantum simulation of materials; please cite
         "P. Giannozzi et al., J. Phys.:Condens. Matter 21 395502 (2009);
         "P. Giannozzi et al., J. Phys.:Condens. Matter 29 465901 (2017);
         "P. Giannozzi et al., J. Chem. Phys. 152 154105 (2020);
          URL http://www.quantum-espresso.org", 
     in publications or presentations arising from this work. More details at
     http://www.quantum-espresso.org/quote

     Parallel version (MPI & OpenMP), running on      64 processor cores
     Number of MPI processes:                64
     Threads/MPI process:                     1

     MPI processes distributed on     1 nodes
     K-points division:     npool     =      16
     R & G space division:  proc/nbgrp/npool/nimage =       4
     107497 MiB available memory on the printing compute node when the environment starts

     Reading input from /home/jvc/QEspresso7.2/ZnO_database/scripts/cell321.in/ZnO-3.07-1.49-321.in
Warning: card &CELL ignored
Warning: card / ignored
Warning: card &FCP ignored
Warning: card / ignored
Warning: card &RISM ignored
Warning: card / ignored

     Current dimensions of program PWSCF are:
     Max number of different atomic species (ntypx) = 10
     Max number of k-points (npk) =  40000
     Max angular momentum in pseudopotentials (lmaxx) =  4
     file Zn.upf: wavefunction(s)  3D renormalized
     Found identity + ( -0.0000 -0.5000  0.0000) symmetry
     This is a supercell, fractional translations are disabled

     Subspace diagonalization in iterative solution of the eigenvalue problem:
     one sub-group per band group will be used
     scalapack distributed-memory algorithm (size of sub-group:  2*  2 procs)


     Parallelization info
     --------------------
     sticks:   dense  smooth     PW     G-vecs:    dense   smooth      PW
     Min        1391     698    204                51047    18051    2868
     Max        1393     699    206                51048    18052    2869
     Sum        5567    2793    821               204189    72207   11473

     Using Slab Decomposition



     bravais-lattice index     =            0
     lattice parameter (alat)  =      17.4244  a.u.
     unit-cell volume          =    1512.0878 (a.u.)^3
     number of atoms/cell      =           24
     number of atomic types    =            2
     number of electrons       =       216.00
     number of Kohn-Sham states=          108
     kinetic-energy cutoff     =      50.0000  Ry
     charge density cutoff     =     400.0000  Ry
     scf convergence threshold =      1.0E-08
     mixing beta               =       0.3000
     number of iterations used =            8  plain     mixing
     Exchange-correlation= PBE
                           (   1   4   3   4   0   0   0)

     celldm(1)=  17.424368  celldm(2)=   0.000000  celldm(3)=   0.000000
     celldm(4)=   0.000000  celldm(5)=   0.000000  celldm(6)=   0.000000

     crystal axes: (cart. coord. in units of alat)
               a(1) = (   1.000000   0.000000   0.000000 )  
               a(2) = (  -0.333333   0.577350   0.000000 )  
               a(3) = (   0.000000   0.000000   0.495070 )  

     reciprocal axes: (cart. coord. in units 2 pi/alat)
               b(1) = (  1.000000  0.577350 -0.000000 )  
               b(2) = (  0.000000  1.732051  0.000000 )  
               b(3) = (  0.000000 -0.000000  2.019917 )  


     PseudoPot. # 1 for Zn read from file:
     /home/jvc/QEspresso7.2/ZnO_database/pseudos/Zn.upf
     MD5 check sum: 7f56cabf9682ed8c977c2f7d0c5985c5
     Pseudo is Ultrasoft + core correction, Zval = 12.0
     Generated using &quot;atomic&quot; code by A. Dal Corso  v.6.2.2
     Using radial grid of 1201 points,  6 beta functions with: 
                l(1) =   0
                l(2) =   0
                l(3) =   1
                l(4) =   1
                l(5) =   2
                l(6) =   2
     Q(r) pseudized with 0 coefficients 


     PseudoPot. # 2 for O  read from file:
     /home/jvc/QEspresso7.2/ZnO_database/pseudos/O.upf
     MD5 check sum: 91400c9766925bcf19f520983a725ff0
     Pseudo is Ultrasoft + core correction, Zval =  6.0
     Generated using &quot;atomic&quot; code by A. Dal Corso  v.6.3MaX
     Using radial grid of 1095 points,  4 beta functions with: 
                l(1) =   0
                l(2) =   0
                l(3) =   1
                l(4) =   1
     Q(r) pseudized with 0 coefficients 


     atomic species   valence    mass     pseudopotential
        Zn            12.00    65.38000     Zn( 1.00)
        O              6.00    15.99900     O ( 1.00)

     No symmetry found


                                    s                        frac. trans.

      isym =  1     identity                                     

 cryst.   s( 1) = (     1          0          0      )
                  (     0          1          0      )
                  (     0          0          1      )

 cart.    s( 1) = (  1.0000000 -0.0000000  0.0000000 )
                  (  0.0000000  1.0000000  0.0000000 )
                  (  0.0000000  0.0000000  1.0000000 )


   Cartesian axes

     site n.     atom                  positions (alat units)
         1           Zn  tau(   1) = (   0.1666667   0.0962250   0.2478486  )
         2           Zn  tau(   2) = (   0.0000000   0.1924501   0.0003137  )
         3           O   tau(   3) = (   0.1666667   0.0962250   0.4355013  )
         4           O   tau(   4) = (   0.0000000   0.1924501   0.1879664  )
         5           Zn  tau(   5) = (  -0.0000000   0.3849002   0.2478486  )
         6           Zn  tau(   6) = (  -0.1666667   0.4811252   0.0003137  )
         7           O   tau(   7) = (  -0.0000000   0.3849002   0.4355013  )
         8           O   tau(   8) = (  -0.1666667   0.4811252   0.1879664  )
         9           Zn  tau(   9) = (   0.5000000   0.0962250   0.2478486  )
        10           Zn  tau(  10) = (   0.3333333   0.1924501   0.0003137  )
        11           O   tau(  11) = (   0.5000000   0.0962250   0.4355013  )
        12           O   tau(  12) = (   0.3333333   0.1924501   0.1879664  )
        13           Zn  tau(  13) = (   0.3333333   0.3849002   0.2478486  )
        14           Zn  tau(  14) = (   0.1666667   0.4811252   0.0003137  )
        15           O   tau(  15) = (   0.3333333   0.3849002   0.4355013  )
        16           O   tau(  16) = (   0.1666667   0.4811252   0.1879664  )
        17           Zn  tau(  17) = (   0.8333333   0.0962250   0.2478486  )
        18           Zn  tau(  18) = (   0.6666667   0.1924501   0.0003137  )
        19           O   tau(  19) = (   0.8333333   0.0962250   0.4355013  )
        20           O   tau(  20) = (   0.6666667   0.1924501   0.1879664  )
        21           Zn  tau(  21) = (   0.6666667   0.3849002   0.2478486  )
        22           Zn  tau(  22) = (   0.5000000   0.4811252   0.0003137  )
        23           O   tau(  23) = (   0.6666667   0.3849002   0.4355013  )
        24           O   tau(  24) = (   0.5000000   0.4811252   0.1879664  )

   Crystallographic axes

     site n.     atom                  positions (cryst. coord.)
         1           Zn  tau(   1) = (  0.2222222  0.1666667  0.5006336  )
         2           Zn  tau(   2) = (  0.1111111  0.3333333  0.0006336  )
         3           O   tau(   3) = (  0.2222222  0.1666667  0.8796764  )
         4           O   tau(   4) = (  0.1111111  0.3333333  0.3796764  )
         5           Zn  tau(   5) = (  0.2222222  0.6666667  0.5006336  )
         6           Zn  tau(   6) = (  0.1111111  0.8333333  0.0006336  )
         7           O   tau(   7) = (  0.2222222  0.6666667  0.8796764  )
         8           O   tau(   8) = (  0.1111111  0.8333333  0.3796764  )
         9           Zn  tau(   9) = (  0.5555556  0.1666667  0.5006336  )
        10           Zn  tau(  10) = (  0.4444444  0.3333333  0.0006336  )
        11           O   tau(  11) = (  0.5555556  0.1666667  0.8796764  )
        12           O   tau(  12) = (  0.4444444  0.3333333  0.3796764  )
        13           Zn  tau(  13) = (  0.5555556  0.6666667  0.5006336  )
        14           Zn  tau(  14) = (  0.4444444  0.8333333  0.0006336  )
        15           O   tau(  15) = (  0.5555556  0.6666667  0.8796764  )
        16           O   tau(  16) = (  0.4444444  0.8333333  0.3796764  )
        17           Zn  tau(  17) = (  0.8888889  0.1666667  0.5006336  )
        18           Zn  tau(  18) = (  0.7777778  0.3333333  0.0006336  )
        19           O   tau(  19) = (  0.8888889  0.1666667  0.8796764  )
        20           O   tau(  20) = (  0.7777778  0.3333333  0.3796764  )
        21           Zn  tau(  21) = (  0.8888889  0.6666667  0.5006336  )
        22           Zn  tau(  22) = (  0.7777778  0.8333333  0.0006336  )
        23           O   tau(  23) = (  0.8888889  0.6666667  0.8796764  )
        24           O   tau(  24) = (  0.7777778  0.8333333  0.3796764  )

     number of k points=   112
                       cart. coord. in units 2pi/alat
        k(    1) = (   0.0000000   0.0000000   0.0000000), wk =   0.0092593
        k(    2) = (   0.0000000   0.0000000   0.3366528), wk =   0.0185185
        k(    3) = (   0.0000000   0.0000000   0.6733056), wk =   0.0185185
        k(    4) = (   0.0000000   0.0000000  -1.0099584), wk =   0.0092593
        k(    5) = (   0.0000000   0.2886751   0.0000000), wk =   0.0185185
        k(    6) = (   0.0000000   0.2886751   0.3366528), wk =   0.0185185
        k(    7) = (   0.0000000   0.2886751   0.6733056), wk =   0.0185185
        k(    8) = (   0.0000000   0.2886751  -1.0099584), wk =   0.0185185
        k(    9) = (   0.0000000   0.5773503   0.0000000), wk =   0.0185185
        k(   10) = (   0.0000000   0.5773503   0.3366528), wk =   0.0185185
        k(   11) = (   0.0000000   0.5773503   0.6733056), wk =   0.0185185
        k(   12) = (   0.0000000   0.5773503  -1.0099584), wk =   0.0185185
        k(   13) = (   0.0000000  -0.8660254   0.0000000), wk =   0.0092593
        k(   14) = (   0.0000000  -0.8660254   0.3366528), wk =   0.0185185
        k(   15) = (   0.0000000  -0.8660254   0.6733056), wk =   0.0185185
        k(   16) = (   0.0000000  -0.8660254  -1.0099584), wk =   0.0092593
        k(   17) = (   0.1666667   0.0962250   0.0000000), wk =   0.0185185
        k(   18) = (   0.1666667   0.0962250   0.3366528), wk =   0.0185185
        k(   19) = (   0.1666667   0.0962250   0.6733056), wk =   0.0185185
        k(   20) = (   0.1666667   0.0962250  -1.0099584), wk =   0.0185185
        k(   21) = (   0.1666667   0.3849002   0.0000000), wk =   0.0185185
        k(   22) = (   0.1666667   0.3849002   0.3366528), wk =   0.0185185
        k(   23) = (   0.1666667   0.3849002   0.6733056), wk =   0.0185185
        k(   24) = (   0.1666667   0.3849002  -1.0099584), wk =   0.0185185
        k(   25) = (   0.1666667   0.6735753   0.0000000), wk =   0.0185185
        k(   26) = (   0.1666667   0.6735753   0.3366528), wk =   0.0185185
        k(   27) = (   0.1666667   0.6735753   0.6733056), wk =   0.0185185
        k(   28) = (   0.1666667   0.6735753  -1.0099584), wk =   0.0185185
        k(   29) = (   0.1666667  -0.7698004   0.0000000), wk =   0.0185185
        k(   30) = (   0.1666667  -0.7698004   0.3366528), wk =   0.0185185
        k(   31) = (   0.1666667  -0.7698004   0.6733056), wk =   0.0185185
        k(   32) = (   0.1666667  -0.7698004  -1.0099584), wk =   0.0185185
        k(   33) = (   0.1666667  -0.4811252   0.0000000), wk =   0.0185185
        k(   34) = (   0.1666667  -0.4811252   0.3366528), wk =   0.0185185
        k(   35) = (   0.1666667  -0.4811252   0.6733056), wk =   0.0185185
        k(   36) = (   0.1666667  -0.4811252  -1.0099584), wk =   0.0185185
        k(   37) = (   0.1666667  -0.1924501   0.0000000), wk =   0.0185185
        k(   38) = (   0.1666667  -0.1924501   0.3366528), wk =   0.0185185
        k(   39) = (   0.1666667  -0.1924501   0.6733056), wk =   0.0185185
        k(   40) = (   0.1666667  -0.1924501  -1.0099584), wk =   0.0185185
        k(   41) = (   0.3333333   0.1924501   0.0000000), wk =   0.0185185
        k(   42) = (   0.3333333   0.1924501   0.3366528), wk =   0.0185185
        k(   43) = (   0.3333333   0.1924501   0.6733056), wk =   0.0185185
        k(   44) = (   0.3333333   0.1924501  -1.0099584), wk =   0.0185185
        k(   45) = (   0.3333333   0.4811252   0.0000000), wk =   0.0185185
        k(   46) = (   0.3333333   0.4811252   0.3366528), wk =   0.0185185
        k(   47) = (   0.3333333   0.4811252   0.6733056), wk =   0.0185185
        k(   48) = (   0.3333333   0.4811252  -1.0099584), wk =   0.0185185
        k(   49) = (   0.3333333   0.7698004   0.0000000), wk =   0.0185185
        k(   50) = (   0.3333333   0.7698004   0.3366528), wk =   0.0185185
        k(   51) = (   0.3333333   0.7698004   0.6733056), wk =   0.0185185
        k(   52) = (   0.3333333   0.7698004  -1.0099584), wk =   0.0185185
        k(   53) = (   0.3333333  -0.6735753   0.0000000), wk =   0.0185185
        k(   54) = (   0.3333333  -0.6735753   0.3366528), wk =   0.0185185
        k(   55) = (   0.3333333  -0.6735753   0.6733056), wk =   0.0185185
        k(   56) = (   0.3333333  -0.6735753  -1.0099584), wk =   0.0185185
        k(   57) = (   0.3333333  -0.3849002   0.0000000), wk =   0.0185185
        k(   58) = (   0.3333333  -0.3849002   0.3366528), wk =   0.0185185
        k(   59) = (   0.3333333  -0.3849002   0.6733056), wk =   0.0185185
        k(   60) = (   0.3333333  -0.3849002  -1.0099584), wk =   0.0185185
        k(   61) = (   0.3333333  -0.0962250   0.0000000), wk =   0.0185185
        k(   62) = (   0.3333333  -0.0962250   0.3366528), wk =   0.0185185
        k(   63) = (   0.3333333  -0.0962250   0.6733056), wk =   0.0185185
        k(   64) = (   0.3333333  -0.0962250  -1.0099584), wk =   0.0185185
        k(   65) = (  -0.5000000  -0.2886751   0.0000000), wk =   0.0092593
        k(   66) = (  -0.5000000  -0.2886751   0.3366528), wk =   0.0185185
        k(   67) = (  -0.5000000  -0.2886751   0.6733056), wk =   0.0185185
        k(   68) = (  -0.5000000  -0.2886751  -1.0099584), wk =   0.0092593
        k(   69) = (  -0.5000000   0.0000000   0.0000000), wk =   0.0185185
        k(   70) = (  -0.5000000   0.0000000   0.3366528), wk =   0.0185185
        k(   71) = (  -0.5000000   0.0000000   0.6733056), wk =   0.0185185
        k(   72) = (  -0.5000000   0.0000000  -1.0099584), wk =   0.0185185
        k(   73) = (  -0.5000000   0.2886751   0.0000000), wk =   0.0185185
        k(   74) = (  -0.5000000   0.2886751   0.3366528), wk =   0.0185185
        k(   75) = (  -0.5000000   0.2886751   0.6733056), wk =   0.0185185
        k(   76) = (  -0.5000000   0.2886751  -1.0099584), wk =   0.0185185
        k(   77) = (  -0.5000000  -1.1547005   0.0000000), wk =   0.0092593
        k(   78) = (  -0.5000000  -1.1547005   0.3366528), wk =   0.0185185
        k(   79) = (  -0.5000000  -1.1547005   0.6733056), wk =   0.0185185
        k(   80) = (  -0.5000000  -1.1547005  -1.0099584), wk =   0.0092593
        k(   81) = (   0.0000000  -0.2886751   0.3366528), wk =   0.0185185
        k(   82) = (   0.0000000  -0.2886751   0.6733056), wk =   0.0185185
        k(   83) = (   0.0000000  -0.5773503   0.3366528), wk =   0.0185185
        k(   84) = (   0.0000000  -0.5773503   0.6733056), wk =   0.0185185
        k(   85) = (  -0.1666667  -0.0962250   0.3366528), wk =   0.0185185
        k(   86) = (  -0.1666667  -0.0962250   0.6733056), wk =   0.0185185
        k(   87) = (  -0.1666667  -0.3849002   0.3366528), wk =   0.0185185
        k(   88) = (  -0.1666667  -0.3849002   0.6733056), wk =   0.0185185
        k(   89) = (  -0.1666667  -0.6735753   0.3366528), wk =   0.0185185
        k(   90) = (  -0.1666667  -0.6735753   0.6733056), wk =   0.0185185
        k(   91) = (  -0.1666667   0.7698004   0.3366528), wk =   0.0185185
        k(   92) = (  -0.1666667   0.7698004   0.6733056), wk =   0.0185185
        k(   93) = (  -0.1666667   0.4811252   0.3366528), wk =   0.0185185
        k(   94) = (  -0.1666667   0.4811252   0.6733056), wk =   0.0185185
        k(   95) = (  -0.1666667   0.1924501   0.3366528), wk =   0.0185185
        k(   96) = (  -0.1666667   0.1924501   0.6733056), wk =   0.0185185
        k(   97) = (  -0.3333333  -0.1924501   0.3366528), wk =   0.0185185
        k(   98) = (  -0.3333333  -0.1924501   0.6733056), wk =   0.0185185
        k(   99) = (  -0.3333333  -0.4811252   0.3366528), wk =   0.0185185
        k(  100) = (  -0.3333333  -0.4811252   0.6733056), wk =   0.0185185
        k(  101) = (  -0.3333333  -0.7698004   0.3366528), wk =   0.0185185
        k(  102) = (  -0.3333333  -0.7698004   0.6733056), wk =   0.0185185
        k(  103) = (  -0.3333333   0.6735753   0.3366528), wk =   0.0185185
        k(  104) = (  -0.3333333   0.6735753   0.6733056), wk =   0.0185185
        k(  105) = (  -0.3333333   0.3849002   0.3366528), wk =   0.0185185
        k(  106) = (  -0.3333333   0.3849002   0.6733056), wk =   0.0185185
        k(  107) = (  -0.3333333   0.0962250   0.3366528), wk =   0.0185185
        k(  108) = (  -0.3333333   0.0962250   0.6733056), wk =   0.0185185
        k(  109) = (   0.5000000  -0.0000000   0.3366528), wk =   0.0185185
        k(  110) = (   0.5000000  -0.0000000   0.6733056), wk =   0.0185185
        k(  111) = (   0.5000000  -0.2886751   0.3366528), wk =   0.0185185
        k(  112) = (   0.5000000  -0.2886751   0.6733056), wk =   0.0185185

                       cryst. coord.
        k(    1) = (   0.0000000   0.0000000   0.0000000), wk =   0.0092593
        k(    2) = (   0.0000000   0.0000000   0.1666667), wk =   0.0185185
        k(    3) = (   0.0000000   0.0000000   0.3333333), wk =   0.0185185
        k(    4) = (   0.0000000   0.0000000  -0.5000000), wk =   0.0092593
        k(    5) = (   0.0000000   0.1666667   0.0000000), wk =   0.0185185
        k(    6) = (   0.0000000   0.1666667   0.1666667), wk =   0.0185185
        k(    7) = (   0.0000000   0.1666667   0.3333333), wk =   0.0185185
        k(    8) = (   0.0000000   0.1666667  -0.5000000), wk =   0.0185185
        k(    9) = (   0.0000000   0.3333333   0.0000000), wk =   0.0185185
        k(   10) = (   0.0000000   0.3333333   0.1666667), wk =   0.0185185
        k(   11) = (   0.0000000   0.3333333   0.3333333), wk =   0.0185185
        k(   12) = (   0.0000000   0.3333333  -0.5000000), wk =   0.0185185
        k(   13) = (   0.0000000  -0.5000000   0.0000000), wk =   0.0092593
        k(   14) = (   0.0000000  -0.5000000   0.1666667), wk =   0.0185185
        k(   15) = (   0.0000000  -0.5000000   0.3333333), wk =   0.0185185
        k(   16) = (   0.0000000  -0.5000000  -0.5000000), wk =   0.0092593
        k(   17) = (   0.1666667  -0.0000000   0.0000000), wk =   0.0185185
        k(   18) = (   0.1666667  -0.0000000   0.1666667), wk =   0.0185185
        k(   19) = (   0.1666667  -0.0000000   0.3333333), wk =   0.0185185
        k(   20) = (   0.1666667  -0.0000000  -0.5000000), wk =   0.0185185
        k(   21) = (   0.1666667   0.1666667   0.0000000), wk =   0.0185185
        k(   22) = (   0.1666667   0.1666667   0.1666667), wk =   0.0185185
        k(   23) = (   0.1666667   0.1666667   0.3333333), wk =   0.0185185
        k(   24) = (   0.1666667   0.1666667  -0.5000000), wk =   0.0185185
        k(   25) = (   0.1666667   0.3333333   0.0000000), wk =   0.0185185
        k(   26) = (   0.1666667   0.3333333   0.1666667), wk =   0.0185185
        k(   27) = (   0.1666667   0.3333333   0.3333333), wk =   0.0185185
        k(   28) = (   0.1666667   0.3333333  -0.5000000), wk =   0.0185185
        k(   29) = (   0.1666667  -0.5000000   0.0000000), wk =   0.0185185
        k(   30) = (   0.1666667  -0.5000000   0.1666667), wk =   0.0185185
        k(   31) = (   0.1666667  -0.5000000   0.3333333), wk =   0.0185185
        k(   32) = (   0.1666667  -0.5000000  -0.5000000), wk =   0.0185185
        k(   33) = (   0.1666667  -0.3333333   0.0000000), wk =   0.0185185
        k(   34) = (   0.1666667  -0.3333333   0.1666667), wk =   0.0185185
        k(   35) = (   0.1666667  -0.3333333   0.3333333), wk =   0.0185185
        k(   36) = (   0.1666667  -0.3333333  -0.5000000), wk =   0.0185185
        k(   37) = (   0.1666667  -0.1666667   0.0000000), wk =   0.0185185
        k(   38) = (   0.1666667  -0.1666667   0.1666667), wk =   0.0185185
        k(   39) = (   0.1666667  -0.1666667   0.3333333), wk =   0.0185185
        k(   40) = (   0.1666667  -0.1666667  -0.5000000), wk =   0.0185185
        k(   41) = (   0.3333333  -0.0000000   0.0000000), wk =   0.0185185
        k(   42) = (   0.3333333  -0.0000000   0.1666667), wk =   0.0185185
        k(   43) = (   0.3333333  -0.0000000   0.3333333), wk =   0.0185185
        k(   44) = (   0.3333333  -0.0000000  -0.5000000), wk =   0.0185185
        k(   45) = (   0.3333333   0.1666667   0.0000000), wk =   0.0185185
        k(   46) = (   0.3333333   0.1666667   0.1666667), wk =   0.0185185
        k(   47) = (   0.3333333   0.1666667   0.3333333), wk =   0.0185185
        k(   48) = (   0.3333333   0.1666667  -0.5000000), wk =   0.0185185
        k(   49) = (   0.3333333   0.3333333   0.0000000), wk =   0.0185185
        k(   50) = (   0.3333333   0.3333333   0.1666667), wk =   0.0185185
        k(   51) = (   0.3333333   0.3333333   0.3333333), wk =   0.0185185
        k(   52) = (   0.3333333   0.3333333  -0.5000000), wk =   0.0185185
        k(   53) = (   0.3333333  -0.5000000   0.0000000), wk =   0.0185185
        k(   54) = (   0.3333333  -0.5000000   0.1666667), wk =   0.0185185
        k(   55) = (   0.3333333  -0.5000000   0.3333333), wk =   0.0185185
        k(   56) = (   0.3333333  -0.5000000  -0.5000000), wk =   0.0185185
        k(   57) = (   0.3333333  -0.3333333   0.0000000), wk =   0.0185185
        k(   58) = (   0.3333333  -0.3333333   0.1666667), wk =   0.0185185
        k(   59) = (   0.3333333  -0.3333333   0.3333333), wk =   0.0185185
        k(   60) = (   0.3333333  -0.3333333  -0.5000000), wk =   0.0185185
        k(   61) = (   0.3333333  -0.1666667   0.0000000), wk =   0.0185185
        k(   62) = (   0.3333333  -0.1666667   0.1666667), wk =   0.0185185
        k(   63) = (   0.3333333  -0.1666667   0.3333333), wk =   0.0185185
        k(   64) = (   0.3333333  -0.1666667  -0.5000000), wk =   0.0185185
        k(   65) = (  -0.5000000   0.0000000   0.0000000), wk =   0.0092593
        k(   66) = (  -0.5000000   0.0000000   0.1666667), wk =   0.0185185
        k(   67) = (  -0.5000000   0.0000000   0.3333333), wk =   0.0185185
        k(   68) = (  -0.5000000   0.0000000  -0.5000000), wk =   0.0092593
        k(   69) = (  -0.5000000   0.1666667   0.0000000), wk =   0.0185185
        k(   70) = (  -0.5000000   0.1666667   0.1666667), wk =   0.0185185
        k(   71) = (  -0.5000000   0.1666667   0.3333333), wk =   0.0185185
        k(   72) = (  -0.5000000   0.1666667  -0.5000000), wk =   0.0185185
        k(   73) = (  -0.5000000   0.3333333   0.0000000), wk =   0.0185185
        k(   74) = (  -0.5000000   0.3333333   0.1666667), wk =   0.0185185
        k(   75) = (  -0.5000000   0.3333333   0.3333333), wk =   0.0185185
        k(   76) = (  -0.5000000   0.3333333  -0.5000000), wk =   0.0185185
        k(   77) = (  -0.5000000  -0.5000000   0.0000000), wk =   0.0092593
        k(   78) = (  -0.5000000  -0.5000000   0.1666667), wk =   0.0185185
        k(   79) = (  -0.5000000  -0.5000000   0.3333333), wk =   0.0185185
        k(   80) = (  -0.5000000  -0.5000000  -0.5000000), wk =   0.0092593
        k(   81) = (   0.0000000  -0.1666667   0.1666667), wk =   0.0185185
        k(   82) = (   0.0000000  -0.1666667   0.3333333), wk =   0.0185185
        k(   83) = (   0.0000000  -0.3333333   0.1666667), wk =   0.0185185
        k(   84) = (   0.0000000  -0.3333333   0.3333333), wk =   0.0185185
        k(   85) = (  -0.1666667   0.0000000   0.1666667), wk =   0.0185185
        k(   86) = (  -0.1666667   0.0000000   0.3333333), wk =   0.0185185
        k(   87) = (  -0.1666667  -0.1666667   0.1666667), wk =   0.0185185
        k(   88) = (  -0.1666667  -0.1666667   0.3333333), wk =   0.0185185
        k(   89) = (  -0.1666667  -0.3333333   0.1666667), wk =   0.0185185
        k(   90) = (  -0.1666667  -0.3333333   0.3333333), wk =   0.0185185
        k(   91) = (  -0.1666667   0.5000000   0.1666667), wk =   0.0185185
        k(   92) = (  -0.1666667   0.5000000   0.3333333), wk =   0.0185185
        k(   93) = (  -0.1666667   0.3333333   0.1666667), wk =   0.0185185
        k(   94) = (  -0.1666667   0.3333333   0.3333333), wk =   0.0185185
        k(   95) = (  -0.1666667   0.1666667   0.1666667), wk =   0.0185185
        k(   96) = (  -0.1666667   0.1666667   0.3333333), wk =   0.0185185
        k(   97) = (  -0.3333333   0.0000000   0.1666667), wk =   0.0185185
        k(   98) = (  -0.3333333   0.0000000   0.3333333), wk =   0.0185185
        k(   99) = (  -0.3333333  -0.1666667   0.1666667), wk =   0.0185185
        k(  100) = (  -0.3333333  -0.1666667   0.3333333), wk =   0.0185185
        k(  101) = (  -0.3333333  -0.3333333   0.1666667), wk =   0.0185185
        k(  102) = (  -0.3333333  -0.3333333   0.3333333), wk =   0.0185185
        k(  103) = (  -0.3333333   0.5000000   0.1666667), wk =   0.0185185
        k(  104) = (  -0.3333333   0.5000000   0.3333333), wk =   0.0185185
        k(  105) = (  -0.3333333   0.3333333   0.1666667), wk =   0.0185185
        k(  106) = (  -0.3333333   0.3333333   0.3333333), wk =   0.0185185
        k(  107) = (  -0.3333333   0.1666667   0.1666667), wk =   0.0185185
        k(  108) = (  -0.3333333   0.1666667   0.3333333), wk =   0.0185185
        k(  109) = (   0.5000000  -0.1666667   0.1666667), wk =   0.0185185
        k(  110) = (   0.5000000  -0.1666667   0.3333333), wk =   0.0185185
        k(  111) = (   0.5000000  -0.3333333   0.1666667), wk =   0.0185185
        k(  112) = (   0.5000000  -0.3333333   0.3333333), wk =   0.0185185

     Dense  grid:   204189 G-vectors     FFT dimensions: ( 120,  75,  60)

     Smooth grid:    72207 G-vectors     FFT dimensions: (  80,  54,  40)

     Dynamical RAM for                 wfc:       3.72 MB

     Dynamical RAM for     wfc (w. buffer):      29.76 MB

     Dynamical RAM for           str. fact:       1.56 MB

     Dynamical RAM for           local pot:       0.00 MB

     Dynamical RAM for          nlocal pot:      10.74 MB

     Dynamical RAM for                qrad:       3.21 MB

     Dynamical RAM for          rho,v,vnew:       5.43 MB

     Dynamical RAM for               rhoin:       1.81 MB

     Dynamical RAM for            rho*nmix:      12.46 MB

     Dynamical RAM for           G-vectors:       3.06 MB

     Dynamical RAM for          h,s,v(r/c):       0.53 MB

     Dynamical RAM for          <psi|beta>:       0.51 MB

     Dynamical RAM for                 psi:       7.44 MB

     Dynamical RAM for                hpsi:       7.44 MB

     Dynamical RAM for                spsi:       7.44 MB

     Dynamical RAM for      wfcinit/wfcrot:      11.30 MB

     Dynamical RAM for           addusdens:      10.37 MB

     Dynamical RAM for          addusforce:      11.15 MB

     Estimated static dynamical RAM per process >      63.05 MB

     Estimated max dynamical RAM per process >      98.88 MB

     Estimated total dynamical RAM >       5.45 GB

     Check: negative core charge=   -0.000001

     Initial potential from superposition of free atoms

     starting charge     215.9553, renormalised to     216.0000
     Starting wfcs are  156 randomized atomic wfcs

     total cpu time spent up to now is       19.0 secs

     per-process dynamical memory:    82.6 Mb

     Self-consistent Calculation

     iteration #  1     ecut=    50.00 Ry     beta= 0.30
     Davidson diagonalization with overlap

---- Real-time Memory Report at c_bands before calling an iterative solver
           108 MiB given to the printing process from OS
            80 MiB allocation reported by mallinfo(arena+hblkhd)
        102174 MiB available memory on the node where the printing process lives
------------------
     ethr =  1.00E-02,  avg # of iterations =  2.2

     total cpu time spent up to now is       41.9 secs

     total energy              =   -2168.02145615 Ry
     estimated scf accuracy    <       4.14090453 Ry

     iteration #  2     ecut=    50.00 Ry     beta= 0.30
     Davidson diagonalization with overlap

---- Real-time Memory Report at c_bands before calling an iterative solver
           126 MiB given to the printing process from OS
            95 MiB allocation reported by mallinfo(arena+hblkhd)
        101421 MiB available memory on the node where the printing process lives
------------------
     ethr =  1.92E-03,  avg # of iterations =  2.2

     total cpu time spent up to now is       68.6 secs

     total energy              =   -2168.26997500 Ry
     estimated scf accuracy    <       0.82470524 Ry

     iteration #  3     ecut=    50.00 Ry     beta= 0.30
     Davidson diagonalization with overlap

---- Real-time Memory Report at c_bands before calling an iterative solver
           129 MiB given to the printing process from OS
            96 MiB allocation reported by mallinfo(arena+hblkhd)
        101457 MiB available memory on the node where the printing process lives
------------------
     ethr =  3.82E-04,  avg # of iterations =  7.4

     total cpu time spent up to now is      116.1 secs

     total energy              =   -2168.76443235 Ry
     estimated scf accuracy    <       0.50396511 Ry

     iteration #  4     ecut=    50.00 Ry     beta= 0.30
     Davidson diagonalization with overlap

---- Real-time Memory Report at c_bands before calling an iterative solver
           130 MiB given to the printing process from OS
            96 MiB allocation reported by mallinfo(arena+hblkhd)
        101420 MiB available memory on the node where the printing process lives
------------------
     ethr =  2.33E-04,  avg # of iterations =  2.0

     total cpu time spent up to now is      139.0 secs

     total energy              =   -2168.76403038 Ry
     estimated scf accuracy    <       0.13028848 Ry

     iteration #  5     ecut=    50.00 Ry     beta= 0.30
     Davidson diagonalization with overlap

---- Real-time Memory Report at c_bands before calling an iterative solver
           130 MiB given to the printing process from OS
            97 MiB allocation reported by mallinfo(arena+hblkhd)
        101446 MiB available memory on the node where the printing process lives
------------------
     ethr =  6.03E-05,  avg # of iterations = 10.2

     total cpu time spent up to now is      206.6 secs

     total energy              =   -2169.09391126 Ry
     estimated scf accuracy    <       2.42987304 Ry

     iteration #  6     ecut=    50.00 Ry     beta= 0.30
     Davidson diagonalization with overlap

---- Real-time Memory Report at c_bands before calling an iterative solver
           131 MiB given to the printing process from OS
            97 MiB allocation reported by mallinfo(arena+hblkhd)
        101419 MiB available memory on the node where the printing process lives
------------------
     ethr =  6.03E-05,  avg # of iterations =  5.2

     total cpu time spent up to now is      240.9 secs

     total energy              =   -2168.63975221 Ry
     estimated scf accuracy    <       1.28063613 Ry

     iteration #  7     ecut=    50.00 Ry     beta= 0.30
     Davidson diagonalization with overlap

---- Real-time Memory Report at c_bands before calling an iterative solver
           131 MiB given to the printing process from OS
            98 MiB allocation reported by mallinfo(arena+hblkhd)
        101445 MiB available memory on the node where the printing process lives
------------------
     ethr =  6.03E-05,  avg # of iterations =  7.3

     total cpu time spent up to now is      293.0 secs

     total energy              =   -2168.80756800 Ry
     estimated scf accuracy    <       0.03932772 Ry

     iteration #  8     ecut=    50.00 Ry     beta= 0.30
     Davidson diagonalization with overlap

---- Real-time Memory Report at c_bands before calling an iterative solver
           132 MiB given to the printing process from OS
            98 MiB allocation reported by mallinfo(arena+hblkhd)
        101397 MiB available memory on the node where the printing process lives
------------------
     ethr =  1.82E-05,  avg # of iterations =  7.3

     total cpu time spent up to now is      338.4 secs

     total energy              =   -2168.82749556 Ry
     estimated scf accuracy    <       0.02209633 Ry

     iteration #  9     ecut=    50.00 Ry     beta= 0.30
     Davidson diagonalization with overlap

---- Real-time Memory Report at c_bands before calling an iterative solver
           132 MiB given to the printing process from OS
            99 MiB allocation reported by mallinfo(arena+hblkhd)
        101439 MiB available memory on the node where the printing process lives
------------------
     ethr =  1.02E-05,  avg # of iterations =  1.8

     total cpu time spent up to now is      360.3 secs

     total energy              =   -2168.82374282 Ry
     estimated scf accuracy    <       0.00856847 Ry

     iteration # 10     ecut=    50.00 Ry     beta= 0.30
     Davidson diagonalization with overlap

---- Real-time Memory Report at c_bands before calling an iterative solver
           133 MiB given to the printing process from OS
            99 MiB allocation reported by mallinfo(arena+hblkhd)
        101464 MiB available memory on the node where the printing process lives
------------------
     ethr =  3.97E-06,  avg # of iterations =  5.3

     total cpu time spent up to now is      399.2 secs

     total energy              =   -2168.82851073 Ry
     estimated scf accuracy    <       0.00138671 Ry

     iteration # 11     ecut=    50.00 Ry     beta= 0.30
     Davidson diagonalization with overlap

---- Real-time Memory Report at c_bands before calling an iterative solver
           134 MiB given to the printing process from OS
            99 MiB allocation reported by mallinfo(arena+hblkhd)
        101398 MiB available memory on the node where the printing process lives
------------------
     ethr =  6.42E-07,  avg # of iterations =  3.4

     total cpu time spent up to now is      428.4 secs

     total energy              =   -2168.82858666 Ry
     estimated scf accuracy    <       0.00119240 Ry

     iteration # 12     ecut=    50.00 Ry     beta= 0.30
     Davidson diagonalization with overlap

---- Real-time Memory Report at c_bands before calling an iterative solver
           134 MiB given to the printing process from OS
            99 MiB allocation reported by mallinfo(arena+hblkhd)
        101438 MiB available memory on the node where the printing process lives
------------------
     ethr =  5.52E-07,  avg # of iterations =  1.1

     total cpu time spent up to now is      449.3 secs

     total energy              =   -2168.82852665 Ry
     estimated scf accuracy    <       0.00104352 Ry

     iteration # 13     ecut=    50.00 Ry     beta= 0.30
     Davidson diagonalization with overlap

---- Real-time Memory Report at c_bands before calling an iterative solver
           134 MiB given to the printing process from OS
            99 MiB allocation reported by mallinfo(arena+hblkhd)
        101431 MiB available memory on the node where the printing process lives
------------------
     ethr =  4.83E-07,  avg # of iterations =  1.1

     total cpu time spent up to now is      470.4 secs

     total energy              =   -2168.82809880 Ry
     estimated scf accuracy    <       0.00087894 Ry

     iteration # 14     ecut=    50.00 Ry     beta= 0.30
     Davidson diagonalization with overlap

---- Real-time Memory Report at c_bands before calling an iterative solver
           134 MiB given to the printing process from OS
            99 MiB allocation reported by mallinfo(arena+hblkhd)
        101441 MiB available memory on the node where the printing process lives
------------------
     ethr =  4.07E-07,  avg # of iterations =  2.8

     total cpu time spent up to now is      498.6 secs

     total energy              =   -2168.82822805 Ry
     estimated scf accuracy    <       0.00009109 Ry

     iteration # 15     ecut=    50.00 Ry     beta= 0.30
     Davidson diagonalization with overlap

---- Real-time Memory Report at c_bands before calling an iterative solver
           134 MiB given to the printing process from OS
            99 MiB allocation reported by mallinfo(arena+hblkhd)
        101443 MiB available memory on the node where the printing process lives
------------------
     ethr =  4.22E-08,  avg # of iterations =  6.5

     total cpu time spent up to now is      545.2 secs

     total energy              =   -2168.82832467 Ry
     estimated scf accuracy    <       0.00000172 Ry

     iteration # 16     ecut=    50.00 Ry     beta= 0.30
     Davidson diagonalization with overlap

---- Real-time Memory Report at c_bands before calling an iterative solver
           134 MiB given to the printing process from OS
            99 MiB allocation reported by mallinfo(arena+hblkhd)
        101409 MiB available memory on the node where the printing process lives
------------------
     ethr =  7.97E-10,  avg # of iterations = 10.9

     total cpu time spent up to now is      607.9 secs

     total energy              =   -2168.82833315 Ry
     estimated scf accuracy    <       0.00001705 Ry

     iteration # 17     ecut=    50.00 Ry     beta= 0.30
     Davidson diagonalization with overlap

---- Real-time Memory Report at c_bands before calling an iterative solver
           134 MiB given to the printing process from OS
            99 MiB allocation reported by mallinfo(arena+hblkhd)
        101371 MiB available memory on the node where the printing process lives
------------------
     ethr =  7.97E-10,  avg # of iterations =  5.4

     total cpu time spent up to now is      643.6 secs

     total energy              =   -2168.82833036 Ry
     estimated scf accuracy    <       0.00003318 Ry

     iteration # 18     ecut=    50.00 Ry     beta= 0.30
     Davidson diagonalization with overlap

---- Real-time Memory Report at c_bands before calling an iterative solver
           134 MiB given to the printing process from OS
            99 MiB allocation reported by mallinfo(arena+hblkhd)
        101420 MiB available memory on the node where the printing process lives
------------------
     ethr =  7.97E-10,  avg # of iterations =  2.0

     total cpu time spent up to now is      665.9 secs

     total energy              =   -2168.82832472 Ry
     estimated scf accuracy    <       0.00002716 Ry

     iteration # 19     ecut=    50.00 Ry     beta= 0.30
     Davidson diagonalization with overlap

---- Real-time Memory Report at c_bands before calling an iterative solver
           134 MiB given to the printing process from OS
            99 MiB allocation reported by mallinfo(arena+hblkhd)
        101439 MiB available memory on the node where the printing process lives
------------------
     ethr =  7.97E-10,  avg # of iterations =  6.3

     total cpu time spent up to now is      709.7 secs

     total energy              =   -2168.82832767 Ry
     estimated scf accuracy    <       0.00000945 Ry

     iteration # 20     ecut=    50.00 Ry     beta= 0.30
     Davidson diagonalization with overlap

---- Real-time Memory Report at c_bands before calling an iterative solver
           134 MiB given to the printing process from OS
            99 MiB allocation reported by mallinfo(arena+hblkhd)
        101407 MiB available memory on the node where the printing process lives
------------------
     ethr =  7.97E-10,  avg # of iterations =  1.6

     total cpu time spent up to now is      731.5 secs

     total energy              =   -2168.82832697 Ry
     estimated scf accuracy    <       0.00001284 Ry

     iteration # 21     ecut=    50.00 Ry     beta= 0.30
     Davidson diagonalization with overlap

---- Real-time Memory Report at c_bands before calling an iterative solver
           134 MiB given to the printing process from OS
            99 MiB allocation reported by mallinfo(arena+hblkhd)
        101442 MiB available memory on the node where the printing process lives
------------------
     ethr =  7.97E-10,  avg # of iterations =  1.0

     total cpu time spent up to now is      751.9 secs

     total energy              =   -2168.82832666 Ry
     estimated scf accuracy    <       0.00001154 Ry

     iteration # 22     ecut=    50.00 Ry     beta= 0.30
     Davidson diagonalization with overlap

---- Real-time Memory Report at c_bands before calling an iterative solver
           134 MiB given to the printing process from OS
            99 MiB allocation reported by mallinfo(arena+hblkhd)
        101430 MiB available memory on the node where the printing process lives
------------------
     ethr =  7.97E-10,  avg # of iterations =  1.0

     total cpu time spent up to now is      772.1 secs

     total energy              =   -2168.82832807 Ry
     estimated scf accuracy    <       0.00001103 Ry

     iteration # 23     ecut=    50.00 Ry     beta= 0.30
     Davidson diagonalization with overlap

---- Real-time Memory Report at c_bands before calling an iterative solver
           134 MiB given to the printing process from OS
            99 MiB allocation reported by mallinfo(arena+hblkhd)
        101426 MiB available memory on the node where the printing process lives
------------------
     ethr =  7.97E-10,  avg # of iterations =  1.0

     total cpu time spent up to now is      792.3 secs

     total energy              =   -2168.82832042 Ry
     estimated scf accuracy    <       0.00001384 Ry

     iteration # 24     ecut=    50.00 Ry     beta= 0.30
     Davidson diagonalization with overlap

---- Real-time Memory Report at c_bands before calling an iterative solver
           134 MiB given to the printing process from OS
            99 MiB allocation reported by mallinfo(arena+hblkhd)
        101432 MiB available memory on the node where the printing process lives
------------------
     ethr =  7.97E-10,  avg # of iterations =  9.1

     total cpu time spent up to now is      848.9 secs

     total energy              =   -2168.82832385 Ry
     estimated scf accuracy    <       0.00000019 Ry

     iteration # 25     ecut=    50.00 Ry     beta= 0.30
     Davidson diagonalization with overlap

---- Real-time Memory Report at c_bands before calling an iterative solver
           134 MiB given to the printing process from OS
            99 MiB allocation reported by mallinfo(arena+hblkhd)
        101344 MiB available memory on the node where the printing process lives
------------------
     ethr =  8.63E-11,  avg # of iterations =  8.2

     total cpu time spent up to now is      902.1 secs

     total energy              =   -2168.82832371 Ry
     estimated scf accuracy    <       0.00000192 Ry

     iteration # 26     ecut=    50.00 Ry     beta= 0.30
     Davidson diagonalization with overlap

---- Real-time Memory Report at c_bands before calling an iterative solver
           134 MiB given to the printing process from OS
            99 MiB allocation reported by mallinfo(arena+hblkhd)
        101371 MiB available memory on the node where the printing process lives
------------------
     ethr =  8.63E-11,  avg # of iterations =  2.1

     total cpu time spent up to now is      926.4 secs

     total energy              =   -2168.82832317 Ry
     estimated scf accuracy    <       0.00000121 Ry

     iteration # 27     ecut=    50.00 Ry     beta= 0.30
     Davidson diagonalization with overlap

---- Real-time Memory Report at c_bands before calling an iterative solver
           134 MiB given to the printing process from OS
            99 MiB allocation reported by mallinfo(arena+hblkhd)
        101423 MiB available memory on the node where the printing process lives
------------------
     ethr =  8.63E-11,  avg # of iterations =  8.2

     total cpu time spent up to now is      981.8 secs

     total energy              =   -2168.82832356 Ry
     estimated scf accuracy    <       0.00000003 Ry

     iteration # 28     ecut=    50.00 Ry     beta= 0.30
     Davidson diagonalization with overlap

---- Real-time Memory Report at c_bands before calling an iterative solver
           134 MiB given to the printing process from OS
            99 MiB allocation reported by mallinfo(arena+hblkhd)
        101369 MiB available memory on the node where the printing process lives
------------------
     ethr =  1.29E-11,  avg # of iterations =  6.9

     total cpu time spent up to now is     1023.0 secs

     total energy              =   -2168.82832352 Ry
     estimated scf accuracy    <       0.00000011 Ry

     iteration # 29     ecut=    50.00 Ry     beta= 0.30
     Davidson diagonalization with overlap

---- Real-time Memory Report at c_bands before calling an iterative solver
           134 MiB given to the printing process from OS
            99 MiB allocation reported by mallinfo(arena+hblkhd)
        101417 MiB available memory on the node where the printing process lives
------------------
     ethr =  1.29E-11,  avg # of iterations =  5.6

     total cpu time spent up to now is     1062.2 secs

     End of self-consistent calculation

          k = 0.0000 0.0000 0.0000 (  9029 PWs)   bands (ev):

    -8.9653  -8.2562  -8.2562  -7.9375  -7.9375  -7.9221  -7.6171  -7.5040
    -7.4942  -7.4942  -7.4732  -7.4732   3.6085   3.6085   3.6856   3.7744
     3.7980   3.7980   3.8589   4.0601   4.0601   4.0909   4.0909   4.2489
     4.2489   4.2966   4.4618   4.4618   4.4987   4.4987   4.5451   4.5714
     4.5714   4.5881   4.5881   4.6495   4.6495   4.7014   5.0874   5.0874
     5.1455   5.1455   5.1524   5.2440   5.2440   5.4187   5.4187   5.4315
     6.0322   6.0322   6.1633   6.1633   6.1786   6.1786   6.2145   6.2145
     6.2545   6.3261   6.3261   6.4872   6.4872   6.5086   6.6242   6.6242
     6.7040   6.7040   6.7132   6.7132   6.7232   6.7263   6.7263   6.7860
     6.9841   7.0368   7.0368   7.1539   7.2483   7.2483   7.4164   7.4204
     7.4204   7.7523   7.7523   7.9452   7.9452   7.9768   8.0013   8.3257
     8.3257   8.5692   8.5692   8.9177   8.9177   9.8149   9.8149   9.9177
    10.0277  10.0277  10.0533  10.0533  10.3547  10.4367  10.4367  10.6511
    10.6511  11.3978  11.3978  11.4267

     occupation numbers 
     1.0000   1.0000   1.0000   1.0000   1.0000   1.0000   1.0000   1.0000
     1.0000   1.0000   1.0000   1.0000   1.0000   1.0000   1.0000   1.0000
     1.0000   1.0000   1.0000   1.0000   1.0000   1.0000   1.0000   1.0000
     1.0000   1.0000   1.0000   1.0000   1.0000   1.0000   1.0000   1.0000
     1.0000   1.0000   1.0000   1.0000   1.0000   1.0000   1.0000   1.0000
     1.0000   1.0000   1.0000   1.0000   1.0000   1.0000   1.0000   1.0000
     1.0000   1.0000   1.0000   1.0000   1.0000   1.0000   1.0000   1.0000
     1.0000   1.0000   1.0000   1.0000   1.0000   1.0000   1.0000   1.0000
     1.0000   1.0000   1.0000   1.0000   1.0000   1.0000   1.0000   1.0000
     1.0000   1.0000   1.0000   1.0000   1.0000   1.0000   1.0000   1.0000
     1.0000   1.0000   1.0000   1.0000   1.0000   1.0000   1.0000   1.0000
     1.0000   1.0000   1.0000   1.0000   1.0000   1.0000   1.0000   1.0000
     1.0000   1.0000   1.0000   1.0000   1.0000   1.0000   1.0000   1.0000
     1.0000   1.0000   1.0000   1.0000

          k = 0.0000 0.0000 0.3367 (  9029 PWs)   bands (ev):

    -8.8798  -8.1988  -8.1988  -7.8991  -7.8991  -7.8850  -7.7115  -7.5215
    -7.5185  -7.5185  -7.5136  -7.5136   3.5258   3.5258   3.5689   3.6044
     3.6923   3.6923   3.7253   3.8461   3.8461   3.8783   3.8783   4.1713
     4.2529   4.2530   4.4387   4.4387   4.5242   4.5242   4.5436   4.5436
     4.5502   4.5502   4.5817   4.6103   4.6103   4.6654   4.9318   4.9318
     5.0489   5.0756   5.0756   5.1105   5.1105   5.2840   5.2840   5.3346
     6.1302   6.1302   6.1795   6.1795   6.2271   6.2271   6.3515   6.3515
     6.3716   6.4244   6.4244   6.5149   6.6181   6.6181   6.6737   6.6737
     6.6767   6.6929   6.6929   6.6991   6.6991   6.7898   6.8549   6.8549
     7.0298   7.0298   7.1866   7.3256   7.3763   7.3763   7.4034   7.6184
     7.6184   7.9376   7.9376   7.9919   7.9919   8.2020   8.4326   8.5912
     8.5912   8.7383   8.7383   8.8212   8.8212   9.7914   9.7914  10.0750
    10.0998  10.0998  10.1201  10.1201  10.2222  10.5281  10.5281  10.5474
    10.5474  10.9447  11.3097  11.3098

     occupation numbers 
     1.0000   1.0000   1.0000   1.0000   1.0000   1.0000   1.0000   1.0000
     1.0000   1.0000   1.0000   1.0000   1.0000   1.0000   1.0000   1.0000
     1.0000   1.0000   1.0000   1.0000   1.0000   1.0000   1.0000   1.0000
     1.0000   1.0000   1.0000   1.0000   1.0000   1.0000   1.0000   1.0000
     1.0000   1.0000   1.0000   1.0000   1.0000   1.0000   1.0000   1.0000
     1.0000   1.0000   1.0000   1.0000   1.0000   1.0000   1.0000   1.0000
     1.0000   1.0000   1.0000   1.0000   1.0000   1.0000   1.0000   1.0000
     1.0000   1.0000   1.0000   1.0000   1.0000   1.0000   1.0000   1.0000
     1.0000   1.0000   1.0000   1.0000   1.0000   1.0000   1.0000   1.0000
     1.0000   1.0000   1.0000   1.0000   1.0000   1.0000   1.0000   1.0000
     1.0000   1.0000   1.0000   1.0000   1.0000   1.0000   1.0000   1.0000
     1.0000   1.0000   1.0000   1.0000   1.0000   1.0000   1.0000   1.0000
     1.0000   1.0000   1.0000   1.0000   1.0000   1.0000   1.0000   1.0000
     1.0000   1.0000   1.0000   1.0000

          k = 0.0000 0.0000 0.6733 (  9024 PWs)   bands (ev):

    -8.6426  -8.0442  -8.0442  -7.9672  -7.7993  -7.7993  -7.7894  -7.6490
    -7.6490  -7.5778  -7.5750  -7.5750   3.3098   3.3286   3.3501   3.3501
     3.4654   3.4654   3.4691   3.4691   3.5326   3.5326   3.5728   3.8857
     4.2772   4.2772   4.4417   4.4417   4.4571   4.4571   4.5384   4.5384
     4.5567   4.5567   4.6029   4.6029   4.6604   4.6933   4.7318   4.7318
     4.8674   4.9122   4.9122   4.9695   4.9695   5.0815   5.0815   5.1124
     6.3239   6.3239   6.3327   6.3327   6.3473   6.3473   6.4190   6.4190
     6.4753   6.4753   6.5336   6.5548   6.5789   6.5789   6.6005   6.6005
     6.6095   6.6986   6.6986   6.7105   6.7105   6.7660   6.8818   6.8818
     7.2375   7.2402   7.2402   7.2705   7.6976   7.6976   7.7298   7.7298
     8.2349   8.2349   8.2837   8.2837   8.3285   8.7183   9.0999   9.0999
     9.1645   9.1645   9.2207   9.2207   9.2706   9.5099   9.5099   9.8515
    10.1844  10.1844  10.1889  10.2600  10.2778  10.2778  10.3746  10.3746
    10.5186  10.5186  11.0649  11.0649

     occupation numbers 
     1.0000   1.0000   1.0000   1.0000   1.0000   1.0000   1.0000   1.0000
     1.0000   1.0000   1.0000   1.0000   1.0000   1.0000   1.0000   1.0000
     1.0000   1.0000   1.0000   1.0000   1.0000   1.0000   1.0000   1.0000
     1.0000   1.0000   1.0000   1.0000   1.0000   1.0000   1.0000   1.0000
     1.0000   1.0000   1.0000   1.0000   1.0000   1.0000   1.0000   1.0000
     1.0000   1.0000   1.0000   1.0000   1.0000   1.0000   1.0000   1.0000
     1.0000   1.0000   1.0000   1.0000   1.0000   1.0000   1.0000   1.0000
     1.0000   1.0000   1.0000   1.0000   1.0000   1.0000   1.0000   1.0000
     1.0000   1.0000   1.0000   1.0000   1.0000   1.0000   1.0000   1.0000
     1.0000   1.0000   1.0000   1.0000   1.0000   1.0000   1.0000   1.0000
     1.0000   1.0000   1.0000   1.0000   1.0000   1.0000   1.0000   1.0000
     1.0000   1.0000   1.0000   1.0000   1.0000   1.0000   1.0000   1.0000
     1.0000   1.0000   1.0000   1.0000   1.0000   1.0000   1.0000   1.0000
     1.0000   1.0000   1.0000   1.0000

          k = 0.0000 0.0000-1.0100 (  9020 PWs)   bands (ev):

    -8.3096  -8.3096  -7.8406  -7.8406  -7.8406  -7.8406  -7.6775  -7.6775
    -7.6775  -7.6775  -7.6737  -7.6737   3.1947   3.1947   3.2849   3.2849
     3.2849   3.2849   3.3677   3.3677   3.3677   3.3677   3.6327   3.6327
     4.3411   4.3411   4.3411   4.3411   4.5105   4.5105   4.5105   4.5105
     4.5965   4.5965   4.5965   4.5965   4.7296   4.7296   4.7373   4.7373
     4.7373   4.7373   4.8771   4.8771   4.9551   4.9551   4.9551   4.9551
     6.4343   6.4343   6.4343   6.4343   6.4823   6.4823   6.4823   6.4823
     6.5090   6.5090   6.5090   6.5090   6.5415   6.5415   6.5415   6.5415
     6.5635   6.5635   6.6888   6.6888   6.7817   6.7817   6.7817   6.7817
     7.2601   7.2601   7.5055   7.5055   7.5055   7.5055   8.0534   8.0534
     8.0534   8.0534   8.8132   8.8132   8.8132   8.8132   9.3150   9.3150
     9.3198   9.3198   9.6931   9.6931   9.6931   9.6931   9.9729   9.9729
     9.9729   9.9729  10.0022  10.0022  10.0536  10.0536  10.0536  10.0536
    10.7225  10.7225  10.7225  10.7225

     occupation numbers 
     1.0000   1.0000   1.0000   1.0000   1.0000   1.0000   1.0000   1.0000
     1.0000   1.0000   1.0000   1.0000   1.0000   1.0000   1.0000   1.0000
     1.0000   1.0000   1.0000   1.0000   1.0000   1.0000   1.0000   1.0000
     1.0000   1.0000   1.0000   1.0000   1.0000   1.0000   1.0000   1.0000
     1.0000   1.0000   1.0000   1.0000   1.0000   1.0000   1.0000   1.0000
     1.0000   1.0000   1.0000   1.0000   1.0000   1.0000   1.0000   1.0000
     1.0000   1.0000   1.0000   1.0000   1.0000   1.0000   1.0000   1.0000
     1.0000   1.0000   1.0000   1.0000   1.0000   1.0000   1.0000   1.0000
     1.0000   1.0000   1.0000   1.0000   1.0000   1.0000   1.0000   1.0000
     1.0000   1.0000   1.0000   1.0000   1.0000   1.0000   1.0000   1.0000
     1.0000   1.0000   1.0000   1.0000   1.0000   1.0000   1.0000   1.0000
     1.0000   1.0000   1.0000   1.0000   1.0000   1.0000   1.0000   1.0000
     1.0000   1.0000   1.0000   1.0000   1.0000   1.0000   1.0000   1.0000
     1.0000   1.0000   1.0000   1.0000

          k = 0.0000 0.2887 0.0000 (  9043 PWs)   bands (ev):

    -8.9097  -8.3585  -8.1071  -8.1071  -8.0254  -7.7752  -7.5996  -7.5478
    -7.4831  -7.4802  -7.4734  -7.4734   3.6030   3.6367   3.6367   3.6886
     3.9162   3.9231   4.0009   4.0378   4.0378   4.1212   4.1454   4.1965
     4.2757   4.3612   4.4283   4.4561   4.4838   4.4838   4.5348   4.5677
     4.5791   4.6277   4.6438   4.6438   4.6476   4.6649   4.9668   5.0603
     5.1620   5.1640   5.1640   5.2734   5.2734   5.3381   5.3463   5.4967
     5.9918   6.1060   6.1178   6.1178   6.1510   6.1758   6.2165   6.2220
     6.2536   6.3082   6.3083   6.4462   6.5095   6.5249   6.5908   6.6048
     6.6048   6.6214   6.6339   6.6518   6.6952   6.7142   6.7142   6.7185
     6.8549   6.9532   7.0022   7.0969   7.0969   7.2797   7.3990   7.7420
     7.7521   7.7521   7.7705   7.9645   8.1505   8.1694   8.1694   8.2136
     8.5353   8.5353   8.6146   8.6247   9.2416   9.4149   9.6261   9.7594
     9.9000  10.0738  10.1875  10.1875  10.4182  10.4182  10.4371  10.6021
    10.6796  10.9720  11.3393  11.3672

     occupation numbers 
     1.0000   1.0000   1.0000   1.0000   1.0000   1.0000   1.0000   1.0000
     1.0000   1.0000   1.0000   1.0000   1.0000   1.0000   1.0000   1.0000
     1.0000   1.0000   1.0000   1.0000   1.0000   1.0000   1.0000   1.0000
     1.0000   1.0000   1.0000   1.0000   1.0000   1.0000   1.0000   1.0000
     1.0000   1.0000   1.0000   1.0000   1.0000   1.0000   1.0000   1.0000
     1.0000   1.0000   1.0000   1.0000   1.0000   1.0000   1.0000   1.0000
     1.0000   1.0000   1.0000   1.0000   1.0000   1.0000   1.0000   1.0000
     1.0000   1.0000   1.0000   1.0000   1.0000   1.0000   1.0000   1.0000
     1.0000   1.0000   1.0000   1.0000   1.0000   1.0000   1.0000   1.0000
     1.0000   1.0000   1.0000   1.0000   1.0000   1.0000   1.0000   1.0000
     1.0000   1.0000   1.0000   1.0000   1.0000   1.0000   1.0000   1.0000
     1.0000   1.0000   1.0000   1.0000   1.0000   1.0000   1.0000   1.0000
     1.0000   1.0000   1.0000   1.0000   1.0000   1.0000   1.0000   1.0000
     1.0000   1.0000   1.0000   1.0000

          k = 0.0000 0.2887 0.3367 (  9030 PWs)   bands (ev):

    -8.8260  -8.2960  -8.0577  -8.0577  -7.9812  -7.7498  -7.6905  -7.5519
    -7.5332  -7.5097  -7.5070  -7.5070   3.5027   3.5453   3.5453   3.6073
     3.7244   3.7584   3.8207   3.8207   3.8817   3.9141   4.0316   4.0706
     4.2810   4.3123   4.3151   4.4567   4.5006   4.5006   4.5413   4.5434
     4.5682   4.5827   4.6090   4.6115   4.6115   4.6312   4.8377   4.9953
     5.0119   5.0119   5.0335   5.1857   5.1857   5.2174   5.2586   5.3166
     6.0949   6.1493   6.1741   6.1741   6.2054   6.2242   6.2874   6.3155
     6.3876   6.4135   6.4135   6.4582   6.6255   6.6289   6.6522   6.6600
     6.6697   6.6792   6.6826   6.6826   6.6875   6.7641   6.7641   6.8017
     7.0021   7.0899   7.1521   7.1521   7.3535   7.4168   7.5043   7.7109
     7.7837   7.9566   7.9566   8.1529   8.3402   8.3402   8.3555   8.4353
     8.5666   8.5666   8.7715   8.8957   9.1126   9.3609   9.7414   9.8555
     9.9984  10.2221  10.2416  10.2416  10.3071  10.3685  10.3685  10.5463
    10.6661  10.6971  11.2474  11.2816

     occupation numbers 
     1.0000   1.0000   1.0000   1.0000   1.0000   1.0000   1.0000   1.0000
     1.0000   1.0000   1.0000   1.0000   1.0000   1.0000   1.0000   1.0000
     1.0000   1.0000   1.0000   1.0000   1.0000   1.0000   1.0000   1.0000
     1.0000   1.0000   1.0000   1.0000   1.0000   1.0000   1.0000   1.0000
     1.0000   1.0000   1.0000   1.0000   1.0000   1.0000   1.0000   1.0000
     1.0000   1.0000   1.0000   1.0000   1.0000   1.0000   1.0000   1.0000
     1.0000   1.0000   1.0000   1.0000   1.0000   1.0000   1.0000   1.0000
     1.0000   1.0000   1.0000   1.0000   1.0000   1.0000   1.0000   1.0000
     1.0000   1.0000   1.0000   1.0000   1.0000   1.0000   1.0000   1.0000
     1.0000   1.0000   1.0000   1.0000   1.0000   1.0000   1.0000   1.0000
     1.0000   1.0000   1.0000   1.0000   1.0000   1.0000   1.0000   1.0000
     1.0000   1.0000   1.0000   1.0000   1.0000   1.0000   1.0000   1.0000
     1.0000   1.0000   1.0000   1.0000   1.0000   1.0000   1.0000   1.0000
     1.0000   1.0000   1.0000   1.0000

          k = 0.0000 0.2887 0.6733 (  9029 PWs)   bands (ev):

    -8.5940  -8.1268  -7.9373  -7.9268  -7.9268  -7.8650  -7.6869  -7.6839
    -7.6065  -7.6065  -7.5906  -7.5717   3.2980   3.3545   3.3545   3.3849
     3.4254   3.4550   3.4550   3.5121   3.5698   3.6566   3.6880   3.8291
     4.2893   4.3007   4.3079   4.4497   4.4693   4.4785   4.5043   4.5301
     4.5471   4.5471   4.5987   4.5987   4.6231   4.6705   4.6974   4.8339
     4.8349   4.8349   4.8498   5.0028   5.0028   5.0558   5.0966   5.1375
     6.2380   6.3003   6.3369   6.3440   6.3512   6.3512   6.3803   6.4030
     6.4509   6.4779   6.4779   6.4930   6.5808   6.5884   6.6020   6.6091
     6.6243   6.6243   6.6831   6.7460   6.7460   6.7526   6.8268   6.9800
     7.2282   7.2715   7.4562   7.4562   7.4880   7.6881   7.7469   7.9801
     7.9801   7.9863   8.3442   8.5745   8.7900   8.7900   8.8428   8.8755
     9.0903   9.1712   9.1712   9.1995   9.2214   9.6000   9.8974   9.8974
     9.9436  10.0536  10.0757  10.1517  10.2024  10.2676  10.3460  10.4223
    10.4223  10.6003  10.9681  10.9915

     occupation numbers 
     1.0000   1.0000   1.0000   1.0000   1.0000   1.0000   1.0000   1.0000
     1.0000   1.0000   1.0000   1.0000   1.0000   1.0000   1.0000   1.0000
     1.0000   1.0000   1.0000   1.0000   1.0000   1.0000   1.0000   1.0000
     1.0000   1.0000   1.0000   1.0000   1.0000   1.0000   1.0000   1.0000
     1.0000   1.0000   1.0000   1.0000   1.0000   1.0000   1.0000   1.0000
     1.0000   1.0000   1.0000   1.0000   1.0000   1.0000   1.0000   1.0000
     1.0000   1.0000   1.0000   1.0000   1.0000   1.0000   1.0000   1.0000
     1.0000   1.0000   1.0000   1.0000   1.0000   1.0000   1.0000   1.0000
     1.0000   1.0000   1.0000   1.0000   1.0000   1.0000   1.0000   1.0000
     1.0000   1.0000   1.0000   1.0000   1.0000   1.0000   1.0000   1.0000
     1.0000   1.0000   1.0000   1.0000   1.0000   1.0000   1.0000   1.0000
     1.0000   1.0000   1.0000   1.0000   1.0000   1.0000   1.0000   1.0000
     1.0000   1.0000   1.0000   1.0000   1.0000   1.0000   1.0000   1.0000
     1.0000   1.0000   1.0000   1.0000

          k = 0.0000 0.2887-1.0100 (  9048 PWs)   bands (ev):

    -8.2695  -8.2695  -7.9008  -7.9008  -7.7588  -7.7588  -7.7588  -7.7588
    -7.7190  -7.7190  -7.6185  -7.6184   3.2168   3.2168   3.2786   3.2786
     3.2786   3.2786   3.3473   3.3473   3.5257   3.5257   3.6010   3.6010
     4.3538   4.3538   4.3745   4.3745   4.3791   4.3791   4.5056   4.5056
     4.5934   4.5934   4.5934   4.5934   4.6909   4.6909   4.7118   4.7118
     4.8362   4.8362   4.8362   4.8362   4.8396   4.8396   5.0685   5.0685
     6.3182   6.3182   6.4800   6.4800   6.4827   6.4827   6.4849   6.4849
     6.4968   6.4968   6.4968   6.4968   6.5394   6.5394   6.5450   6.5450
     6.6189   6.6189   6.6213   6.6213   6.6213   6.6213   6.9892   6.9892
     7.3508   7.3508   7.5069   7.5069   7.7525   7.7525   7.7525   7.7525
     8.3045   8.3045   8.3483   8.3483   9.3020   9.3020   9.3530   9.3530
     9.3530   9.3530   9.4196   9.4196   9.6893   9.6894   9.9928   9.9928
    10.0071  10.0071  10.0119  10.0119  10.0119  10.0119  10.0789  10.0789
    10.5350  10.5350  10.6331  10.6331

     occupation numbers 
     1.0000   1.0000   1.0000   1.0000   1.0000   1.0000   1.0000   1.0000
     1.0000   1.0000   1.0000   1.0000   1.0000   1.0000   1.0000   1.0000
     1.0000   1.0000   1.0000   1.0000   1.0000   1.0000   1.0000   1.0000
     1.0000   1.0000   1.0000   1.0000   1.0000   1.0000   1.0000   1.0000
     1.0000   1.0000   1.0000   1.0000   1.0000   1.0000   1.0000   1.0000
     1.0000   1.0000   1.0000   1.0000   1.0000   1.0000   1.0000   1.0000
     1.0000   1.0000   1.0000   1.0000   1.0000   1.0000   1.0000   1.0000
     1.0000   1.0000   1.0000   1.0000   1.0000   1.0000   1.0000   1.0000
     1.0000   1.0000   1.0000   1.0000   1.0000   1.0000   1.0000   1.0000
     1.0000   1.0000   1.0000   1.0000   1.0000   1.0000   1.0000   1.0000
     1.0000   1.0000   1.0000   1.0000   1.0000   1.0000   1.0000   1.0000
     1.0000   1.0000   1.0000   1.0000   1.0000   1.0000   1.0000   1.0000
     1.0000   1.0000   1.0000   1.0000   1.0000   1.0000   1.0000   1.0000
     1.0000   1.0000   1.0000   1.0000

          k = 0.0000 0.5774 0.0000 (  9047 PWs)   bands (ev):

    -8.7521  -8.3948  -8.2562  -8.2562  -7.9375  -7.6417  -7.6417  -7.5547
    -7.4942  -7.4839  -7.4732  -7.4732   3.6085   3.6085   3.7678   3.7980
     3.9167   4.0601   4.0651   4.0776   4.0909   4.0909   4.1084   4.3466
     4.3504   4.3504   4.4193   4.4618   4.4987   4.4987   4.5235   4.5358
     4.5714   4.5714   4.6150   4.6495   4.7159   4.7438   4.8803   5.0344
     5.0874   5.0874   5.1455   5.1455   5.2440   5.4144   5.4144   5.4187
     6.0012   6.0322   6.0322   6.0777   6.0877   6.1633   6.1829   6.2145
     6.2146   6.2958   6.2958   6.3261   6.3261   6.3902   6.4872   6.4872
     6.5468   6.5960   6.6572   6.6909   6.7040   6.7040   6.7132   6.7263
     6.8396   7.0368   7.0758   7.2483   7.2483   7.2761   7.4204   7.6031
     7.6031   7.7523   7.7523   7.9452   8.1815   8.3257   8.4841   8.5692
     8.5692   8.9177   8.9177   9.0723   9.0723   9.0838   9.3194   9.3919
     9.5545   9.8149  10.0533  10.3171  10.4367  10.4367  10.6295  10.6511
    10.6511  10.6738  11.1650  11.1708

     occupation numbers 
     1.0000   1.0000   1.0000   1.0000   1.0000   1.0000   1.0000   1.0000
     1.0000   1.0000   1.0000   1.0000   1.0000   1.0000   1.0000   1.0000
     1.0000   1.0000   1.0000   1.0000   1.0000   1.0000   1.0000   1.0000
     1.0000   1.0000   1.0000   1.0000   1.0000   1.0000   1.0000   1.0000
     1.0000   1.0000   1.0000   1.0000   1.0000   1.0000   1.0000   1.0000
     1.0000   1.0000   1.0000   1.0000   1.0000   1.0000   1.0000   1.0000
     1.0000   1.0000   1.0000   1.0000   1.0000   1.0000   1.0000   1.0000
     1.0000   1.0000   1.0000   1.0000   1.0000   1.0000   1.0000   1.0000
     1.0000   1.0000   1.0000   1.0000   1.0000   1.0000   1.0000   1.0000
     1.0000   1.0000   1.0000   1.0000   1.0000   1.0000   1.0000   1.0000
     1.0000   1.0000   1.0000   1.0000   1.0000   1.0000   1.0000   1.0000
     1.0000   1.0000   1.0000   1.0000   1.0000   1.0000   1.0000   1.0000
     1.0000   1.0000   1.0000   1.0000   1.0000   1.0000   1.0000   1.0000
     1.0000   1.0000   1.0000   1.0000

          k = 0.0000 0.5774 0.3367 (  9034 PWs)   bands (ev):

    -8.6737  -8.3306  -8.1988  -8.1988  -7.8991  -7.6352  -7.6306  -7.6306
    -7.5396  -7.5185  -7.5185  -7.5136   3.5258   3.5258   3.6865   3.6923
     3.7929   3.8461   3.8461   3.8611   3.8783   3.9263   4.1007   4.1475
     4.1475   4.3553   4.3930   4.4387   4.4817   4.4901   4.5242   4.5242
     4.5502   4.5502   4.5830   4.6103   4.6360   4.6951   4.7816   4.9318
     4.9318   4.9713   5.0756   5.0756   5.1105   5.2767   5.2767   5.2840
     6.0914   6.1110   6.1302   6.1302   6.1504   6.1795   6.2285   6.3027
     6.3515   6.3515   6.3714   6.4244   6.5625   6.5625   6.6424   6.6514
     6.6678   6.6737   6.6737   6.6900   6.6929   6.6929   6.6991   6.8549
     7.0186   7.0298   7.3763   7.3763   7.4630   7.5344   7.5390   7.5390
     7.6184   7.9376   7.9919   7.9919   8.3586   8.5912   8.6157   8.7383
     8.7383   8.8212   8.8212   9.1415   9.1904   9.2551   9.3310   9.3310
     9.6686   9.7914  10.0998  10.1128  10.4997  10.5281  10.5281  10.5474
    10.5474  10.7520  11.0691  11.1408

     occupation numbers 
     1.0000   1.0000   1.0000   1.0000   1.0000   1.0000   1.0000   1.0000
     1.0000   1.0000   1.0000   1.0000   1.0000   1.0000   1.0000   1.0000
     1.0000   1.0000   1.0000   1.0000   1.0000   1.0000   1.0000   1.0000
     1.0000   1.0000   1.0000   1.0000   1.0000   1.0000   1.0000   1.0000
     1.0000   1.0000   1.0000   1.0000   1.0000   1.0000   1.0000   1.0000
     1.0000   1.0000   1.0000   1.0000   1.0000   1.0000   1.0000   1.0000
     1.0000   1.0000   1.0000   1.0000   1.0000   1.0000   1.0000   1.0000
     1.0000   1.0000   1.0000   1.0000   1.0000   1.0000   1.0000   1.0000
     1.0000   1.0000   1.0000   1.0000   1.0000   1.0000   1.0000   1.0000
     1.0000   1.0000   1.0000   1.0000   1.0000   1.0000   1.0000   1.0000
     1.0000   1.0000   1.0000   1.0000   1.0000   1.0000   1.0000   1.0000
     1.0000   1.0000   1.0000   1.0000   1.0000   1.0000   1.0000   1.0000
     1.0000   1.0000   1.0000   1.0000   1.0000   1.0000   1.0000   1.0000
     1.0000   1.0000   1.0000   1.0000

          k = 0.0000 0.5774 0.6733 (  9017 PWs)   bands (ev):

    -8.4575  -8.1565  -8.0442  -8.0442  -7.8562  -7.7993  -7.6973  -7.6490
    -7.6490  -7.6082  -7.6082  -7.5750   3.3501   3.3501   3.4654   3.4654
     3.4691   3.4987   3.5133   3.5326   3.5457   3.6899   3.7843   3.7843
     4.1730   4.3629   4.3910   4.4414   4.4571   4.4652   4.4684   4.4923
     4.5384   4.5384   4.5567   4.5826   4.6029   4.6029   4.6902   4.7318
     4.7318   4.8328   4.9122   4.9122   4.9695   5.0815   5.1592   5.1592
     6.1701   6.2918   6.3125   6.3194   6.3239   6.3327   6.3327   6.3429
     6.4006   6.4190   6.4190   6.4753   6.5852   6.6005   6.6005   6.6049
     6.6151   6.6789   6.6986   6.6987   6.7105   6.8818   6.9249   6.9249
     7.2402   7.4083   7.4083   7.4759   7.6976   7.7298   7.7298   8.1017
     8.2349   8.2837   8.2837   8.3670   8.6767   8.7549   9.0286   9.0999
     9.0999   9.1645   9.1645   9.2049   9.2207   9.4876   9.5099   9.7518
     9.8362   9.8362   9.9769  10.1484  10.1844  10.1844  10.2778  10.5186
    10.5186  10.6343  10.7862  10.8129

     occupation numbers 
     1.0000   1.0000   1.0000   1.0000   1.0000   1.0000   1.0000   1.0000
     1.0000   1.0000   1.0000   1.0000   1.0000   1.0000   1.0000   1.0000
     1.0000   1.0000   1.0000   1.0000   1.0000   1.0000   1.0000   1.0000
     1.0000   1.0000   1.0000   1.0000   1.0000   1.0000   1.0000   1.0000
     1.0000   1.0000   1.0000   1.0000   1.0000   1.0000   1.0000   1.0000
     1.0000   1.0000   1.0000   1.0000   1.0000   1.0000   1.0000   1.0000
     1.0000   1.0000   1.0000   1.0000   1.0000   1.0000   1.0000   1.0000
     1.0000   1.0000   1.0000   1.0000   1.0000   1.0000   1.0000   1.0000
     1.0000   1.0000   1.0000   1.0000   1.0000   1.0000   1.0000   1.0000
     1.0000   1.0000   1.0000   1.0000   1.0000   1.0000   1.0000   1.0000
     1.0000   1.0000   1.0000   1.0000   1.0000   1.0000   1.0000   1.0000
     1.0000   1.0000   1.0000   1.0000   1.0000   1.0000   1.0000   1.0000
     1.0000   1.0000   1.0000   1.0000   1.0000   1.0000   1.0000   1.0000
     1.0000   1.0000   1.0000   1.0000

          k = 0.0000 0.5774-1.0100 (  9016 PWs)   bands (ev):

    -8.1582  -8.1582  -7.9229  -7.9229  -7.8406  -7.8406  -7.8406  -7.8406
    -7.6775  -7.6775  -7.5969  -7.5969   3.2849   3.2849   3.2849   3.2849
     3.3677   3.3677   3.3852   3.3852   3.5119   3.5119   3.6229   3.6229
     4.2972   4.2972   4.4014   4.4014   4.4508   4.4508   4.4683   4.4683
     4.5105   4.5105   4.5965   4.5965   4.5965   4.5965   4.7105   4.7105
     4.7373   4.7373   4.7373   4.7373   4.9551   4.9551   5.1249   5.1249
     6.2463   6.2463   6.4343   6.4343   6.4767   6.4767   6.4774   6.4774
     6.4875   6.4875   6.5090   6.5090   6.5090   6.5090   6.5415   6.5415
     6.5415   6.5415   6.5429   6.5429   6.7817   6.7817   7.1186   7.1186
     7.2951   7.2951   7.5055   7.5055   8.0534   8.0535   8.0535   8.0535
     8.0727   8.0727   8.4933   8.4933   8.8132   8.8132   9.1548   9.1548
     9.6149   9.6149   9.6931   9.6931   9.6931   9.6931   9.9729   9.9729
     9.9729   9.9729  10.0271  10.0271  10.0536  10.0536  10.0874  10.0874
    10.1686  10.1686  10.3879  10.3879

     occupation numbers 
     1.0000   1.0000   1.0000   1.0000   1.0000   1.0000   1.0000   1.0000
     1.0000   1.0000   1.0000   1.0000   1.0000   1.0000   1.0000   1.0000
     1.0000   1.0000   1.0000   1.0000   1.0000   1.0000   1.0000   1.0000
     1.0000   1.0000   1.0000   1.0000   1.0000   1.0000   1.0000   1.0000
     1.0000   1.0000   1.0000   1.0000   1.0000   1.0000   1.0000   1.0000
     1.0000   1.0000   1.0000   1.0000   1.0000   1.0000   1.0000   1.0000
     1.0000   1.0000   1.0000   1.0000   1.0000   1.0000   1.0000   1.0000
     1.0000   1.0000   1.0000   1.0000   1.0000   1.0000   1.0000   1.0000
     1.0000   1.0000   1.0000   1.0000   1.0000   1.0000   1.0000   1.0000
     1.0000   1.0000   1.0000   1.0000   1.0000   1.0000   1.0000   1.0000
     1.0000   1.0000   1.0000   1.0000   1.0000   1.0000   1.0000   1.0000
     1.0000   1.0000   1.0000   1.0000   1.0000   1.0000   1.0000   1.0000
     1.0000   1.0000   1.0000   1.0000   1.0000   1.0000   1.0000   1.0000
     1.0000   1.0000   1.0000   1.0000

          k = 0.0000-0.8660 0.0000 (  9038 PWs)   bands (ev):

    -8.5194  -8.5194  -8.3585  -8.3585  -7.7752  -7.7752  -7.5478  -7.5478
    -7.5033  -7.5033  -7.4802  -7.4802   3.6886   3.6886   3.7331   3.7331
     4.0008   4.0008   4.1212   4.1212   4.1799   4.1799   4.1965   4.1965
     4.4283   4.4283   4.4318   4.4318   4.4561   4.4561   4.4641   4.4641
     4.5677   4.5677   4.6476   4.6476   4.8263   4.8263   4.9246   4.9246
     4.9668   4.9668   5.0603   5.0603   5.3381   5.3381   5.4967   5.4967
     5.9918   5.9918   5.9956   5.9956   6.1060   6.1060   6.2165   6.2165
     6.2288   6.2288   6.2536   6.2536   6.5095   6.5095   6.5249   6.5249
     6.5369   6.5369   6.5908   6.5908   6.6826   6.6826   6.6952   6.6952
     6.8549   6.8549   7.2090   7.2090   7.2797   7.2797   7.3990   7.3990
     7.7705   7.7705   7.9645   7.9645   8.2937   8.2937   8.6146   8.6146
     8.6247   8.6247   9.0767   9.0767   9.2416   9.2416   9.4149   9.4149
     9.6261   9.6261   9.6364   9.6364  10.6021  10.6021  10.6796  10.6796
    10.8380  10.8380  10.9218  10.9218

     occupation numbers 
     1.0000   1.0000   1.0000   1.0000   1.0000   1.0000   1.0000   1.0000
     1.0000   1.0000   1.0000   1.0000   1.0000   1.0000   1.0000   1.0000
     1.0000   1.0000   1.0000   1.0000   1.0000   1.0000   1.0000   1.0000
     1.0000   1.0000   1.0000   1.0000   1.0000   1.0000   1.0000   1.0000
     1.0000   1.0000   1.0000   1.0000   1.0000   1.0000   1.0000   1.0000
     1.0000   1.0000   1.0000   1.0000   1.0000   1.0000   1.0000   1.0000
     1.0000   1.0000   1.0000   1.0000   1.0000   1.0000   1.0000   1.0000
     1.0000   1.0000   1.0000   1.0000   1.0000   1.0000   1.0000   1.0000
     1.0000   1.0000   1.0000   1.0000   1.0000   1.0000   1.0000   1.0000
     1.0000   1.0000   1.0000   1.0000   1.0000   1.0000   1.0000   1.0000
     1.0000   1.0000   1.0000   1.0000   1.0000   1.0000   1.0000   1.0000
     1.0000   1.0000   1.0000   1.0000   1.0000   1.0000   1.0000   1.0000
     1.0000   1.0000   1.0000   1.0000   1.0000   1.0000   1.0000   1.0000
     1.0000   1.0000   1.0000   1.0000

          k = 0.0000-0.8660 0.3367 (  9030 PWs)   bands (ev):

    -8.4499  -8.4499  -8.2960  -8.2960  -7.7498  -7.7497  -7.5679  -7.5679
    -7.5519  -7.5519  -7.5332  -7.5332   3.6073   3.6073   3.6523   3.6523
     3.8817   3.8817   3.9074   3.9074   3.9141   3.9141   4.0316   4.0316
     4.3124   4.3124   4.4475   4.4475   4.4567   4.4567   4.4632   4.4632
     4.5413   4.5413   4.6090   4.6090   4.7358   4.7358   4.8377   4.8377
     4.8684   4.8684   4.9953   4.9953   5.2174   5.2174   5.3166   5.3166
     6.0949   6.0949   6.0985   6.0985   6.1493   6.1493   6.2666   6.2666
     6.3155   6.3155   6.3876   6.3876   6.6522   6.6522   6.6600   6.6600
     6.6601   6.6601   6.6696   6.6696   6.6697   6.6697   6.6875   6.6875
     7.0899   7.0899   7.3535   7.3535   7.5043   7.5043   7.5269   7.5269
     7.7109   7.7109   8.1529   8.1529   8.4263   8.4263   8.7715   8.7715
     8.8957   8.8957   9.1126   9.1126   9.2147   9.2147   9.3609   9.3609
     9.4719   9.4719   9.7414   9.7414  10.5463  10.5463  10.6971  10.6971
    10.8087  10.8087  10.8846  10.8846

     occupation numbers 
     1.0000   1.0000   1.0000   1.0000   1.0000   1.0000   1.0000   1.0000
     1.0000   1.0000   1.0000   1.0000   1.0000   1.0000   1.0000   1.0000
     1.0000   1.0000   1.0000   1.0000   1.0000   1.0000   1.0000   1.0000
     1.0000   1.0000   1.0000   1.0000   1.0000   1.0000   1.0000   1.0000
     1.0000   1.0000   1.0000   1.0000   1.0000   1.0000   1.0000   1.0000
     1.0000   1.0000   1.0000   1.0000   1.0000   1.0000   1.0000   1.0000
     1.0000   1.0000   1.0000   1.0000   1.0000   1.0000   1.0000   1.0000
     1.0000   1.0000   1.0000   1.0000   1.0000   1.0000   1.0000   1.0000
     1.0000   1.0000   1.0000   1.0000   1.0000   1.0000   1.0000   1.0000
     1.0000   1.0000   1.0000   1.0000   1.0000   1.0000   1.0000   1.0000
     1.0000   1.0000   1.0000   1.0000   1.0000   1.0000   1.0000   1.0000
     1.0000   1.0000   1.0000   1.0000   1.0000   1.0000   1.0000   1.0000
     1.0000   1.0000   1.0000   1.0000   1.0000   1.0000   1.0000   1.0000
     1.0000   1.0000   1.0000   1.0000

          k = 0.0000-0.8660 0.6733 (  9038 PWs)   bands (ev):

    -8.2600  -8.2600  -8.1268  -8.1268  -7.7485  -7.7485  -7.6869  -7.6869
    -7.6839  -7.6839  -7.5717  -7.5717   3.4254   3.4254   3.4626   3.4626
     3.5121   3.5121   3.5552   3.5552   3.6566   3.6566   3.6880   3.6880
     4.2893   4.2893   4.4454   4.4454   4.4693   4.4693   4.5008   4.5008
     4.5043   4.5043   4.5301   4.5301   4.5961   4.5961   4.6974   4.6974
     4.7376   4.7376   4.8498   4.8498   5.0966   5.0966   5.1375   5.1375
     6.2380   6.2380   6.2978   6.2978   6.3003   6.3003   6.3638   6.3638
     6.3803   6.3803   6.4030   6.4030   6.5914   6.5914   6.6020   6.6020
     6.6532   6.6532   6.6831   6.6831   6.8268   6.8268   6.9800   6.9800
     7.2282   7.2282   7.4880   7.4880   7.7469   7.7469   7.9863   7.9863
     8.2351   8.2351   8.5745   8.5745   8.8489   8.8489   8.8755   8.8755
     9.0903   9.0903   9.2214   9.2214   9.2645   9.2645   9.5776   9.5776
     9.5999   9.6000  10.0757  10.0757  10.2024  10.2024  10.4937  10.4937
    10.6003  10.6003  10.6782  10.6782

     occupation numbers 
     1.0000   1.0000   1.0000   1.0000   1.0000   1.0000   1.0000   1.0000
     1.0000   1.0000   1.0000   1.0000   1.0000   1.0000   1.0000   1.0000
     1.0000   1.0000   1.0000   1.0000   1.0000   1.0000   1.0000   1.0000
     1.0000   1.0000   1.0000   1.0000   1.0000   1.0000   1.0000   1.0000
     1.0000   1.0000   1.0000   1.0000   1.0000   1.0000   1.0000   1.0000
     1.0000   1.0000   1.0000   1.0000   1.0000   1.0000   1.0000   1.0000
     1.0000   1.0000   1.0000   1.0000   1.0000   1.0000   1.0000   1.0000
     1.0000   1.0000   1.0000   1.0000   1.0000   1.0000   1.0000   1.0000
     1.0000   1.0000   1.0000   1.0000   1.0000   1.0000   1.0000   1.0000
     1.0000   1.0000   1.0000   1.0000   1.0000   1.0000   1.0000   1.0000
     1.0000   1.0000   1.0000   1.0000   1.0000   1.0000   1.0000   1.0000
     1.0000   1.0000   1.0000   1.0000   1.0000   1.0000   1.0000   1.0000
     1.0000   1.0000   1.0000   1.0000   1.0000   1.0000   1.0000   1.0000
     1.0000   1.0000   1.0000   1.0000

          k = 0.0000-0.8660-1.0100 (  9044 PWs)   bands (ev):

    -8.0020  -8.0020  -8.0020  -8.0020  -7.9008  -7.9008  -7.9008  -7.9008
    -7.6185  -7.6184  -7.6184  -7.6184   3.3473   3.3473   3.3473   3.3473
     3.3926   3.3926   3.3926   3.3926   3.5257   3.5257   3.5257   3.5257
     4.3791   4.3791   4.3791   4.3791   4.4882   4.4882   4.4882   4.4882
     4.5056   4.5056   4.5056   4.5056   4.6006   4.6006   4.6006   4.6006
     4.7118   4.7118   4.7118   4.7118   5.0685   5.0685   5.0685   5.0685
     6.3182   6.3182   6.3182   6.3182   6.4842   6.4842   6.4842   6.4842
     6.4849   6.4849   6.4849   6.4849   6.5029   6.5029   6.5029   6.5029
     6.5394   6.5394   6.5394   6.5394   6.9892   6.9892   6.9892   6.9892
     7.3508   7.3508   7.3508   7.3508   8.3045   8.3045   8.3045   8.3045
     8.3483   8.3483   8.3483   8.3483   8.6877   8.6877   8.6877   8.6877
     9.6893   9.6893   9.6893   9.6893   9.9864   9.9864   9.9864   9.9864
    10.0071  10.0071  10.0071  10.0071  10.0471  10.0471  10.0471  10.0471
    10.0789  10.0789  10.0789  10.0789

     occupation numbers 
     1.0000   1.0000   1.0000   1.0000   1.0000   1.0000   1.0000   1.0000
     1.0000   1.0000   1.0000   1.0000   1.0000   1.0000   1.0000   1.0000
     1.0000   1.0000   1.0000   1.0000   1.0000   1.0000   1.0000   1.0000
     1.0000   1.0000   1.0000   1.0000   1.0000   1.0000   1.0000   1.0000
     1.0000   1.0000   1.0000   1.0000   1.0000   1.0000   1.0000   1.0000
     1.0000   1.0000   1.0000   1.0000   1.0000   1.0000   1.0000   1.0000
     1.0000   1.0000   1.0000   1.0000   1.0000   1.0000   1.0000   1.0000
     1.0000   1.0000   1.0000   1.0000   1.0000   1.0000   1.0000   1.0000
     1.0000   1.0000   1.0000   1.0000   1.0000   1.0000   1.0000   1.0000
     1.0000   1.0000   1.0000   1.0000   1.0000   1.0000   1.0000   1.0000
     1.0000   1.0000   1.0000   1.0000   1.0000   1.0000   1.0000   1.0000
     1.0000   1.0000   1.0000   1.0000   1.0000   1.0000   1.0000   1.0000
     1.0000   1.0000   1.0000   1.0000   1.0000   1.0000   1.0000   1.0000
     1.0000   1.0000   1.0000   1.0000

          k = 0.1667 0.0962 0.0000 (  9033 PWs)   bands (ev):

    -8.9404  -8.4324  -8.0938  -7.9419  -7.9307  -7.9245  -7.6092  -7.5024
    -7.4985  -7.4914  -7.4896  -7.4755   3.5905   3.6809   3.6853   3.7204
     3.8357   3.8857   3.8933   3.9615   3.9839   4.0413   4.1642   4.1910
     4.2609   4.3359   4.4574   4.4806   4.4968   4.5260   4.5269   4.5278
     4.5830   4.6057   4.6199   4.6386   4.6704   4.6908   4.9223   4.9959
[...]
     atom   14 type  1   force =    -0.00000145   -0.00000013   -0.28273143
     atom   15 type  2   force =    -0.00000252   -0.00000067   -0.16327684
     atom   16 type  2   force =     0.00000243    0.00000105   -0.16327707
     atom   17 type  1   force =     0.00000056    0.00000066   -0.28273113
     atom   18 type  1   force =    -0.00000048    0.00000046   -0.28273145
     atom   19 type  2   force =    -0.00000229   -0.00000137   -0.16327754
     atom   20 type  2   force =     0.00000247    0.00000068   -0.16327728
     atom   21 type  1   force =     0.00000065    0.00000007   -0.28273118
     atom   22 type  1   force =    -0.00000038   -0.00000065   -0.28273130
     atom   23 type  2   force =    -0.00000285   -0.00000085   -0.16327723
     atom   24 type  2   force =     0.00000222    0.00000166   -0.16327737
     The ionic contribution  to forces
     atom    1 type  1   force =     0.00000001    0.00000002   -1.97868559
     atom    2 type  1   force =     0.00000001    0.00000001   -1.97868560
     atom    3 type  2   force =     0.00000000    0.00000001    1.97868559
     atom    4 type  2   force =     0.00000001    0.00000001    1.97868560
     atom    5 type  1   force =     0.00000002   -0.00000001   -1.97868559
     atom    6 type  1   force =     0.00000000    0.00000000   -1.97868559
     atom    7 type  2   force =     0.00000001   -0.00000001    1.97868559
     atom    8 type  2   force =     0.00000000    0.00000000    1.97868559
     atom    9 type  1   force =    -0.00000001    0.00000002   -1.97868560
     atom   10 type  1   force =     0.00000002    0.00000001   -1.97868560
     atom   11 type  2   force =    -0.00000001    0.00000001    1.97868560
     atom   12 type  2   force =     0.00000001    0.00000000    1.97868560
     atom   13 type  1   force =    -0.00000001   -0.00000001   -1.97868560
     atom   14 type  1   force =     0.00000001   -0.00000001   -1.97868559
     atom   15 type  2   force =    -0.00000001   -0.00000001    1.97868560
     atom   16 type  2   force =     0.00000000   -0.00000001    1.97868559
     atom   17 type  1   force =    -0.00000001    0.00000001   -1.97868559
     atom   18 type  1   force =    -0.00000001    0.00000000   -1.97868560
     atom   19 type  2   force =    -0.00000001    0.00000000    1.97868559
     atom   20 type  2   force =    -0.00000000    0.00000000    1.97868560
     atom   21 type  1   force =    -0.00000000   -0.00000002   -1.97868559
     atom   22 type  1   force =    -0.00000002   -0.00000001   -1.97868559
     atom   23 type  2   force =    -0.00000000   -0.00000001    1.97868559
     atom   24 type  2   force =    -0.00000001   -0.00000000    1.97868559
     The local contribution  to forces
     atom    1 type  1   force =    -0.00000181    0.00000044    2.13059880
     atom    2 type  1   force =     0.00000036    0.00000000    2.13060109
     atom    3 type  2   force =     0.00000245    0.00000160   -1.71300921
     atom    4 type  2   force =    -0.00000275   -0.00000147   -1.71300839
     atom    5 type  1   force =     0.00000238   -0.00000147    2.13059863
     atom    6 type  1   force =    -0.00000048    0.00000128    2.13060136
     atom    7 type  2   force =     0.00000340   -0.00000048   -1.71300974
     atom    8 type  2   force =    -0.00000342   -0.00000073   -1.71300905
     atom    9 type  1   force =     0.00000137   -0.00000259    2.13059894
     atom   10 type  1   force =    -0.00000034    0.00000113    2.13060021
     atom   11 type  2   force =     0.00000294    0.00000041   -1.71301032
     atom   12 type  2   force =    -0.00000294   -0.00000092   -1.71300977
     atom   13 type  1   force =    -0.00000207    0.00000206    2.13059869
     atom   14 type  1   force =     0.00000273   -0.00000019    2.13060096
     atom   15 type  2   force =     0.00000140    0.00000206   -1.71300989
     atom   16 type  2   force =    -0.00000125   -0.00000125   -1.71300877
     atom   17 type  1   force =    -0.00000080   -0.00000103    2.13059923
     atom   18 type  1   force =     0.00000069   -0.00000192    2.13060054
     atom   19 type  2   force =     0.00000101    0.00000127   -1.71300845
     atom   20 type  2   force =    -0.00000260   -0.00000298   -1.71300854
     atom   21 type  1   force =    -0.00000113    0.00000046    2.13059907
     atom   22 type  1   force =    -0.00000018    0.00000134    2.13060001
     atom   23 type  2   force =     0.00000106    0.00000198   -1.71300894
     atom   24 type  2   force =    -0.00000339   -0.00000136   -1.71300905
     The core correction contribution to forces
     atom    1 type  1   force =    -0.00000009    0.00000001    0.02757739
     atom    2 type  1   force =     0.00000003    0.00000008    0.02757730
     atom    3 type  2   force =     0.00000003    0.00000000    0.00083611
     atom    4 type  2   force =    -0.00000003   -0.00000000    0.00083611
     atom    5 type  1   force =    -0.00000002   -0.00000007    0.02757740
     atom    6 type  1   force =     0.00000014    0.00000001    0.02757731
     atom    7 type  2   force =     0.00000002    0.00000000    0.00083611
     atom    8 type  2   force =    -0.00000003   -0.00000001    0.00083610
     atom    9 type  1   force =    -0.00000014    0.00000004    0.02757738
     atom   10 type  1   force =    -0.00000000    0.00000007    0.02757734
     atom   11 type  2   force =     0.00000002    0.00000001    0.00083610
     atom   12 type  2   force =    -0.00000002   -0.00000000    0.00083611
     atom   13 type  1   force =     0.00000001   -0.00000010    0.02757737
     atom   14 type  1   force =     0.00000014   -0.00000002    0.02757727
     atom   15 type  2   force =     0.00000002    0.00000000    0.00083610
     atom   16 type  2   force =    -0.00000003   -0.00000001    0.00083610
     atom   17 type  1   force =    -0.00000015   -0.00000001    0.02757736
     atom   18 type  1   force =    -0.00000001    0.00000007    0.02757732
     atom   19 type  2   force =     0.00000002    0.00000001    0.00083611
     atom   20 type  2   force =    -0.00000003   -0.00000000    0.00083611
     atom   21 type  1   force =    -0.00000001   -0.00000006    0.02757738
     atom   22 type  1   force =     0.00000013   -0.00000003    0.02757731
     atom   23 type  2   force =     0.00000003    0.00000000    0.00083611
     atom   24 type  2   force =    -0.00000003   -0.00000001    0.00083610
     The Hubbard contrib.    to forces
     atom    1 type  1   force =     0.00000000    0.00000000    0.00000000
     atom    2 type  1   force =     0.00000000    0.00000000    0.00000000
     atom    3 type  2   force =     0.00000000    0.00000000    0.00000000
     atom    4 type  2   force =     0.00000000    0.00000000    0.00000000
     atom    5 type  1   force =     0.00000000    0.00000000    0.00000000
     atom    6 type  1   force =     0.00000000    0.00000000    0.00000000
     atom    7 type  2   force =     0.00000000    0.00000000    0.00000000
     atom    8 type  2   force =     0.00000000    0.00000000    0.00000000
     atom    9 type  1   force =     0.00000000    0.00000000    0.00000000
     atom   10 type  1   force =     0.00000000    0.00000000    0.00000000
     atom   11 type  2   force =     0.00000000    0.00000000    0.00000000
     atom   12 type  2   force =     0.00000000    0.00000000    0.00000000
     atom   13 type  1   force =     0.00000000    0.00000000    0.00000000
     atom   14 type  1   force =     0.00000000    0.00000000    0.00000000
     atom   15 type  2   force =     0.00000000    0.00000000    0.00000000
     atom   16 type  2   force =     0.00000000    0.00000000    0.00000000
     atom   17 type  1   force =     0.00000000    0.00000000    0.00000000
     atom   18 type  1   force =     0.00000000    0.00000000    0.00000000
     atom   19 type  2   force =     0.00000000    0.00000000    0.00000000
     atom   20 type  2   force =     0.00000000    0.00000000    0.00000000
     atom   21 type  1   force =     0.00000000    0.00000000    0.00000000
     atom   22 type  1   force =     0.00000000    0.00000000    0.00000000
     atom   23 type  2   force =     0.00000000    0.00000000    0.00000000
     atom   24 type  2   force =     0.00000000    0.00000000    0.00000000
     The SCF correction term to forces
     atom    1 type  1   force =     0.00000175    0.00000005    0.00002237
     atom    2 type  1   force =    -0.00000010   -0.00000047    0.00002044
     atom    3 type  2   force =    -0.00000013   -0.00000097   -0.00000522
     atom    4 type  2   force =     0.00000051    0.00000034   -0.00000616
     atom    5 type  1   force =    -0.00000369    0.00000239    0.00002311
     atom    6 type  1   force =    -0.00000010   -0.00000222    0.00002017
     atom    7 type  2   force =    -0.00000169    0.00000176   -0.00000483
     atom    8 type  2   force =     0.00000124   -0.00000042   -0.00000550
     atom    9 type  1   force =    -0.00000107    0.00000310    0.00002247
     atom   10 type  1   force =     0.00000026   -0.00000174    0.00002154
     atom   11 type  2   force =    -0.00000106    0.00000079   -0.00000431
     atom   12 type  2   force =     0.00000086   -0.00000004   -0.00000481
     atom   13 type  1   force =     0.00000288   -0.00000214    0.00002353
     atom   14 type  1   force =    -0.00000410    0.00000050    0.00002103
     atom   15 type  2   force =     0.00000087   -0.00000133   -0.00000505
     atom   16 type  2   force =    -0.00000103    0.00000015   -0.00000592
     atom   17 type  1   force =     0.00000231    0.00000178    0.00002230
     atom   18 type  1   force =    -0.00000087    0.00000258    0.00002115
     atom   19 type  2   force =     0.00000119   -0.00000002   -0.00000595
     atom   20 type  2   force =     0.00000043    0.00000225   -0.00000591
     atom   21 type  1   force =     0.00000176   -0.00000071    0.00002267
     atom   22 type  1   force =     0.00000038   -0.00000192    0.00002209
     atom   23 type  2   force =     0.00000152   -0.00000085   -0.00000569
     atom   24 type  2   force =     0.00000134   -0.00000012   -0.00000540

     Total force =     0.505692     Total SCF correction =     0.000079

     init_run     :     17.86s CPU     18.30s WALL (       1 calls)
     electrons    :   1015.52s CPU   1043.28s WALL (       1 calls)
     forces       :      8.78s CPU      8.85s WALL (       1 calls)

     Called by init_run:
     wfcinit      :      9.53s CPU      9.85s WALL (       1 calls)
     wfcinit:atom :      0.04s CPU      0.05s WALL (       7 calls)
     wfcinit:wfcr :      9.09s CPU      9.39s WALL (       7 calls)
     potinit      :      3.28s CPU      3.32s WALL (       1 calls)
     hinit0       :      4.68s CPU      4.71s WALL (       1 calls)

     Called by electrons:
     c_bands      :    913.30s CPU    936.99s WALL (      29 calls)
     sum_band     :     82.26s CPU     85.51s WALL (      29 calls)
     v_of_rho     :     14.06s CPU     14.65s WALL (      30 calls)
     v_h          :      0.63s CPU      0.67s WALL (      30 calls)
     v_xc         :     13.82s CPU     14.39s WALL (      31 calls)
     newd         :      3.43s CPU      3.50s WALL (      30 calls)
     mix_rho      :      0.65s CPU      0.69s WALL (      29 calls)

     Called by c_bands:
     init_us_2    :      5.80s CPU      5.84s WALL (     420 calls)
     init_us_2:cp :      5.80s CPU      5.84s WALL (     420 calls)
     cegterg      :    792.79s CPU    816.28s WALL (     203 calls)

     Called by sum_band:
     sum_band:wei :      0.05s CPU      0.06s WALL (      29 calls)
     sum_band:loo :     70.09s CPU     72.62s WALL (      29 calls)
     sum_band:buf :      0.54s CPU      0.54s WALL (     203 calls)
     sum_band:ini :      1.68s CPU      1.68s WALL (     203 calls)
     sum_band:cal :     19.46s CPU     19.60s WALL (     203 calls)
     sum_band:bec :      0.17s CPU      0.17s WALL (     203 calls)
     addusdens    :      2.96s CPU      3.43s WALL (      29 calls)
     addusd:skk   :      0.06s CPU      0.06s WALL (      58 calls)
     addusd:dgemm :      0.35s CPU      0.72s WALL (      58 calls)
     addusd:qvan2 :      1.92s CPU      1.93s WALL (      58 calls)

     Called by *egterg:
     cdiaghg      :     53.79s CPU     54.94s WALL (    1202 calls)
     cegterg:over :     71.49s CPU     71.70s WALL (     999 calls)
     cegterg:upda :     41.24s CPU     42.06s WALL (     999 calls)
     cegterg:last :     94.47s CPU     94.88s WALL (     653 calls)
     cdiaghg:chol :      3.23s CPU      3.24s WALL (    1202 calls)
     cdiaghg:inve :      0.83s CPU      0.83s WALL (    1202 calls)
     cdiaghg:para :      9.99s CPU     10.89s WALL (    2404 calls)
     h_psi        :    460.38s CPU    478.50s WALL (    1209 calls)
     s_psi        :     59.08s CPU     59.16s WALL (    1209 calls)
     g_psi        :      1.58s CPU      1.59s WALL (     999 calls)

     Called by h_psi:
     h_psi:calbec :     69.03s CPU     69.62s WALL (    1209 calls)
     vloc_psi     :    330.23s CPU    346.39s WALL (    1209 calls)
     add_vuspsi   :     59.78s CPU     59.84s WALL (    1209 calls)

     General routines
     calbec       :     91.76s CPU     92.51s WALL (    1440 calls)
     fft          :     11.07s CPU     11.62s WALL (     399 calls)
     ffts         :      0.71s CPU      0.72s WALL (      59 calls)
     fftw         :    346.88s CPU    364.70s WALL (  173438 calls)
     interpolate  :      1.22s CPU      1.25s WALL (      30 calls)

     Parallel routines

     PWSCF        :  17m23.29s CPU  17m51.61s WALL


   This run was terminated on:   4:20:23   2Sep2025            

=------------------------------------------------------------------------------=
   JOB DONE.
=------------------------------------------------------------------------------=
Note: The following floating-point exceptions are signalling: IEEE_UNDERFLOW_FLAG IEEE_DENORMAL
Note: The following floating-point exceptions are signalling: IEEE_UNDERFLOW_FLAG IEEE_DENORMAL
Note: The following floating-point exceptions are signalling: IEEE_UNDERFLOW_FLAG IEEE_DENORMAL
Note: The following floating-point exceptions are signalling: IEEE_UNDERFLOW_FLAG IEEE_DENORMAL
Note: The following floating-point exceptions are signalling: IEEE_UNDERFLOW_FLAG IEEE_DENORMAL
Note: The following floating-point exceptions are signalling: IEEE_UNDERFLOW_FLAG IEEE_DENORMAL
Note: The following floating-point exceptions are signalling: IEEE_UNDERFLOW_FLAG IEEE_DENORMAL
Note: The following floating-point exceptions are signalling: IEEE_UNDERFLOW_FLAG IEEE_DENORMAL
Note: The following floating-point exceptions are signalling: IEEE_UNDERFLOW_FLAG IEEE_DENORMAL
Note: The following floating-point exceptions are signalling: IEEE_UNDERFLOW_FLAG IEEE_DENORMAL
Note: The following floating-point exceptions are signalling: IEEE_UNDERFLOW_FLAG IEEE_DENORMAL
Note: The following floating-point exceptions are signalling: IEEE_UNDERFLOW_FLAG IEEE_DENORMAL
Note: The following floating-point exceptions are signalling: IEEE_UNDERFLOW_FLAG IEEE_DENORMAL
Note: The following floating-point exceptions are signalling: IEEE_UNDERFLOW_FLAG IEEE_DENORMAL
Note: The following floating-point exceptions are signalling: IEEE_UNDERFLOW_FLAG IEEE_DENORMAL
Note: The following floating-point exceptions are signalling: IEEE_UNDERFLOW_FLAG IEEE_DENORMAL
Note: The following floating-point exceptions are signalling: IEEE_UNDERFLOW_FLAG IEEE_DENORMAL
Note: The following floating-point exceptions are signalling: IEEE_UNDERFLOW_FLAG IEEE_DENORMAL
Note: The following floating-point exceptions are signalling: IEEE_UNDERFLOW_FLAG IEEE_DENORMAL
Note: The following floating-point exceptions are signalling: IEEE_UNDERFLOW_FLAG IEEE_DENORMAL
Note: The following floating-point exceptions are signalling: IEEE_UNDERFLOW_FLAG IEEE_DENORMAL
Note: The following floating-point exceptions are signalling: IEEE_UNDERFLOW_FLAG IEEE_DENORMAL
Note: The following floating-point exceptions are signalling: IEEE_UNDERFLOW_FLAG IEEE_DENORMAL
Note: The following floating-point exceptions are signalling: IEEE_UNDERFLOW_FLAG IEEE_DENORMAL
Note: The following floating-point exceptions are signalling: IEEE_UNDERFLOW_FLAG IEEE_DENORMAL
Note: The following floating-point exceptions are signalling: IEEE_UNDERFLOW_FLAG IEEE_DENORMAL
Note: The following floating-point exceptions are signalling: IEEE_UNDERFLOW_FLAG IEEE_DENORMAL
Note: The following floating-point exceptions are signalling: IEEE_UNDERFLOW_FLAG IEEE_DENORMAL
Note: The following floating-point exceptions are signalling: IEEE_UNDERFLOW_FLAG IEEE_DENORMAL
Note: The following floating-point exceptions are signalling: IEEE_UNDERFLOW_FLAG IEEE_DENORMAL
Note: The following floating-point exceptions are signalling: IEEE_UNDERFLOW_FLAG IEEE_DENORMAL
Note: The following floating-point exceptions are signalling: IEEE_UNDERFLOW_FLAG IEEE_DENORMAL
Note: The following floating-point exceptions are signalling: IEEE_UNDERFLOW_FLAG IEEE_DENORMAL
Note: The following floating-point exceptions are signalling: IEEE_UNDERFLOW_FLAG IEEE_DENORMAL
Note: The following floating-point exceptions are signalling: IEEE_UNDERFLOW_FLAG IEEE_DENORMAL
Note: The following floating-point exceptions are signalling: IEEE_UNDERFLOW_FLAG IEEE_DENORMAL
Note: The following floating-point exceptions are signalling: IEEE_UNDERFLOW_FLAG IEEE_DENORMAL
Note: The following floating-point exceptions are signalling: IEEE_UNDERFLOW_FLAG IEEE_DENORMAL
Note: The following floating-point exceptions are signalling: IEEE_UNDERFLOW_FLAG IEEE_DENORMAL
Note: The following floating-point exceptions are signalling: IEEE_UNDERFLOW_FLAG IEEE_DENORMAL
Note: The following floating-point exceptions are signalling: IEEE_UNDERFLOW_FLAG IEEE_DENORMAL
Note: The following floating-point exceptions are signalling: IEEE_UNDERFLOW_FLAG IEEE_DENORMAL
Note: The following floating-point exceptions are signalling: IEEE_UNDERFLOW_FLAG IEEE_DENORMAL
Note: The following floating-point exceptions are signalling: IEEE_UNDERFLOW_FLAG IEEE_DENORMAL
Note: The following floating-point exceptions are signalling: IEEE_UNDERFLOW_FLAG IEEE_DENORMAL
Note: The following floating-point exceptions are signalling: IEEE_UNDERFLOW_FLAG IEEE_DENORMAL
Note: The following floating-point exceptions are signalling: IEEE_UNDERFLOW_FLAG IEEE_DENORMAL
Note: The following floating-point exceptions are signalling: IEEE_UNDERFLOW_FLAG IEEE_DENORMAL
Note: The following floating-point exceptions are signalling: IEEE_UNDERFLOW_FLAG IEEE_DENORMAL
Note: The following floating-point exceptions are signalling: IEEE_UNDERFLOW_FLAG IEEE_DENORMAL
Note: The following floating-point exceptions are signalling: IEEE_UNDERFLOW_FLAG IEEE_DENORMAL
Note: The following floating-point exceptions are signalling: IEEE_UNDERFLOW_FLAG IEEE_DENORMAL
Note: The following floating-point exceptions are signalling: IEEE_UNDERFLOW_FLAG IEEE_DENORMAL
Note: The following floating-point exceptions are signalling: IEEE_UNDERFLOW_FLAG IEEE_DENORMAL
Note: The following floating-point exceptions are signalling: IEEE_UNDERFLOW_FLAG IEEE_DENORMAL
Note: The following floating-point exceptions are signalling: IEEE_UNDERFLOW_FLAG IEEE_DENORMAL
Note: The following floating-point exceptions are signalling: IEEE_UNDERFLOW_FLAG IEEE_DENORMAL
Note: The following floating-point exceptions are signalling: IEEE_UNDERFLOW_FLAG IEEE_DENORMAL
Note: The following floating-point exceptions are signalling: IEEE_UNDERFLOW_FLAG IEEE_DENORMAL
Note: The following floating-point exceptions are signalling: IEEE_UNDERFLOW_FLAG IEEE_DENORMAL
Note: The following floating-point exceptions are signalling: IEEE_UNDERFLOW_FLAG IEEE_DENORMAL
Note: The following floating-point exceptions are signalling: IEEE_UNDERFLOW_FLAG IEEE_DENORMAL
Note: The following floating-point exceptions are signalling: IEEE_UNDERFLOW_FLAG IEEE_DENORMAL
Note: The following floating-point exceptions are signalling: IEEE_UNDERFLOW_FLAG IEEE_DENORMAL
