
     Program PWSCF v.7.0 starts on  2Sep2025 at  3:12:27 

     This program is part of the open-source Quantum ESPRESSO suite
     for quantum simulation of materials; please cite
         "P. Giannozzi et al., J. Phys.:Condens. Matter 21 395502 (2009);
         "P. Giannozzi et al., J. Phys.:Condens. Matter 29 465901 (2017);
         "P. Giannozzi et al., J. Chem. Phys. 152 154105 (2020);
          URL http://www.quantum-espresso.org", 
     in publications or presentations arising from this work. More details at
     http://www.quantum-espresso.org/quote

     Parallel version (MPI & OpenMP), running on      64 processor cores
     Number of MPI processes:                64
     Threads/MPI process:                     1

     MPI processes distributed on     1 nodes
     K-points division:     npool     =      16
     R & G space division:  proc/nbgrp/npool/nimage =       4
     107644 MiB available memory on the printing compute node when the environment starts

     Reading input from /home/jvc/QEspresso7.2/ZnO_database/scripts/cell321.in/ZnO-3.01-1.74-321.in
Warning: card &CELL ignored
Warning: card / ignored
Warning: card &FCP ignored
Warning: card / ignored
Warning: card &RISM ignored
Warning: card / ignored

     Current dimensions of program PWSCF are:
     Max number of different atomic species (ntypx) = 10
     Max number of k-points (npk) =  40000
     Max angular momentum in pseudopotentials (lmaxx) =  4
     file Zn.upf: wavefunction(s)  3D renormalized
     Found identity + ( -0.0000  0.5000  0.0000) symmetry
     This is a supercell, fractional translations are disabled

     Subspace diagonalization in iterative solution of the eigenvalue problem:
     one sub-group per band group will be used
     scalapack distributed-memory algorithm (size of sub-group:  2*  2 procs)


     Parallelization info
     --------------------
     sticks:   dense  smooth     PW     G-vecs:    dense   smooth      PW
     Min        1336     667    193                56195    19859    3117
     Max        1338     668    194                56196    19860    3119
     Sum        5349    2671    773               224783    79439   12473

     Using Slab Decomposition



     bravais-lattice index     =            0
     lattice parameter (alat)  =      17.0536  a.u.
     unit-cell volume          =    1664.1515 (a.u.)^3
     number of atoms/cell      =           24
     number of atomic types    =            2
     number of electrons       =       216.00
     number of Kohn-Sham states=          108
     kinetic-energy cutoff     =      50.0000  Ry
     charge density cutoff     =     400.0000  Ry
     scf convergence threshold =      1.0E-08
     mixing beta               =       0.3000
     number of iterations used =            8  plain     mixing
     Exchange-correlation= PBE
                           (   1   4   3   4   0   0   0)

     celldm(1)=  17.053637  celldm(2)=   0.000000  celldm(3)=   0.000000
     celldm(4)=   0.000000  celldm(5)=   0.000000  celldm(6)=   0.000000

     crystal axes: (cart. coord. in units of alat)
               a(1) = (   1.000000   0.000000   0.000000 )  
               a(2) = (  -0.333333   0.577350   0.000000 )  
               a(3) = (   0.000000   0.000000   0.581169 )  

     reciprocal axes: (cart. coord. in units 2 pi/alat)
               b(1) = (  1.000000  0.577350 -0.000000 )  
               b(2) = (  0.000000  1.732051  0.000000 )  
               b(3) = (  0.000000 -0.000000  1.720670 )  


     PseudoPot. # 1 for Zn read from file:
     /home/jvc/QEspresso7.2/ZnO_database/pseudos/Zn.upf
     MD5 check sum: 7f56cabf9682ed8c977c2f7d0c5985c5
     Pseudo is Ultrasoft + core correction, Zval = 12.0
     Generated using &quot;atomic&quot; code by A. Dal Corso  v.6.2.2
     Using radial grid of 1201 points,  6 beta functions with: 
                l(1) =   0
                l(2) =   0
                l(3) =   1
                l(4) =   1
                l(5) =   2
                l(6) =   2
     Q(r) pseudized with 0 coefficients 


     PseudoPot. # 2 for O  read from file:
     /home/jvc/QEspresso7.2/ZnO_database/pseudos/O.upf
     MD5 check sum: 91400c9766925bcf19f520983a725ff0
     Pseudo is Ultrasoft + core correction, Zval =  6.0
     Generated using &quot;atomic&quot; code by A. Dal Corso  v.6.3MaX
     Using radial grid of 1095 points,  4 beta functions with: 
                l(1) =   0
                l(2) =   0
                l(3) =   1
                l(4) =   1
     Q(r) pseudized with 0 coefficients 


     atomic species   valence    mass     pseudopotential
        Zn            12.00    65.38000     Zn( 1.00)
        O              6.00    15.99900     O ( 1.00)

     No symmetry found


                                    s                        frac. trans.

      isym =  1     identity                                     

 cryst.   s( 1) = (     1          0          0      )
                  (     0          1          0      )
                  (     0          0          1      )

 cart.    s( 1) = (  1.0000000  0.0000000  0.0000000 )
                  (  0.0000000  1.0000000  0.0000000 )
                  (  0.0000000  0.0000000  1.0000000 )


   Cartesian axes

     site n.     atom                  positions (alat units)
         1           Zn  tau(   1) = (   0.1666667   0.0962250   0.2909527  )
         2           Zn  tau(   2) = (   0.0000000   0.1924501   0.0003682  )
         3           O   tau(   3) = (   0.1666667   0.0962250   0.5112407  )
         4           O   tau(   4) = (   0.0000000   0.1924501   0.2206562  )
         5           Zn  tau(   5) = (   0.0000000   0.3849002   0.2909527  )
         6           Zn  tau(   6) = (  -0.1666667   0.4811252   0.0003682  )
         7           O   tau(   7) = (   0.0000000   0.3849002   0.5112407  )
         8           O   tau(   8) = (  -0.1666667   0.4811252   0.2206562  )
         9           Zn  tau(   9) = (   0.5000000   0.0962250   0.2909527  )
        10           Zn  tau(  10) = (   0.3333333   0.1924501   0.0003682  )
        11           O   tau(  11) = (   0.5000000   0.0962250   0.5112407  )
        12           O   tau(  12) = (   0.3333333   0.1924501   0.2206562  )
        13           Zn  tau(  13) = (   0.3333333   0.3849002   0.2909527  )
        14           Zn  tau(  14) = (   0.1666667   0.4811252   0.0003682  )
        15           O   tau(  15) = (   0.3333333   0.3849002   0.5112407  )
        16           O   tau(  16) = (   0.1666667   0.4811252   0.2206562  )
        17           Zn  tau(  17) = (   0.8333333   0.0962250   0.2909527  )
        18           Zn  tau(  18) = (   0.6666667   0.1924501   0.0003682  )
        19           O   tau(  19) = (   0.8333333   0.0962250   0.5112407  )
        20           O   tau(  20) = (   0.6666667   0.1924501   0.2206562  )
        21           Zn  tau(  21) = (   0.6666667   0.3849002   0.2909527  )
        22           Zn  tau(  22) = (   0.5000000   0.4811252   0.0003682  )
        23           O   tau(  23) = (   0.6666667   0.3849002   0.5112407  )
        24           O   tau(  24) = (   0.5000000   0.4811252   0.2206562  )

   Crystallographic axes

     site n.     atom                  positions (cryst. coord.)
         1           Zn  tau(   1) = (  0.2222222  0.1666667  0.5006336  )
         2           Zn  tau(   2) = (  0.1111111  0.3333333  0.0006336  )
         3           O   tau(   3) = (  0.2222222  0.1666667  0.8796764  )
         4           O   tau(   4) = (  0.1111111  0.3333333  0.3796764  )
         5           Zn  tau(   5) = (  0.2222222  0.6666667  0.5006336  )
         6           Zn  tau(   6) = (  0.1111111  0.8333333  0.0006336  )
         7           O   tau(   7) = (  0.2222222  0.6666667  0.8796764  )
         8           O   tau(   8) = (  0.1111111  0.8333333  0.3796764  )
         9           Zn  tau(   9) = (  0.5555556  0.1666667  0.5006336  )
        10           Zn  tau(  10) = (  0.4444444  0.3333333  0.0006336  )
        11           O   tau(  11) = (  0.5555556  0.1666667  0.8796764  )
        12           O   tau(  12) = (  0.4444444  0.3333333  0.3796764  )
        13           Zn  tau(  13) = (  0.5555556  0.6666667  0.5006336  )
        14           Zn  tau(  14) = (  0.4444444  0.8333333  0.0006336  )
        15           O   tau(  15) = (  0.5555556  0.6666667  0.8796764  )
        16           O   tau(  16) = (  0.4444444  0.8333333  0.3796764  )
        17           Zn  tau(  17) = (  0.8888889  0.1666667  0.5006336  )
        18           Zn  tau(  18) = (  0.7777778  0.3333333  0.0006336  )
        19           O   tau(  19) = (  0.8888889  0.1666667  0.8796764  )
        20           O   tau(  20) = (  0.7777778  0.3333333  0.3796764  )
        21           Zn  tau(  21) = (  0.8888889  0.6666667  0.5006336  )
        22           Zn  tau(  22) = (  0.7777778  0.8333333  0.0006336  )
        23           O   tau(  23) = (  0.8888889  0.6666667  0.8796764  )
        24           O   tau(  24) = (  0.7777778  0.8333333  0.3796764  )

     number of k points=   112
                       cart. coord. in units 2pi/alat
        k(    1) = (   0.0000000   0.0000000   0.0000000), wk =   0.0092593
        k(    2) = (   0.0000000   0.0000000   0.2867783), wk =   0.0185185
        k(    3) = (   0.0000000   0.0000000   0.5735566), wk =   0.0185185
        k(    4) = (   0.0000000   0.0000000  -0.8603349), wk =   0.0092593
        k(    5) = (   0.0000000   0.2886751   0.0000000), wk =   0.0185185
        k(    6) = (   0.0000000   0.2886751   0.2867783), wk =   0.0185185
        k(    7) = (   0.0000000   0.2886751   0.5735566), wk =   0.0185185
        k(    8) = (   0.0000000   0.2886751  -0.8603349), wk =   0.0185185
        k(    9) = (   0.0000000   0.5773503   0.0000000), wk =   0.0185185
        k(   10) = (   0.0000000   0.5773503   0.2867783), wk =   0.0185185
        k(   11) = (   0.0000000   0.5773503   0.5735566), wk =   0.0185185
        k(   12) = (   0.0000000   0.5773503  -0.8603349), wk =   0.0185185
        k(   13) = (   0.0000000  -0.8660254   0.0000000), wk =   0.0092593
        k(   14) = (   0.0000000  -0.8660254   0.2867783), wk =   0.0185185
        k(   15) = (   0.0000000  -0.8660254   0.5735566), wk =   0.0185185
        k(   16) = (   0.0000000  -0.8660254  -0.8603349), wk =   0.0092593
        k(   17) = (   0.1666667   0.0962250   0.0000000), wk =   0.0185185
        k(   18) = (   0.1666667   0.0962250   0.2867783), wk =   0.0185185
        k(   19) = (   0.1666667   0.0962250   0.5735566), wk =   0.0185185
        k(   20) = (   0.1666667   0.0962250  -0.8603349), wk =   0.0185185
        k(   21) = (   0.1666667   0.3849002   0.0000000), wk =   0.0185185
        k(   22) = (   0.1666667   0.3849002   0.2867783), wk =   0.0185185
        k(   23) = (   0.1666667   0.3849002   0.5735566), wk =   0.0185185
        k(   24) = (   0.1666667   0.3849002  -0.8603349), wk =   0.0185185
        k(   25) = (   0.1666667   0.6735753   0.0000000), wk =   0.0185185
        k(   26) = (   0.1666667   0.6735753   0.2867783), wk =   0.0185185
        k(   27) = (   0.1666667   0.6735753   0.5735566), wk =   0.0185185
        k(   28) = (   0.1666667   0.6735753  -0.8603349), wk =   0.0185185
        k(   29) = (   0.1666667  -0.7698004   0.0000000), wk =   0.0185185
        k(   30) = (   0.1666667  -0.7698004   0.2867783), wk =   0.0185185
        k(   31) = (   0.1666667  -0.7698004   0.5735566), wk =   0.0185185
        k(   32) = (   0.1666667  -0.7698004  -0.8603349), wk =   0.0185185
        k(   33) = (   0.1666667  -0.4811252   0.0000000), wk =   0.0185185
        k(   34) = (   0.1666667  -0.4811252   0.2867783), wk =   0.0185185
        k(   35) = (   0.1666667  -0.4811252   0.5735566), wk =   0.0185185
        k(   36) = (   0.1666667  -0.4811252  -0.8603349), wk =   0.0185185
        k(   37) = (   0.1666667  -0.1924501   0.0000000), wk =   0.0185185
        k(   38) = (   0.1666667  -0.1924501   0.2867783), wk =   0.0185185
        k(   39) = (   0.1666667  -0.1924501   0.5735566), wk =   0.0185185
        k(   40) = (   0.1666667  -0.1924501  -0.8603349), wk =   0.0185185
        k(   41) = (   0.3333333   0.1924501   0.0000000), wk =   0.0185185
        k(   42) = (   0.3333333   0.1924501   0.2867783), wk =   0.0185185
        k(   43) = (   0.3333333   0.1924501   0.5735566), wk =   0.0185185
        k(   44) = (   0.3333333   0.1924501  -0.8603349), wk =   0.0185185
        k(   45) = (   0.3333333   0.4811252   0.0000000), wk =   0.0185185
        k(   46) = (   0.3333333   0.4811252   0.2867783), wk =   0.0185185
        k(   47) = (   0.3333333   0.4811252   0.5735566), wk =   0.0185185
        k(   48) = (   0.3333333   0.4811252  -0.8603349), wk =   0.0185185
        k(   49) = (   0.3333333   0.7698004   0.0000000), wk =   0.0185185
        k(   50) = (   0.3333333   0.7698004   0.2867783), wk =   0.0185185
        k(   51) = (   0.3333333   0.7698004   0.5735566), wk =   0.0185185
        k(   52) = (   0.3333333   0.7698004  -0.8603349), wk =   0.0185185
        k(   53) = (   0.3333333  -0.6735753   0.0000000), wk =   0.0185185
        k(   54) = (   0.3333333  -0.6735753   0.2867783), wk =   0.0185185
        k(   55) = (   0.3333333  -0.6735753   0.5735566), wk =   0.0185185
        k(   56) = (   0.3333333  -0.6735753  -0.8603349), wk =   0.0185185
        k(   57) = (   0.3333333  -0.3849002   0.0000000), wk =   0.0185185
        k(   58) = (   0.3333333  -0.3849002   0.2867783), wk =   0.0185185
        k(   59) = (   0.3333333  -0.3849002   0.5735566), wk =   0.0185185
        k(   60) = (   0.3333333  -0.3849002  -0.8603349), wk =   0.0185185
        k(   61) = (   0.3333333  -0.0962250   0.0000000), wk =   0.0185185
        k(   62) = (   0.3333333  -0.0962250   0.2867783), wk =   0.0185185
        k(   63) = (   0.3333333  -0.0962250   0.5735566), wk =   0.0185185
        k(   64) = (   0.3333333  -0.0962250  -0.8603349), wk =   0.0185185
        k(   65) = (  -0.5000000  -0.2886751   0.0000000), wk =   0.0092593
        k(   66) = (  -0.5000000  -0.2886751   0.2867783), wk =   0.0185185
        k(   67) = (  -0.5000000  -0.2886751   0.5735566), wk =   0.0185185
        k(   68) = (  -0.5000000  -0.2886751  -0.8603349), wk =   0.0092593
        k(   69) = (  -0.5000000   0.0000000   0.0000000), wk =   0.0185185
        k(   70) = (  -0.5000000   0.0000000   0.2867783), wk =   0.0185185
        k(   71) = (  -0.5000000   0.0000000   0.5735566), wk =   0.0185185
        k(   72) = (  -0.5000000   0.0000000  -0.8603349), wk =   0.0185185
        k(   73) = (  -0.5000000   0.2886751   0.0000000), wk =   0.0185185
        k(   74) = (  -0.5000000   0.2886751   0.2867783), wk =   0.0185185
        k(   75) = (  -0.5000000   0.2886751   0.5735566), wk =   0.0185185
        k(   76) = (  -0.5000000   0.2886751  -0.8603349), wk =   0.0185185
        k(   77) = (  -0.5000000  -1.1547005   0.0000000), wk =   0.0092593
        k(   78) = (  -0.5000000  -1.1547005   0.2867783), wk =   0.0185185
        k(   79) = (  -0.5000000  -1.1547005   0.5735566), wk =   0.0185185
        k(   80) = (  -0.5000000  -1.1547005  -0.8603349), wk =   0.0092593
        k(   81) = (   0.0000000  -0.2886751   0.2867783), wk =   0.0185185
        k(   82) = (   0.0000000  -0.2886751   0.5735566), wk =   0.0185185
        k(   83) = (   0.0000000  -0.5773503   0.2867783), wk =   0.0185185
        k(   84) = (   0.0000000  -0.5773503   0.5735566), wk =   0.0185185
        k(   85) = (  -0.1666667  -0.0962250   0.2867783), wk =   0.0185185
        k(   86) = (  -0.1666667  -0.0962250   0.5735566), wk =   0.0185185
        k(   87) = (  -0.1666667  -0.3849002   0.2867783), wk =   0.0185185
        k(   88) = (  -0.1666667  -0.3849002   0.5735566), wk =   0.0185185
        k(   89) = (  -0.1666667  -0.6735753   0.2867783), wk =   0.0185185
        k(   90) = (  -0.1666667  -0.6735753   0.5735566), wk =   0.0185185
        k(   91) = (  -0.1666667   0.7698004   0.2867783), wk =   0.0185185
        k(   92) = (  -0.1666667   0.7698004   0.5735566), wk =   0.0185185
        k(   93) = (  -0.1666667   0.4811252   0.2867783), wk =   0.0185185
        k(   94) = (  -0.1666667   0.4811252   0.5735566), wk =   0.0185185
        k(   95) = (  -0.1666667   0.1924501   0.2867783), wk =   0.0185185
        k(   96) = (  -0.1666667   0.1924501   0.5735566), wk =   0.0185185
        k(   97) = (  -0.3333333  -0.1924501   0.2867783), wk =   0.0185185
        k(   98) = (  -0.3333333  -0.1924501   0.5735566), wk =   0.0185185
        k(   99) = (  -0.3333333  -0.4811252   0.2867783), wk =   0.0185185
        k(  100) = (  -0.3333333  -0.4811252   0.5735566), wk =   0.0185185
        k(  101) = (  -0.3333333  -0.7698004   0.2867783), wk =   0.0185185
        k(  102) = (  -0.3333333  -0.7698004   0.5735566), wk =   0.0185185
        k(  103) = (  -0.3333333   0.6735753   0.2867783), wk =   0.0185185
        k(  104) = (  -0.3333333   0.6735753   0.5735566), wk =   0.0185185
        k(  105) = (  -0.3333333   0.3849002   0.2867783), wk =   0.0185185
        k(  106) = (  -0.3333333   0.3849002   0.5735566), wk =   0.0185185
        k(  107) = (  -0.3333333   0.0962250   0.2867783), wk =   0.0185185
        k(  108) = (  -0.3333333   0.0962250   0.5735566), wk =   0.0185185
        k(  109) = (   0.5000000   0.0000000   0.2867783), wk =   0.0185185
        k(  110) = (   0.5000000   0.0000000   0.5735566), wk =   0.0185185
        k(  111) = (   0.5000000  -0.2886751   0.2867783), wk =   0.0185185
        k(  112) = (   0.5000000  -0.2886751   0.5735566), wk =   0.0185185

                       cryst. coord.
        k(    1) = (   0.0000000   0.0000000   0.0000000), wk =   0.0092593
        k(    2) = (   0.0000000   0.0000000   0.1666667), wk =   0.0185185
        k(    3) = (   0.0000000   0.0000000   0.3333333), wk =   0.0185185
        k(    4) = (   0.0000000   0.0000000  -0.5000000), wk =   0.0092593
        k(    5) = (   0.0000000   0.1666667   0.0000000), wk =   0.0185185
        k(    6) = (   0.0000000   0.1666667   0.1666667), wk =   0.0185185
        k(    7) = (   0.0000000   0.1666667   0.3333333), wk =   0.0185185
        k(    8) = (   0.0000000   0.1666667  -0.5000000), wk =   0.0185185
        k(    9) = (   0.0000000   0.3333333   0.0000000), wk =   0.0185185
        k(   10) = (   0.0000000   0.3333333   0.1666667), wk =   0.0185185
        k(   11) = (   0.0000000   0.3333333   0.3333333), wk =   0.0185185
        k(   12) = (   0.0000000   0.3333333  -0.5000000), wk =   0.0185185
        k(   13) = (   0.0000000  -0.5000000   0.0000000), wk =   0.0092593
        k(   14) = (   0.0000000  -0.5000000   0.1666667), wk =   0.0185185
        k(   15) = (   0.0000000  -0.5000000   0.3333333), wk =   0.0185185
        k(   16) = (   0.0000000  -0.5000000  -0.5000000), wk =   0.0092593
        k(   17) = (   0.1666667  -0.0000000   0.0000000), wk =   0.0185185
        k(   18) = (   0.1666667  -0.0000000   0.1666667), wk =   0.0185185
        k(   19) = (   0.1666667  -0.0000000   0.3333333), wk =   0.0185185
        k(   20) = (   0.1666667  -0.0000000  -0.5000000), wk =   0.0185185
        k(   21) = (   0.1666667   0.1666667   0.0000000), wk =   0.0185185
        k(   22) = (   0.1666667   0.1666667   0.1666667), wk =   0.0185185
        k(   23) = (   0.1666667   0.1666667   0.3333333), wk =   0.0185185
        k(   24) = (   0.1666667   0.1666667  -0.5000000), wk =   0.0185185
        k(   25) = (   0.1666667   0.3333333   0.0000000), wk =   0.0185185
        k(   26) = (   0.1666667   0.3333333   0.1666667), wk =   0.0185185
        k(   27) = (   0.1666667   0.3333333   0.3333333), wk =   0.0185185
        k(   28) = (   0.1666667   0.3333333  -0.5000000), wk =   0.0185185
        k(   29) = (   0.1666667  -0.5000000   0.0000000), wk =   0.0185185
        k(   30) = (   0.1666667  -0.5000000   0.1666667), wk =   0.0185185
        k(   31) = (   0.1666667  -0.5000000   0.3333333), wk =   0.0185185
        k(   32) = (   0.1666667  -0.5000000  -0.5000000), wk =   0.0185185
        k(   33) = (   0.1666667  -0.3333333   0.0000000), wk =   0.0185185
        k(   34) = (   0.1666667  -0.3333333   0.1666667), wk =   0.0185185
        k(   35) = (   0.1666667  -0.3333333   0.3333333), wk =   0.0185185
        k(   36) = (   0.1666667  -0.3333333  -0.5000000), wk =   0.0185185
        k(   37) = (   0.1666667  -0.1666667   0.0000000), wk =   0.0185185
        k(   38) = (   0.1666667  -0.1666667   0.1666667), wk =   0.0185185
        k(   39) = (   0.1666667  -0.1666667   0.3333333), wk =   0.0185185
        k(   40) = (   0.1666667  -0.1666667  -0.5000000), wk =   0.0185185
        k(   41) = (   0.3333333  -0.0000000   0.0000000), wk =   0.0185185
        k(   42) = (   0.3333333  -0.0000000   0.1666667), wk =   0.0185185
        k(   43) = (   0.3333333  -0.0000000   0.3333333), wk =   0.0185185
        k(   44) = (   0.3333333  -0.0000000  -0.5000000), wk =   0.0185185
        k(   45) = (   0.3333333   0.1666667   0.0000000), wk =   0.0185185
        k(   46) = (   0.3333333   0.1666667   0.1666667), wk =   0.0185185
        k(   47) = (   0.3333333   0.1666667   0.3333333), wk =   0.0185185
        k(   48) = (   0.3333333   0.1666667  -0.5000000), wk =   0.0185185
        k(   49) = (   0.3333333   0.3333333   0.0000000), wk =   0.0185185
        k(   50) = (   0.3333333   0.3333333   0.1666667), wk =   0.0185185
        k(   51) = (   0.3333333   0.3333333   0.3333333), wk =   0.0185185
        k(   52) = (   0.3333333   0.3333333  -0.5000000), wk =   0.0185185
        k(   53) = (   0.3333333  -0.5000000   0.0000000), wk =   0.0185185
        k(   54) = (   0.3333333  -0.5000000   0.1666667), wk =   0.0185185
        k(   55) = (   0.3333333  -0.5000000   0.3333333), wk =   0.0185185
        k(   56) = (   0.3333333  -0.5000000  -0.5000000), wk =   0.0185185
        k(   57) = (   0.3333333  -0.3333333   0.0000000), wk =   0.0185185
        k(   58) = (   0.3333333  -0.3333333   0.1666667), wk =   0.0185185
        k(   59) = (   0.3333333  -0.3333333   0.3333333), wk =   0.0185185
        k(   60) = (   0.3333333  -0.3333333  -0.5000000), wk =   0.0185185
        k(   61) = (   0.3333333  -0.1666667   0.0000000), wk =   0.0185185
        k(   62) = (   0.3333333  -0.1666667   0.1666667), wk =   0.0185185
        k(   63) = (   0.3333333  -0.1666667   0.3333333), wk =   0.0185185
        k(   64) = (   0.3333333  -0.1666667  -0.5000000), wk =   0.0185185
        k(   65) = (  -0.5000000   0.0000000   0.0000000), wk =   0.0092593
        k(   66) = (  -0.5000000   0.0000000   0.1666667), wk =   0.0185185
        k(   67) = (  -0.5000000   0.0000000   0.3333333), wk =   0.0185185
        k(   68) = (  -0.5000000   0.0000000  -0.5000000), wk =   0.0092593
        k(   69) = (  -0.5000000   0.1666667   0.0000000), wk =   0.0185185
        k(   70) = (  -0.5000000   0.1666667   0.1666667), wk =   0.0185185
        k(   71) = (  -0.5000000   0.1666667   0.3333333), wk =   0.0185185
        k(   72) = (  -0.5000000   0.1666667  -0.5000000), wk =   0.0185185
        k(   73) = (  -0.5000000   0.3333333   0.0000000), wk =   0.0185185
        k(   74) = (  -0.5000000   0.3333333   0.1666667), wk =   0.0185185
        k(   75) = (  -0.5000000   0.3333333   0.3333333), wk =   0.0185185
        k(   76) = (  -0.5000000   0.3333333  -0.5000000), wk =   0.0185185
        k(   77) = (  -0.5000000  -0.5000000   0.0000000), wk =   0.0092593
        k(   78) = (  -0.5000000  -0.5000000   0.1666667), wk =   0.0185185
        k(   79) = (  -0.5000000  -0.5000000   0.3333333), wk =   0.0185185
        k(   80) = (  -0.5000000  -0.5000000  -0.5000000), wk =   0.0092593
        k(   81) = (   0.0000000  -0.1666667   0.1666667), wk =   0.0185185
        k(   82) = (   0.0000000  -0.1666667   0.3333333), wk =   0.0185185
        k(   83) = (   0.0000000  -0.3333333   0.1666667), wk =   0.0185185
        k(   84) = (   0.0000000  -0.3333333   0.3333333), wk =   0.0185185
        k(   85) = (  -0.1666667   0.0000000   0.1666667), wk =   0.0185185
        k(   86) = (  -0.1666667   0.0000000   0.3333333), wk =   0.0185185
        k(   87) = (  -0.1666667  -0.1666667   0.1666667), wk =   0.0185185
        k(   88) = (  -0.1666667  -0.1666667   0.3333333), wk =   0.0185185
        k(   89) = (  -0.1666667  -0.3333333   0.1666667), wk =   0.0185185
        k(   90) = (  -0.1666667  -0.3333333   0.3333333), wk =   0.0185185
        k(   91) = (  -0.1666667   0.5000000   0.1666667), wk =   0.0185185
        k(   92) = (  -0.1666667   0.5000000   0.3333333), wk =   0.0185185
        k(   93) = (  -0.1666667   0.3333333   0.1666667), wk =   0.0185185
        k(   94) = (  -0.1666667   0.3333333   0.3333333), wk =   0.0185185
        k(   95) = (  -0.1666667   0.1666667   0.1666667), wk =   0.0185185
        k(   96) = (  -0.1666667   0.1666667   0.3333333), wk =   0.0185185
        k(   97) = (  -0.3333333   0.0000000   0.1666667), wk =   0.0185185
        k(   98) = (  -0.3333333   0.0000000   0.3333333), wk =   0.0185185
        k(   99) = (  -0.3333333  -0.1666667   0.1666667), wk =   0.0185185
        k(  100) = (  -0.3333333  -0.1666667   0.3333333), wk =   0.0185185
        k(  101) = (  -0.3333333  -0.3333333   0.1666667), wk =   0.0185185
        k(  102) = (  -0.3333333  -0.3333333   0.3333333), wk =   0.0185185
        k(  103) = (  -0.3333333   0.5000000   0.1666667), wk =   0.0185185
        k(  104) = (  -0.3333333   0.5000000   0.3333333), wk =   0.0185185
        k(  105) = (  -0.3333333   0.3333333   0.1666667), wk =   0.0185185
        k(  106) = (  -0.3333333   0.3333333   0.3333333), wk =   0.0185185
        k(  107) = (  -0.3333333   0.1666667   0.1666667), wk =   0.0185185
        k(  108) = (  -0.3333333   0.1666667   0.3333333), wk =   0.0185185
        k(  109) = (   0.5000000  -0.1666667   0.1666667), wk =   0.0185185
        k(  110) = (   0.5000000  -0.1666667   0.3333333), wk =   0.0185185
        k(  111) = (   0.5000000  -0.3333333   0.1666667), wk =   0.0185185
        k(  112) = (   0.5000000  -0.3333333   0.3333333), wk =   0.0185185

     Dense  grid:   224783 G-vectors     FFT dimensions: ( 120,  75,  64)

     Smooth grid:    79439 G-vectors     FFT dimensions: (  80,  54,  45)

     Dynamical RAM for                 wfc:       4.09 MB

     Dynamical RAM for     wfc (w. buffer):      32.75 MB

     Dynamical RAM for           str. fact:       1.71 MB

     Dynamical RAM for           local pot:       0.00 MB

     Dynamical RAM for          nlocal pot:      11.83 MB

     Dynamical RAM for                qrad:       3.21 MB

     Dynamical RAM for          rho,v,vnew:       5.87 MB

     Dynamical RAM for               rhoin:       1.96 MB

     Dynamical RAM for            rho*nmix:      13.72 MB

     Dynamical RAM for           G-vectors:       3.37 MB

     Dynamical RAM for          h,s,v(r/c):       0.53 MB

     Dynamical RAM for          <psi|beta>:       0.51 MB

     Dynamical RAM for                 psi:       8.19 MB

     Dynamical RAM for                hpsi:       8.19 MB

     Dynamical RAM for                spsi:       8.19 MB

     Dynamical RAM for      wfcinit/wfcrot:      12.38 MB

     Dynamical RAM for           addusdens:      11.41 MB

     Dynamical RAM for          addusforce:      12.27 MB

     Estimated static dynamical RAM per process >      68.76 MB

     Estimated max dynamical RAM per process >     108.09 MB

     Estimated total dynamical RAM >       5.95 GB

     Check: negative core charge=   -0.000002

     Initial potential from superposition of free atoms

     starting charge     215.9553, renormalised to     216.0000
     Starting wfcs are  156 randomized atomic wfcs

     total cpu time spent up to now is       21.9 secs

     per-process dynamical memory:    91.7 Mb

     Self-consistent Calculation

     iteration #  1     ecut=    50.00 Ry     beta= 0.30
     Davidson diagonalization with overlap

---- Real-time Memory Report at c_bands before calling an iterative solver
           119 MiB given to the printing process from OS
            89 MiB allocation reported by mallinfo(arena+hblkhd)
        101701 MiB available memory on the node where the printing process lives
------------------
     ethr =  1.00E-02,  avg # of iterations =  2.0

     total cpu time spent up to now is       47.6 secs

     total energy              =   -2168.56080518 Ry
     estimated scf accuracy    <       4.05585726 Ry

     iteration #  2     ecut=    50.00 Ry     beta= 0.30
     Davidson diagonalization with overlap

---- Real-time Memory Report at c_bands before calling an iterative solver
           139 MiB given to the printing process from OS
            95 MiB allocation reported by mallinfo(arena+hblkhd)
        101019 MiB available memory on the node where the printing process lives
------------------
     ethr =  1.88E-03,  avg # of iterations =  2.0

     total cpu time spent up to now is       77.2 secs

     total energy              =   -2168.88905266 Ry
     estimated scf accuracy    <       0.73844188 Ry

     iteration #  3     ecut=    50.00 Ry     beta= 0.30
     Davidson diagonalization with overlap

---- Real-time Memory Report at c_bands before calling an iterative solver
           141 MiB given to the printing process from OS
            96 MiB allocation reported by mallinfo(arena+hblkhd)
        100976 MiB available memory on the node where the printing process lives
------------------
     ethr =  3.42E-04,  avg # of iterations =  7.0

     total cpu time spent up to now is      129.9 secs

     total energy              =   -2169.28881134 Ry
     estimated scf accuracy    <       0.52071219 Ry

     iteration #  4     ecut=    50.00 Ry     beta= 0.30
     Davidson diagonalization with overlap

---- Real-time Memory Report at c_bands before calling an iterative solver
           142 MiB given to the printing process from OS
            96 MiB allocation reported by mallinfo(arena+hblkhd)
        100944 MiB available memory on the node where the printing process lives
------------------
     ethr =  2.41E-04,  avg # of iterations =  2.0

     total cpu time spent up to now is      155.8 secs

     total energy              =   -2169.36432665 Ry
     estimated scf accuracy    <       0.08794273 Ry

     iteration #  5     ecut=    50.00 Ry     beta= 0.30
     Davidson diagonalization with overlap

---- Real-time Memory Report at c_bands before calling an iterative solver
           143 MiB given to the printing process from OS
            97 MiB allocation reported by mallinfo(arena+hblkhd)
        101015 MiB available memory on the node where the printing process lives
------------------
     ethr =  4.07E-05,  avg # of iterations = 11.9

     total cpu time spent up to now is      238.9 secs

     total energy              =   -2169.82319696 Ry
     estimated scf accuracy    <       3.00243785 Ry

     iteration #  6     ecut=    50.00 Ry     beta= 0.30
     Davidson diagonalization with overlap

---- Real-time Memory Report at c_bands before calling an iterative solver
           144 MiB given to the printing process from OS
            97 MiB allocation reported by mallinfo(arena+hblkhd)
        100937 MiB available memory on the node where the printing process lives
------------------
     ethr =  4.07E-05,  avg # of iterations =  5.7

     total cpu time spent up to now is      280.4 secs

     total energy              =   -2169.14787679 Ry
     estimated scf accuracy    <       1.79556356 Ry

     iteration #  7     ecut=    50.00 Ry     beta= 0.30
     Davidson diagonalization with overlap

---- Real-time Memory Report at c_bands before calling an iterative solver
           144 MiB given to the printing process from OS
            98 MiB allocation reported by mallinfo(arena+hblkhd)
        100934 MiB available memory on the node where the printing process lives
------------------
     ethr =  4.07E-05,  avg # of iterations =  9.2

     total cpu time spent up to now is      348.9 secs

     total energy              =   -2169.37181176 Ry
     estimated scf accuracy    <       0.04560355 Ry

     iteration #  8     ecut=    50.00 Ry     beta= 0.30
     Davidson diagonalization with overlap

---- Real-time Memory Report at c_bands before calling an iterative solver
           145 MiB given to the printing process from OS
            99 MiB allocation reported by mallinfo(arena+hblkhd)
        100966 MiB available memory on the node where the printing process lives
------------------
[barbara][[62315,1],23][../../../../../../opal/mca/btl/tcp/btl_tcp.c:559:mca_btl_tcp_recv_blocking] recv(18) failed: Connection reset by peer (104)
     ethr =  2.11E-05,  avg # of iterations =  8.3

     total cpu time spent up to now is      422.6 secs

     total energy              =   -2169.40596443 Ry
     estimated scf accuracy    <       0.04574691 Ry

     iteration #  9     ecut=    50.00 Ry     beta= 0.30
     Davidson diagonalization with overlap

---- Real-time Memory Report at c_bands before calling an iterative solver
           145 MiB given to the printing process from OS
            99 MiB allocation reported by mallinfo(arena+hblkhd)
        101005 MiB available memory on the node where the printing process lives
------------------
     ethr =  2.11E-05,  avg # of iterations =  1.1

     total cpu time spent up to now is      445.6 secs

     total energy              =   -2169.38798652 Ry
     estimated scf accuracy    <       0.03608980 Ry

     iteration # 10     ecut=    50.00 Ry     beta= 0.30
     Davidson diagonalization with overlap

---- Real-time Memory Report at c_bands before calling an iterative solver
           146 MiB given to the printing process from OS
           100 MiB allocation reported by mallinfo(arena+hblkhd)
        101026 MiB available memory on the node where the printing process lives
------------------
     ethr =  1.67E-05,  avg # of iterations =  2.2

     total cpu time spent up to now is      473.9 secs

     total energy              =   -2169.39249823 Ry
     estimated scf accuracy    <       0.00457636 Ry

     iteration # 11     ecut=    50.00 Ry     beta= 0.30
     Davidson diagonalization with overlap

---- Real-time Memory Report at c_bands before calling an iterative solver
           146 MiB given to the printing process from OS
           100 MiB allocation reported by mallinfo(arena+hblkhd)
        101019 MiB available memory on the node where the printing process lives
------------------
     ethr =  2.12E-06,  avg # of iterations =  6.8

     total cpu time spent up to now is      526.6 secs

     total energy              =   -2169.39731281 Ry
     estimated scf accuracy    <       0.00051383 Ry

     iteration # 12     ecut=    50.00 Ry     beta= 0.30
     Davidson diagonalization with overlap

---- Real-time Memory Report at c_bands before calling an iterative solver
           146 MiB given to the printing process from OS
           100 MiB allocation reported by mallinfo(arena+hblkhd)
        100990 MiB available memory on the node where the printing process lives
------------------
     ethr =  2.38E-07,  avg # of iterations =  4.9

     total cpu time spent up to now is      558.7 secs

     total energy              =   -2169.39726512 Ry
     estimated scf accuracy    <       0.00044031 Ry

     iteration # 13     ecut=    50.00 Ry     beta= 0.30
     Davidson diagonalization with overlap

---- Real-time Memory Report at c_bands before calling an iterative solver
           146 MiB given to the printing process from OS
           100 MiB allocation reported by mallinfo(arena+hblkhd)
        101027 MiB available memory on the node where the printing process lives
------------------
     ethr =  2.04E-07,  avg # of iterations =  1.8

     total cpu time spent up to now is      583.4 secs

     total energy              =   -2169.39722562 Ry
     estimated scf accuracy    <       0.00021439 Ry

     iteration # 14     ecut=    50.00 Ry     beta= 0.30
     Davidson diagonalization with overlap

---- Real-time Memory Report at c_bands before calling an iterative solver
           146 MiB given to the printing process from OS
           100 MiB allocation reported by mallinfo(arena+hblkhd)
        100975 MiB available memory on the node where the printing process lives
------------------
     ethr =  9.93E-08,  avg # of iterations =  2.2

     total cpu time spent up to now is      613.2 secs

     total energy              =   -2169.39724752 Ry
     estimated scf accuracy    <       0.00004050 Ry

     iteration # 15     ecut=    50.00 Ry     beta= 0.30
     Davidson diagonalization with overlap

---- Real-time Memory Report at c_bands before calling an iterative solver
           147 MiB given to the printing process from OS
           100 MiB allocation reported by mallinfo(arena+hblkhd)
        100995 MiB available memory on the node where the printing process lives
------------------
     ethr =  1.88E-08,  avg # of iterations =  6.0

     total cpu time spent up to now is      659.3 secs

     total energy              =   -2169.39726802 Ry
     estimated scf accuracy    <       0.00000039 Ry

     iteration # 16     ecut=    50.00 Ry     beta= 0.30
     Davidson diagonalization with overlap

---- Real-time Memory Report at c_bands before calling an iterative solver
           147 MiB given to the printing process from OS
           100 MiB allocation reported by mallinfo(arena+hblkhd)
        100956 MiB available memory on the node where the printing process lives
------------------
     ethr =  1.82E-10,  avg # of iterations = 10.8

     total cpu time spent up to now is      737.9 secs

     total energy              =   -2169.39726924 Ry
     estimated scf accuracy    <       0.00000007 Ry

     iteration # 17     ecut=    50.00 Ry     beta= 0.30
     Davidson diagonalization with overlap

---- Real-time Memory Report at c_bands before calling an iterative solver
           147 MiB given to the printing process from OS
           100 MiB allocation reported by mallinfo(arena+hblkhd)
        100945 MiB available memory on the node where the printing process lives
------------------
     ethr =  3.20E-11,  avg # of iterations =  6.1

     total cpu time spent up to now is      788.8 secs

     total energy              =   -2169.39726925 Ry
     estimated scf accuracy    <       0.00000006 Ry

     iteration # 18     ecut=    50.00 Ry     beta= 0.30
     Davidson diagonalization with overlap

---- Real-time Memory Report at c_bands before calling an iterative solver
           147 MiB given to the printing process from OS
           100 MiB allocation reported by mallinfo(arena+hblkhd)
        100968 MiB available memory on the node where the printing process lives
------------------
     ethr =  2.93E-11,  avg # of iterations =  5.1

     total cpu time spent up to now is      824.2 secs

     total energy              =   -2169.39726927 Ry
     estimated scf accuracy    <       0.00000001 Ry

     iteration # 19     ecut=    50.00 Ry     beta= 0.30
     Davidson diagonalization with overlap

---- Real-time Memory Report at c_bands before calling an iterative solver
           147 MiB given to the printing process from OS
           100 MiB allocation reported by mallinfo(arena+hblkhd)
        100965 MiB available memory on the node where the printing process lives
------------------
     ethr =  6.17E-12,  avg # of iterations =  8.6

     total cpu time spent up to now is      891.3 secs

     total energy              =   -2169.39726929 Ry
     estimated scf accuracy    <       0.00000011 Ry

     iteration # 20     ecut=    50.00 Ry     beta= 0.30
     Davidson diagonalization with overlap

---- Real-time Memory Report at c_bands before calling an iterative solver
           147 MiB given to the printing process from OS
           100 MiB allocation reported by mallinfo(arena+hblkhd)
        100925 MiB available memory on the node where the printing process lives
------------------
     ethr =  6.17E-12,  avg # of iterations =  1.2

     total cpu time spent up to now is      914.6 secs

     total energy              =   -2169.39726925 Ry
     estimated scf accuracy    <       0.00000009 Ry

     iteration # 21     ecut=    50.00 Ry     beta= 0.30
     Davidson diagonalization with overlap

---- Real-time Memory Report at c_bands before calling an iterative solver
           147 MiB given to the printing process from OS
           100 MiB allocation reported by mallinfo(arena+hblkhd)
        101032 MiB available memory on the node where the printing process lives
------------------
     ethr =  6.17E-12,  avg # of iterations =  9.2

     total cpu time spent up to now is      977.6 secs

     End of self-consistent calculation

          k = 0.0000 0.0000 0.0000 (  9879 PWs)   bands (ev):

    -9.7506  -9.0665  -9.0665  -8.9368  -8.7857  -8.7857  -8.7726  -8.6012
    -8.6012  -8.5295  -8.5251  -8.5251   2.4980   2.4981   2.5941   2.6298
     2.6584   2.7468   2.7468   2.9430   2.9430   2.9672   2.9672   3.0628
     3.0628   3.1414   3.2568   3.2568   3.3735   3.3735   3.4067   3.4067
     3.4408   3.6024   3.6024   3.7114   3.7114   3.7806   3.7806   3.7821
     3.7821   3.8797   3.9533   3.9855   3.9855   3.9953   3.9953   4.0035
     4.6128   4.6128   4.6951   4.6951   4.8292   4.8322   4.8322   4.8607
     4.8607   4.9250   4.9250   5.0579   5.0579   5.0650   5.0996   5.0996
     5.1434   5.1678   5.1678   5.2181   5.2181   5.2554   5.3223   5.3223
     5.4772   5.4912   5.5080   5.5080   5.5189   5.5189   5.6263   6.0446
     6.0446   6.1613   6.1613   6.4102   6.4102   6.4865   6.8464   6.8464
     7.2628   7.2962   7.2962   7.7600   7.7600   8.0205   8.0205   8.0671
     8.3364   8.3364   8.6056   8.6056   8.6480   8.9711   8.9711   9.0334
     9.0335   9.3978   9.8034   9.8034

     occupation numbers 
     1.0000   1.0000   1.0000   1.0000   1.0000   1.0000   1.0000   1.0000
     1.0000   1.0000   1.0000   1.0000   1.0000   1.0000   1.0000   1.0000
     1.0000   1.0000   1.0000   1.0000   1.0000   1.0000   1.0000   1.0000
     1.0000   1.0000   1.0000   1.0000   1.0000   1.0000   1.0000   1.0000
     1.0000   1.0000   1.0000   1.0000   1.0000   1.0000   1.0000   1.0000
     1.0000   1.0000   1.0000   1.0000   1.0000   1.0000   1.0000   1.0000
     1.0000   1.0000   1.0000   1.0000   1.0000   1.0000   1.0000   1.0000
     1.0000   1.0000   1.0000   1.0000   1.0000   1.0000   1.0000   1.0000
     1.0000   1.0000   1.0000   1.0000   1.0000   1.0000   1.0000   1.0000
     1.0000   1.0000   1.0000   1.0000   1.0000   1.0000   1.0000   1.0000
     1.0000   1.0000   1.0000   1.0000   1.0000   1.0000   1.0000   1.0000
     1.0000   1.0000   1.0000   1.0000   1.0000   1.0000   1.0000   1.0000
     1.0000   1.0000   1.0000   1.0000   1.0000   1.0000   1.0000   1.0000
     1.0000   1.0000   1.0000   1.0000

          k = 0.0000 0.0000 0.2868 (  9902 PWs)   bands (ev):

    -9.7001  -9.0352  -9.0352  -8.9958  -8.7667  -8.7667  -8.7547  -8.6320
    -8.6319  -8.5439  -8.5408  -8.5408   2.4741   2.4741   2.5779   2.5913
     2.5932   2.7109   2.7109   2.8213   2.8213   2.8902   2.8902   3.0719
     3.0719   3.0773   3.2393   3.2393   3.3960   3.3960   3.3981   3.3981
     3.4710   3.5882   3.5882   3.6648   3.6648   3.7368   3.7368   3.7488
     3.7488   3.8510   3.9284   3.9308   3.9308   3.9561   3.9599   3.9599
     4.6724   4.6724   4.7342   4.7342   4.8503   4.8503   4.9033   4.9354
     4.9354   4.9530   4.9530   5.0465   5.0465   5.0679   5.0855   5.0855
     5.1330   5.1644   5.1644   5.2007   5.2007   5.2502   5.4116   5.4116
     5.4475   5.4475   5.4920   5.5933   5.7040   5.7483   5.7483   6.1008
     6.1008   6.2531   6.2531   6.5171   6.5171   6.7186   6.9616   6.9616
     7.2399   7.2399   7.3676   7.8469   7.8469   8.0007   8.0007   8.1049
     8.2927   8.2927   8.5616   8.5660   8.5660   8.8417   8.8933   8.8933
     9.0848   9.0848   9.7518   9.7518

     occupation numbers 
     1.0000   1.0000   1.0000   1.0000   1.0000   1.0000   1.0000   1.0000
     1.0000   1.0000   1.0000   1.0000   1.0000   1.0000   1.0000   1.0000
     1.0000   1.0000   1.0000   1.0000   1.0000   1.0000   1.0000   1.0000
     1.0000   1.0000   1.0000   1.0000   1.0000   1.0000   1.0000   1.0000
     1.0000   1.0000   1.0000   1.0000   1.0000   1.0000   1.0000   1.0000
     1.0000   1.0000   1.0000   1.0000   1.0000   1.0000   1.0000   1.0000
     1.0000   1.0000   1.0000   1.0000   1.0000   1.0000   1.0000   1.0000
     1.0000   1.0000   1.0000   1.0000   1.0000   1.0000   1.0000   1.0000
     1.0000   1.0000   1.0000   1.0000   1.0000   1.0000   1.0000   1.0000
     1.0000   1.0000   1.0000   1.0000   1.0000   1.0000   1.0000   1.0000
     1.0000   1.0000   1.0000   1.0000   1.0000   1.0000   1.0000   1.0000
     1.0000   1.0000   1.0000   1.0000   1.0000   1.0000   1.0000   1.0000
     1.0000   1.0000   1.0000   1.0000   1.0000   1.0000   1.0000   1.0000
     1.0000   1.0000   1.0000   1.0000

          k = 0.0000 0.0000 0.5736 (  9934 PWs)   bands (ev):

    -9.5593  -9.1532  -8.9496  -8.9495  -8.7165  -8.7165  -8.7157  -8.7157
    -8.7067  -8.5851  -8.5850  -8.5848   2.4364   2.4364   2.4695   2.4734
     2.6023   2.6023   2.6299   2.6406   2.6406   2.7298   2.7298   2.9199
     3.0999   3.0999   3.1962   3.1962   3.4150   3.4150   3.4605   3.4605
     3.5577   3.5752   3.5752   3.5792   3.5792   3.6630   3.6630   3.6637
     3.6637   3.8230   3.8351   3.8727   3.8727   3.8771   3.8951   3.8951
     4.8057   4.8057   4.8546   4.8546   4.8986   4.8986   4.9640   4.9640
     5.0066   5.0066   5.0118   5.0118   5.0369   5.0495   5.0495   5.0761
     5.1008   5.1008   5.1107   5.1694   5.1694   5.2199   5.3178   5.3178
     5.4978   5.5458   5.6305   5.6305   6.0290   6.0290   6.1721   6.1721
     6.2987   6.4721   6.4721   6.8923   6.8923   7.2520   7.2771   7.2771
     7.2797   7.2797   7.6398   7.8438   7.8438   7.9749   8.0781   8.0781
     8.0831   8.1969   8.1969   8.3199   8.3200   8.3231   8.6794   8.6794
     9.2255   9.2255   9.6107   9.6108

     occupation numbers 
     1.0000   1.0000   1.0000   1.0000   1.0000   1.0000   1.0000   1.0000
     1.0000   1.0000   1.0000   1.0000   1.0000   1.0000   1.0000   1.0000
     1.0000   1.0000   1.0000   1.0000   1.0000   1.0000   1.0000   1.0000
     1.0000   1.0000   1.0000   1.0000   1.0000   1.0000   1.0000   1.0000
     1.0000   1.0000   1.0000   1.0000   1.0000   1.0000   1.0000   1.0000
     1.0000   1.0000   1.0000   1.0000   1.0000   1.0000   1.0000   1.0000
     1.0000   1.0000   1.0000   1.0000   1.0000   1.0000   1.0000   1.0000
     1.0000   1.0000   1.0000   1.0000   1.0000   1.0000   1.0000   1.0000
     1.0000   1.0000   1.0000   1.0000   1.0000   1.0000   1.0000   1.0000
     1.0000   1.0000   1.0000   1.0000   1.0000   1.0000   1.0000   1.0000
     1.0000   1.0000   1.0000   1.0000   1.0000   1.0000   1.0000   1.0000
     1.0000   1.0000   1.0000   1.0000   1.0000   1.0000   1.0000   1.0000
     1.0000   1.0000   1.0000   1.0000   1.0000   1.0000   1.0000   1.0000
     1.0000   1.0000   1.0000   1.0000

          k = 0.0000 0.0000-0.8603 (  9942 PWs)   bands (ev):

    -9.3604  -9.3604  -8.8328  -8.8328  -8.8328  -8.8328  -8.6487  -8.6487
    -8.6487  -8.6487  -8.6440  -8.6440   2.4175   2.4175   2.4617   2.4617
     2.4618   2.4618   2.6282   2.6282   2.6282   2.6282   2.7466   2.7466
     3.1442   3.1442   3.1442   3.1442   3.4836   3.4836   3.4836   3.4836
     3.5564   3.5564   3.5564   3.5564   3.6052   3.6052   3.6052   3.6052
     3.6880   3.6880   3.8347   3.8347   3.8596   3.8596   3.8596   3.8596
     4.9591   4.9591   4.9591   4.9591   4.9591   4.9591   4.9591   4.9591
     4.9688   4.9688   4.9688   4.9688   5.0048   5.0048   5.0048   5.0048
     5.0904   5.0904   5.1486   5.1486   5.2129   5.2129   5.2129   5.2129
     5.5145   5.5145   5.8514   5.8514   5.8514   5.8514   6.4300   6.4300
     6.4300   6.4300   7.0994   7.0994   7.2844   7.2844   7.2844   7.2844
     7.7853   7.7853   7.7854   7.7854   7.7903   7.7903   7.9390   7.9390
     7.9390   7.9390   7.9893   7.9893   8.3828   8.3829   8.3829   8.3829
     9.4180   9.4180   9.4180   9.4181

     occupation numbers 
     1.0000   1.0000   1.0000   1.0000   1.0000   1.0000   1.0000   1.0000
     1.0000   1.0000   1.0000   1.0000   1.0000   1.0000   1.0000   1.0000
     1.0000   1.0000   1.0000   1.0000   1.0000   1.0000   1.0000   1.0000
     1.0000   1.0000   1.0000   1.0000   1.0000   1.0000   1.0000   1.0000
     1.0000   1.0000   1.0000   1.0000   1.0000   1.0000   1.0000   1.0000
     1.0000   1.0000   1.0000   1.0000   1.0000   1.0000   1.0000   1.0000
     1.0000   1.0000   1.0000   1.0000   1.0000   1.0000   1.0000   1.0000
     1.0000   1.0000   1.0000   1.0000   1.0000   1.0000   1.0000   1.0000
     1.0000   1.0000   1.0000   1.0000   1.0000   1.0000   1.0000   1.0000
     1.0000   1.0000   1.0000   1.0000   1.0000   1.0000   1.0000   1.0000
     1.0000   1.0000   1.0000   1.0000   1.0000   1.0000   1.0000   1.0000
     1.0000   1.0000   1.0000   1.0000   1.0000   1.0000   1.0000   1.0000
     1.0000   1.0000   1.0000   1.0000   1.0000   1.0000   1.0000   1.0000
     1.0000   1.0000   1.0000   1.0000

          k = 0.0000 0.2887 0.0000 (  9939 PWs)   bands (ev):

    -9.6954  -9.1614  -8.9317  -8.9317  -8.9053  -8.8602  -8.6572  -8.6377
    -8.5571  -8.5571  -8.5413  -8.5241   2.5155   2.5499   2.5500   2.5813
     2.6715   2.8083   2.8894   2.9151   2.9151   2.9977   3.0009   3.0941
     3.1710   3.2259   3.2397   3.2899   3.2972   3.3793   3.3793   3.4251
     3.4845   3.5118   3.6206   3.6698   3.6919   3.6919   3.7316   3.7929
     3.8845   3.8845   3.9032   3.9032   3.9416   3.9420   4.0804   4.1428
     4.6148   4.6642   4.6642   4.7048   4.7608   4.7729   4.8033   4.8270
     4.8734   4.9321   4.9321   5.0187   5.0203   5.0607   5.0745   5.0835
     5.0892   5.1227   5.1227   5.1283   5.2497   5.2634   5.2661   5.2661
     5.4572   5.4613   5.4623   5.5781   5.5781   5.6883   5.7339   5.8508
     5.8970   5.8970   6.0989   6.5744   6.7267   6.9462   6.9462   6.9511
     7.3241   7.3241   7.4041   7.5098   7.6142   7.8012   7.9158   8.2390
     8.3853   8.3853   8.7137   8.7137   8.7272   8.7380   8.7835   8.9237
     8.9941   9.2672   9.4154   9.7350

     occupation numbers 
     1.0000   1.0000   1.0000   1.0000   1.0000   1.0000   1.0000   1.0000
     1.0000   1.0000   1.0000   1.0000   1.0000   1.0000   1.0000   1.0000
     1.0000   1.0000   1.0000   1.0000   1.0000   1.0000   1.0000   1.0000
     1.0000   1.0000   1.0000   1.0000   1.0000   1.0000   1.0000   1.0000
     1.0000   1.0000   1.0000   1.0000   1.0000   1.0000   1.0000   1.0000
     1.0000   1.0000   1.0000   1.0000   1.0000   1.0000   1.0000   1.0000
     1.0000   1.0000   1.0000   1.0000   1.0000   1.0000   1.0000   1.0000
     1.0000   1.0000   1.0000   1.0000   1.0000   1.0000   1.0000   1.0000
     1.0000   1.0000   1.0000   1.0000   1.0000   1.0000   1.0000   1.0000
     1.0000   1.0000   1.0000   1.0000   1.0000   1.0000   1.0000   1.0000
     1.0000   1.0000   1.0000   1.0000   1.0000   1.0000   1.0000   1.0000
     1.0000   1.0000   1.0000   1.0000   1.0000   1.0000   1.0000   1.0000
     1.0000   1.0000   1.0000   1.0000   1.0000   1.0000   1.0000   1.0000
     1.0000   1.0000   1.0000   1.0000

          k = 0.0000 0.2887 0.2868 (  9920 PWs)   bands (ev):

    -9.6460  -9.1267  -8.9622  -8.9057  -8.9057  -8.8375  -8.6730  -8.6462
    -8.5810  -8.5810  -8.5612  -8.5309   2.4812   2.5206   2.5206   2.5551
     2.6497   2.7161   2.8116   2.8116   2.8673   2.8897   2.9714   3.1039
     3.1328   3.1491   3.2319   3.2795   3.3119   3.4002   3.4002   3.4190
     3.4531   3.4877   3.5867   3.6064   3.6662   3.6662   3.7059   3.7681
     3.8282   3.8282   3.8677   3.8677   3.8985   3.9005   4.0570   4.0939
     4.6706   4.7117   4.7117   4.7334   4.8036   4.8256   4.8454   4.8802
     4.8967   4.9718   4.9718   5.0236   5.0483   5.0627   5.0747   5.0950
     5.1117   5.1117   5.1166   5.1363   5.2033   5.2572   5.2611   5.2611
     5.4970   5.6526   5.6745   5.6745   5.7028   5.7593   5.8583   5.9161
     6.0503   6.0503   6.0988   6.6536   6.8115   6.9369   6.9369   7.0822
     7.4262   7.4262   7.4452   7.5032   7.5791   7.8668   7.9404   8.2563
     8.3773   8.3773   8.6305   8.6305   8.6538   8.7154   8.7179   8.8285
     8.9154   8.9781   9.4810   9.6808

     occupation numbers 
     1.0000   1.0000   1.0000   1.0000   1.0000   1.0000   1.0000   1.0000
     1.0000   1.0000   1.0000   1.0000   1.0000   1.0000   1.0000   1.0000
     1.0000   1.0000   1.0000   1.0000   1.0000   1.0000   1.0000   1.0000
     1.0000   1.0000   1.0000   1.0000   1.0000   1.0000   1.0000   1.0000
     1.0000   1.0000   1.0000   1.0000   1.0000   1.0000   1.0000   1.0000
     1.0000   1.0000   1.0000   1.0000   1.0000   1.0000   1.0000   1.0000
     1.0000   1.0000   1.0000   1.0000   1.0000   1.0000   1.0000   1.0000
     1.0000   1.0000   1.0000   1.0000   1.0000   1.0000   1.0000   1.0000
     1.0000   1.0000   1.0000   1.0000   1.0000   1.0000   1.0000   1.0000
     1.0000   1.0000   1.0000   1.0000   1.0000   1.0000   1.0000   1.0000
     1.0000   1.0000   1.0000   1.0000   1.0000   1.0000   1.0000   1.0000
     1.0000   1.0000   1.0000   1.0000   1.0000   1.0000   1.0000   1.0000
     1.0000   1.0000   1.0000   1.0000   1.0000   1.0000   1.0000   1.0000
     1.0000   1.0000   1.0000   1.0000

          k = 0.0000 0.2887 0.5736 (  9942 PWs)   bands (ev):

    -9.5089  -9.1145  -9.0315  -8.8353  -8.8353  -8.7765  -8.7693  -8.6475
    -8.6475  -8.6176  -8.6167  -8.5509   2.4216   2.4712   2.4712   2.5097
     2.5391   2.6137   2.6137   2.6457   2.6498   2.8610   2.8722   2.9636
     3.1334   3.1400   3.2047   3.2343   3.3157   3.3600   3.4524   3.4531
     3.4626   3.4626   3.5336   3.5812   3.6201   3.6201   3.6443   3.7461
     3.7502   3.7502   3.7887   3.7920   3.7920   3.8261   4.0294   4.0483
     4.8000   4.8118   4.8375   4.8375   4.8823   4.8942   4.8991   4.9115
     4.9386   5.0085   5.0085   5.0116   5.0170   5.0372   5.0383   5.0859
     5.0859   5.0900   5.0946   5.1590   5.1590   5.1632   5.2217   5.3974
     5.5347   5.6647   5.8458   5.9095   5.9095   5.9311   6.2283   6.2283
     6.3163   6.3316   6.3600   6.8373   7.1221   7.1717   7.1717   7.2114
     7.3766   7.6362   7.6772   7.6772   7.7629   7.9660   8.0105   8.0539
     8.1651   8.2276   8.2276   8.4049   8.4049   8.4223   8.4310   8.7016
     8.9404   9.1268   9.3545   9.5326

     occupation numbers 
     1.0000   1.0000   1.0000   1.0000   1.0000   1.0000   1.0000   1.0000
     1.0000   1.0000   1.0000   1.0000   1.0000   1.0000   1.0000   1.0000
     1.0000   1.0000   1.0000   1.0000   1.0000   1.0000   1.0000   1.0000
     1.0000   1.0000   1.0000   1.0000   1.0000   1.0000   1.0000   1.0000
     1.0000   1.0000   1.0000   1.0000   1.0000   1.0000   1.0000   1.0000
     1.0000   1.0000   1.0000   1.0000   1.0000   1.0000   1.0000   1.0000
     1.0000   1.0000   1.0000   1.0000   1.0000   1.0000   1.0000   1.0000
     1.0000   1.0000   1.0000   1.0000   1.0000   1.0000   1.0000   1.0000
     1.0000   1.0000   1.0000   1.0000   1.0000   1.0000   1.0000   1.0000
     1.0000   1.0000   1.0000   1.0000   1.0000   1.0000   1.0000   1.0000
     1.0000   1.0000   1.0000   1.0000   1.0000   1.0000   1.0000   1.0000
     1.0000   1.0000   1.0000   1.0000   1.0000   1.0000   1.0000   1.0000
     1.0000   1.0000   1.0000   1.0000   1.0000   1.0000   1.0000   1.0000
     1.0000   1.0000   1.0000   1.0000

          k = 0.0000 0.2887-0.8603 (  9946 PWs)   bands (ev):

    -9.3154  -9.3154  -8.9007  -8.9007  -8.7404  -8.7404  -8.7404  -8.7404
    -8.6953  -8.6953  -8.5822  -8.5821   2.4248   2.4248   2.4850   2.4850
     2.4850   2.4850   2.5220   2.5220   2.7235   2.7235   2.8667   2.8667
     3.1666   3.1666   3.1800   3.1800   3.3411   3.3411   3.4137   3.4137
     3.5501   3.5501   3.5502   3.5502   3.5888   3.5888   3.6537   3.6537
     3.7354   3.7354   3.7354   3.7354   3.7674   3.7674   4.0274   4.0274
     4.8686   4.8686   4.9493   4.9493   4.9529   4.9529   4.9561   4.9561
     4.9803   4.9803   4.9803   4.9803   4.9913   4.9913   5.0398   5.0398
     5.0614   5.0614   5.0690   5.0690   5.0690   5.0690   5.3790   5.3790
     5.6526   5.6526   5.8305   5.8305   6.1213   6.1213   6.1213   6.1213
     6.7339   6.7339   6.7665   6.7665   7.1194   7.1194   7.7073   7.7073
     7.7074   7.7074   7.7824   7.7824   7.7933   7.7933   7.9193   7.9193
     8.0991   8.0991   8.1019   8.1019   8.1019   8.1019   8.4190   8.4190
     9.1467   9.1467   9.3298   9.3298

     occupation numbers 
     1.0000   1.0000   1.0000   1.0000   1.0000   1.0000   1.0000   1.0000
     1.0000   1.0000   1.0000   1.0000   1.0000   1.0000   1.0000   1.0000
     1.0000   1.0000   1.0000   1.0000   1.0000   1.0000   1.0000   1.0000
     1.0000   1.0000   1.0000   1.0000   1.0000   1.0000   1.0000   1.0000
     1.0000   1.0000   1.0000   1.0000   1.0000   1.0000   1.0000   1.0000
     1.0000   1.0000   1.0000   1.0000   1.0000   1.0000   1.0000   1.0000
     1.0000   1.0000   1.0000   1.0000   1.0000   1.0000   1.0000   1.0000
     1.0000   1.0000   1.0000   1.0000   1.0000   1.0000   1.0000   1.0000
     1.0000   1.0000   1.0000   1.0000   1.0000   1.0000   1.0000   1.0000
     1.0000   1.0000   1.0000   1.0000   1.0000   1.0000   1.0000   1.0000
     1.0000   1.0000   1.0000   1.0000   1.0000   1.0000   1.0000   1.0000
     1.0000   1.0000   1.0000   1.0000   1.0000   1.0000   1.0000   1.0000
     1.0000   1.0000   1.0000   1.0000   1.0000   1.0000   1.0000   1.0000
     1.0000   1.0000   1.0000   1.0000

          k = 0.0000 0.5774 0.0000 (  9942 PWs)   bands (ev):

    -9.5397  -9.1955  -9.0665  -9.0665  -8.8196  -8.7857  -8.6517  -8.6012
    -8.6012  -8.5671  -8.5671  -8.5251   2.4981   2.4981   2.6814   2.7468
     2.7554   2.9136   2.9430   2.9430   2.9526   2.9672   2.9860   3.1578
     3.1781   3.3020   3.3262   3.3734   3.3734   3.3759   3.4067   3.4132
     3.4636   3.5781   3.5782   3.5865   3.6024   3.6024   3.7114   3.7182
     3.7806   3.7806   3.7821   3.7821   3.9855   3.9953   4.2346   4.2346
     4.6128   4.6128   4.6347   4.6396   4.6951   4.7284   4.7812   4.7812
     4.8204   4.8245   4.8456   4.8607   4.9250   4.9250   5.0676   5.0850
     5.0996   5.0996   5.1603   5.1678   5.2181   5.2181   5.2877   5.3223
     5.4155   5.4456   5.5080   5.5080   5.5189   5.7023   5.9265   5.9265
     6.0446   6.1613   6.1613   6.4102   6.8464   6.8910   7.2962   7.2962
     7.3580   7.4231   7.4231   7.4436   7.7600   7.7600   7.8661   7.9468
     8.0205   8.3364   8.6056   8.6056   8.6232   8.6471   8.8634   8.9338
     8.9711   8.9711   9.2268   9.5429

     occupation numbers 
     1.0000   1.0000   1.0000   1.0000   1.0000   1.0000   1.0000   1.0000
     1.0000   1.0000   1.0000   1.0000   1.0000   1.0000   1.0000   1.0000
     1.0000   1.0000   1.0000   1.0000   1.0000   1.0000   1.0000   1.0000
     1.0000   1.0000   1.0000   1.0000   1.0000   1.0000   1.0000   1.0000
     1.0000   1.0000   1.0000   1.0000   1.0000   1.0000   1.0000   1.0000
     1.0000   1.0000   1.0000   1.0000   1.0000   1.0000   1.0000   1.0000
     1.0000   1.0000   1.0000   1.0000   1.0000   1.0000   1.0000   1.0000
     1.0000   1.0000   1.0000   1.0000   1.0000   1.0000   1.0000   1.0000
     1.0000   1.0000   1.0000   1.0000   1.0000   1.0000   1.0000   1.0000
     1.0000   1.0000   1.0000   1.0000   1.0000   1.0000   1.0000   1.0000
     1.0000   1.0000   1.0000   1.0000   1.0000   1.0000   1.0000   1.0000
     1.0000   1.0000   1.0000   1.0000   1.0000   1.0000   1.0000   1.0000
     1.0000   1.0000   1.0000   1.0000   1.0000   1.0000   1.0000   1.0000
     1.0000   1.0000   1.0000   1.0000

          k = 0.0000 0.5774 0.2868 (  9926 PWs)   bands (ev):

    -9.4941  -9.1596  -9.0352  -9.0352  -8.8706  -8.7667  -8.6886  -8.6320
    -8.6320  -8.5648  -8.5648  -8.5408   2.4741   2.4741   2.6495   2.7109
     2.7136   2.8213   2.8213   2.8491   2.8751   2.8902   2.9392   3.1901
     3.2126   3.2932   3.3081   3.3632   3.3932   3.3960   3.3960   3.3981
     3.4069   3.4406   3.4406   3.5834   3.5882   3.5882   3.6648   3.6955
     3.7368   3.7368   3.7488   3.7488   3.9308   3.9599   4.1980   4.1980
     4.6594   4.6724   4.6724   4.6844   4.7342   4.7611   4.8114   4.8426
     4.8782   4.9354   4.9354   4.9530   4.9607   4.9607   5.0531   5.0705
     5.0855   5.0855   5.1075   5.1644   5.2007   5.2007   5.2101   5.4116
     5.4475   5.7033   5.7483   5.7483   5.7668   5.8173   5.8699   5.8699
     6.1008   6.2531   6.2531   6.5171   6.9616   6.9790   7.2399   7.2399
     7.3161   7.3391   7.5466   7.5466   7.8469   7.8469   7.8674   7.9903
     8.0007   8.2927   8.4636   8.5660   8.5660   8.6858   8.7855   8.8512
     8.8933   8.8933   9.1179   9.4820

     occupation numbers 
     1.0000   1.0000   1.0000   1.0000   1.0000   1.0000   1.0000   1.0000
     1.0000   1.0000   1.0000   1.0000   1.0000   1.0000   1.0000   1.0000
     1.0000   1.0000   1.0000   1.0000   1.0000   1.0000   1.0000   1.0000
     1.0000   1.0000   1.0000   1.0000   1.0000   1.0000   1.0000   1.0000
     1.0000   1.0000   1.0000   1.0000   1.0000   1.0000   1.0000   1.0000
     1.0000   1.0000   1.0000   1.0000   1.0000   1.0000   1.0000   1.0000
     1.0000   1.0000   1.0000   1.0000   1.0000   1.0000   1.0000   1.0000
     1.0000   1.0000   1.0000   1.0000   1.0000   1.0000   1.0000   1.0000
     1.0000   1.0000   1.0000   1.0000   1.0000   1.0000   1.0000   1.0000
     1.0000   1.0000   1.0000   1.0000   1.0000   1.0000   1.0000   1.0000
     1.0000   1.0000   1.0000   1.0000   1.0000   1.0000   1.0000   1.0000
     1.0000   1.0000   1.0000   1.0000   1.0000   1.0000   1.0000   1.0000
     1.0000   1.0000   1.0000   1.0000   1.0000   1.0000   1.0000   1.0000
     1.0000   1.0000   1.0000   1.0000

          k = 0.0000 0.5774 0.5736 (  9938 PWs)   bands (ev):

    -9.3677  -9.0612  -9.0079  -8.9496  -8.9496  -8.7891  -8.7165  -8.7165
    -8.7157  -8.5851  -8.5602  -8.5602   2.4364   2.4364   2.5856   2.6023
     2.6023   2.6406   2.6423   2.6636   2.7298   2.7385   3.0138   3.2167
     3.2167   3.2255   3.2388   3.2754   3.2791   3.3123   3.3422   3.3439
     3.4150   3.4605   3.4605   3.5750   3.5752   3.5792   3.5792   3.6406
     3.6630   3.6630   3.6637   3.6637   3.8727   3.8951   4.1683   4.1683
     4.7023   4.7856   4.8057   4.8057   4.8073   4.8424   4.8546   4.8909
     4.9286   4.9640   4.9640   5.0066   5.0125   5.0327   5.0328   5.0495
     5.0495   5.0983   5.1008   5.1008   5.1694   5.2579   5.2579   5.3178
     5.6305   5.7300   5.7300   6.0290   6.1265   6.1721   6.1721   6.3583
     6.3816   6.4721   6.4721   6.8923   6.9814   7.1888   7.2704   7.2771
     7.2771   7.2797   7.7932   7.7932   7.8237   7.8438   7.9748   8.0781
     8.0781   8.1969   8.2895   8.3199   8.3199   8.4869   8.6313   8.6794
     8.6794   8.8429   8.8559   9.3153

     occupation numbers 
     1.0000   1.0000   1.0000   1.0000   1.0000   1.0000   1.0000   1.0000
     1.0000   1.0000   1.0000   1.0000   1.0000   1.0000   1.0000   1.0000
     1.0000   1.0000   1.0000   1.0000   1.0000   1.0000   1.0000   1.0000
     1.0000   1.0000   1.0000   1.0000   1.0000   1.0000   1.0000   1.0000
     1.0000   1.0000   1.0000   1.0000   1.0000   1.0000   1.0000   1.0000
     1.0000   1.0000   1.0000   1.0000   1.0000   1.0000   1.0000   1.0000
     1.0000   1.0000   1.0000   1.0000   1.0000   1.0000   1.0000   1.0000
     1.0000   1.0000   1.0000   1.0000   1.0000   1.0000   1.0000   1.0000
     1.0000   1.0000   1.0000   1.0000   1.0000   1.0000   1.0000   1.0000
     1.0000   1.0000   1.0000   1.0000   1.0000   1.0000   1.0000   1.0000
     1.0000   1.0000   1.0000   1.0000   1.0000   1.0000   1.0000   1.0000
     1.0000   1.0000   1.0000   1.0000   1.0000   1.0000   1.0000   1.0000
     1.0000   1.0000   1.0000   1.0000   1.0000   1.0000   1.0000   1.0000
     1.0000   1.0000   1.0000   1.0000

          k = 0.0000 0.5774-0.8603 (  9972 PWs)   bands (ev):

    -9.1905  -9.1905  -8.9257  -8.9256  -8.8328  -8.8328  -8.8328  -8.8328
    -8.6487  -8.6487  -8.5579  -8.5579   2.4618   2.4618   2.4618   2.4618
     2.5680   2.5680   2.6282   2.6282   2.6470   2.6470   3.1213   3.1213
     3.1315   3.1315   3.2571   3.2571   3.2799   3.2799   3.3299   3.3299
     3.4836   3.4836   3.5564   3.5564   3.5564   3.5564   3.5901   3.5901
     3.6052   3.6052   3.6052   3.6052   3.8596   3.8596   4.1600   4.1600
     4.7471   4.7471   4.9412   4.9412   4.9520   4.9520   4.9536   4.9536
     4.9591   4.9591   4.9591   4.9591   4.9688   4.9688   4.9873   4.9873
     5.0048   5.0048   5.0048   5.0048   5.2129   5.2129   5.4673   5.4673
     5.5781   5.5781   5.8514   5.8514   6.4300   6.4300   6.4300   6.4300
     6.5475   6.5475   6.8817   6.8817   7.1399   7.1400   7.2844   7.2844
     7.7853   7.7854   7.7854   7.7854   7.7941   7.7941   7.9175   7.9175
     7.9390   7.9390   8.3639   8.3639   8.3828   8.3828   8.3828   8.3828
     8.5262   8.5262   9.0864   9.0864

     occupation numbers 
     1.0000   1.0000   1.0000   1.0000   1.0000   1.0000   1.0000   1.0000
     1.0000   1.0000   1.0000   1.0000   1.0000   1.0000   1.0000   1.0000
     1.0000   1.0000   1.0000   1.0000   1.0000   1.0000   1.0000   1.0000
     1.0000   1.0000   1.0000   1.0000   1.0000   1.0000   1.0000   1.0000
     1.0000   1.0000   1.0000   1.0000   1.0000   1.0000   1.0000   1.0000
     1.0000   1.0000   1.0000   1.0000   1.0000   1.0000   1.0000   1.0000
     1.0000   1.0000   1.0000   1.0000   1.0000   1.0000   1.0000   1.0000
     1.0000   1.0000   1.0000   1.0000   1.0000   1.0000   1.0000   1.0000
     1.0000   1.0000   1.0000   1.0000   1.0000   1.0000   1.0000   1.0000
     1.0000   1.0000   1.0000   1.0000   1.0000   1.0000   1.0000   1.0000
     1.0000   1.0000   1.0000   1.0000   1.0000   1.0000   1.0000   1.0000
     1.0000   1.0000   1.0000   1.0000   1.0000   1.0000   1.0000   1.0000
     1.0000   1.0000   1.0000   1.0000   1.0000   1.0000   1.0000   1.0000
     1.0000   1.0000   1.0000   1.0000

          k = 0.0000-0.8660 0.0000 (  9956 PWs)   bands (ev):

    -9.3139  -9.3139  -9.1614  -9.1614  -8.7058  -8.7057  -8.6572  -8.6572
    -8.6377  -8.6377  -8.5242  -8.5241   2.5813   2.5813   2.6027   2.6027
     2.8894   2.8894   2.9977   2.9977   3.0459   3.0459   3.2259   3.2259
     3.2840   3.2840   3.2899   3.2899   3.3316   3.3316   3.4826   3.4826
     3.4845   3.4845   3.5118   3.5118   3.5865   3.5865   3.6206   3.6206
     3.6698   3.6698   3.7316   3.7316   4.0804   4.0804   4.1428   4.1428
     4.6148   4.6148   4.6374   4.6374   4.7048   4.7048   4.7729   4.7729
     4.8520   4.8520   4.8734   4.8734   5.0203   5.0203   5.0745   5.0745
     5.0789   5.0789   5.0892   5.0892   5.2564   5.2564   5.2634   5.2634
     5.3772   5.3772   5.4572   5.4572   5.6883   5.6883   5.8508   5.8508
     6.0989   6.0989   6.5744   6.5744   6.9511   6.9511   7.0119   7.0119
     7.5098   7.5098   7.6142   7.6142   7.8012   7.8012   7.9158   7.9158
     7.9675   7.9675   8.2038   8.2038   8.7835   8.7835   8.9643   8.9643
     8.9941   8.9941   9.2668   9.2668

     occupation numbers 
     1.0000   1.0000   1.0000   1.0000   1.0000   1.0000   1.0000   1.0000
     1.0000   1.0000   1.0000   1.0000   1.0000   1.0000   1.0000   1.0000
     1.0000   1.0000   1.0000   1.0000   1.0000   1.0000   1.0000   1.0000
     1.0000   1.0000   1.0000   1.0000   1.0000   1.0000   1.0000   1.0000
     1.0000   1.0000   1.0000   1.0000   1.0000   1.0000   1.0000   1.0000
     1.0000   1.0000   1.0000   1.0000   1.0000   1.0000   1.0000   1.0000
     1.0000   1.0000   1.0000   1.0000   1.0000   1.0000   1.0000   1.0000
     1.0000   1.0000   1.0000   1.0000   1.0000   1.0000   1.0000   1.0000
     1.0000   1.0000   1.0000   1.0000   1.0000   1.0000   1.0000   1.0000
     1.0000   1.0000   1.0000   1.0000   1.0000   1.0000   1.0000   1.0000
     1.0000   1.0000   1.0000   1.0000   1.0000   1.0000   1.0000   1.0000
     1.0000   1.0000   1.0000   1.0000   1.0000   1.0000   1.0000   1.0000
     1.0000   1.0000   1.0000   1.0000   1.0000   1.0000   1.0000   1.0000
     1.0000   1.0000   1.0000   1.0000

          k = 0.0000-0.8660 0.2868 (  9950 PWs)   bands (ev):

    -9.2745  -9.2744  -9.1267  -9.1267  -8.7477  -8.7477  -8.6730  -8.6730
    -8.6462  -8.6462  -8.5309  -8.5309   2.5551   2.5551   2.5772   2.5772
     2.8673   2.8673   2.8850   2.8850   2.8897   2.8897   3.1328   3.1328
     3.3004   3.3004   3.3119   3.3119   3.3719   3.3719   3.4190   3.4190
     3.4748   3.4748   3.4877   3.4877   3.5616   3.5616   3.5867   3.5867
     3.6064   3.6064   3.7059   3.7059   4.0570   4.0570   4.0939   4.0939
     4.6706   4.6706   4.6871   4.6871   4.7334   4.7334   4.8673   4.8673
     4.8802   4.8802   4.8967   4.8967   5.0634   5.0634   5.0747   5.0747
     5.0950   5.0950   5.1363   5.1363   5.1633   5.1633   5.2033   5.2033
     5.6526   5.6526   5.7210   5.7210   5.7593   5.7593   5.9161   5.9161
     6.0988   6.0988   6.6536   6.6536   7.0764   7.0764   7.0822   7.0822
     7.4452   7.4452   7.5791   7.5791   7.8658   7.8659   7.8668   7.8668
     7.9404   7.9404   8.2778   8.2778   8.7154   8.7154   8.8596   8.8596
     8.9154   8.9154   9.1973   9.1973

     occupation numbers 
     1.0000   1.0000   1.0000   1.0000   1.0000   1.0000   1.0000   1.0000
     1.0000   1.0000   1.0000   1.0000   1.0000   1.0000   1.0000   1.0000
     1.0000   1.0000   1.0000   1.0000   1.0000   1.0000   1.0000   1.0000
     1.0000   1.0000   1.0000   1.0000   1.0000   1.0000   1.0000   1.0000
     1.0000   1.0000   1.0000   1.0000   1.0000   1.0000   1.0000   1.0000
     1.0000   1.0000   1.0000   1.0000   1.0000   1.0000   1.0000   1.0000
     1.0000   1.0000   1.0000   1.0000   1.0000   1.0000   1.0000   1.0000
     1.0000   1.0000   1.0000   1.0000   1.0000   1.0000   1.0000   1.0000
     1.0000   1.0000   1.0000   1.0000   1.0000   1.0000   1.0000   1.0000
     1.0000   1.0000   1.0000   1.0000   1.0000   1.0000   1.0000   1.0000
     1.0000   1.0000   1.0000   1.0000   1.0000   1.0000   1.0000   1.0000
     1.0000   1.0000   1.0000   1.0000   1.0000   1.0000   1.0000   1.0000
     1.0000   1.0000   1.0000   1.0000   1.0000   1.0000   1.0000   1.0000
     1.0000   1.0000   1.0000   1.0000

          k = 0.0000-0.8660 0.5736 (  9938 PWs)   bands (ev):

    -9.1657  -9.1656  -9.0315  -9.0315  -8.8614  -8.8614  -8.7693  -8.7693
    -8.6177  -8.6176  -8.5509  -8.5509   2.5097   2.5097   2.5320   2.5320
     2.6498   2.6498   2.6643   2.6643   2.8722   2.8722   2.9635   2.9636
     3.3157   3.3157   3.3477   3.3477   3.3600   3.3600   3.3933   3.3933
     3.4501   3.4501   3.4524   3.4524   3.4531   3.4531   3.4977   3.4977
     3.5812   3.5812   3.6443   3.6443   4.0294   4.0294   4.0483   4.0483
     4.8000   4.8000   4.8022   4.8022   4.8118   4.8118   4.8991   4.8991
     4.9091   4.9091   4.9386   4.9386   5.0219   5.0219   5.0372   5.0372
     5.0608   5.0608   5.0946   5.0946   5.2217   5.2217   5.3974   5.3974
     5.5347   5.5347   5.8458   5.8458   6.3316   6.3316   6.3600   6.3600
     6.3778   6.3778   6.8373   6.8373   7.1221   7.1221   7.2008   7.2008
     7.3766   7.3766   7.6362   7.6362   7.7017   7.7017   8.0105   8.0105
     8.0539   8.0539   8.4310   8.4310   8.4771   8.4771   8.4925   8.4925
     8.7016   8.7016   9.0068   9.0068

     occupation numbers 
     1.0000   1.0000   1.0000   1.0000   1.0000   1.0000   1.0000   1.0000
     1.0000   1.0000   1.0000   1.0000   1.0000   1.0000   1.0000   1.0000
     1.0000   1.0000   1.0000   1.0000   1.0000   1.0000   1.0000   1.0000
     1.0000   1.0000   1.0000   1.0000   1.0000   1.0000   1.0000   1.0000
     1.0000   1.0000   1.0000   1.0000   1.0000   1.0000   1.0000   1.0000
     1.0000   1.0000   1.0000   1.0000   1.0000   1.0000   1.0000   1.0000
     1.0000   1.0000   1.0000   1.0000   1.0000   1.0000   1.0000   1.0000
     1.0000   1.0000   1.0000   1.0000   1.0000   1.0000   1.0000   1.0000
     1.0000   1.0000   1.0000   1.0000   1.0000   1.0000   1.0000   1.0000
     1.0000   1.0000   1.0000   1.0000   1.0000   1.0000   1.0000   1.0000
     1.0000   1.0000   1.0000   1.0000   1.0000   1.0000   1.0000   1.0000
     1.0000   1.0000   1.0000   1.0000   1.0000   1.0000   1.0000   1.0000
     1.0000   1.0000   1.0000   1.0000   1.0000   1.0000   1.0000   1.0000
     1.0000   1.0000   1.0000   1.0000

          k = 0.0000-0.8660-0.8603 (  9928 PWs)   bands (ev):

    -9.0148  -9.0148  -9.0148  -9.0148  -8.9007  -8.9007  -8.9007  -8.9007
    -8.5822  -8.5822  -8.5821  -8.5821   2.5220   2.5220   2.5220   2.5220
     2.5429   2.5429   2.5429   2.5429   2.8667   2.8667   2.8667   2.8667
     3.3411   3.3411   3.3411   3.3411   3.4137   3.4137   3.4137   3.4137
     3.4164   3.4164   3.4164   3.4164   3.4186   3.4186   3.4186   3.4186
     3.5888   3.5888   3.5888   3.5888   4.0274   4.0274   4.0274   4.0274
     4.8686   4.8686   4.8686   4.8686   4.9366   4.9366   4.9366   4.9366
     4.9493   4.9493   4.9493   4.9493   4.9656   4.9656   4.9656   4.9656
     4.9913   4.9913   4.9913   4.9913   5.3790   5.3790   5.3790   5.3790
     5.6525   5.6526   5.6526   5.6526   6.7339   6.7339   6.7339   6.7339
     6.7665   6.7665   6.7665   6.7665   6.9771   6.9771   6.9771   6.9771
     7.7933   7.7933   7.7933   7.7933   7.9193   7.9193   7.9193   7.9193
     7.9592   7.9592   7.9592   7.9592   8.4190   8.4190   8.4190   8.4190
     8.7440   8.7440   8.7440   8.7441

     occupation numbers 
     1.0000   1.0000   1.0000   1.0000   1.0000   1.0000   1.0000   1.0000
     1.0000   1.0000   1.0000   1.0000   1.0000   1.0000   1.0000   1.0000
     1.0000   1.0000   1.0000   1.0000   1.0000   1.0000   1.0000   1.0000
     1.0000   1.0000   1.0000   1.0000   1.0000   1.0000   1.0000   1.0000
     1.0000   1.0000   1.0000   1.0000   1.0000   1.0000   1.0000   1.0000
     1.0000   1.0000   1.0000   1.0000   1.0000   1.0000   1.0000   1.0000
     1.0000   1.0000   1.0000   1.0000   1.0000   1.0000   1.0000   1.0000
     1.0000   1.0000   1.0000   1.0000   1.0000   1.0000   1.0000   1.0000
     1.0000   1.0000   1.0000   1.0000   1.0000   1.0000   1.0000   1.0000
     1.0000   1.0000   1.0000   1.0000   1.0000   1.0000   1.0000   1.0000
     1.0000   1.0000   1.0000   1.0000   1.0000   1.0000   1.0000   1.0000
     1.0000   1.0000   1.0000   1.0000   1.0000   1.0000   1.0000   1.0000
     1.0000   1.0000   1.0000   1.0000   1.0000   1.0000   1.0000   1.0000
     1.0000   1.0000   1.0000   1.0000

          k = 0.1667 0.0962 0.0000 (  9909 PWs)   bands (ev):

    -9.7259  -9.2310  -8.9226  -8.9200  -8.7894  -8.7799  -8.7747  -8.6679
    -8.5550  -8.5288  -8.5270  -8.5239   2.4954   2.5567   2.6190   2.6295
     2.6586   2.7320   2.8574   2.8593   2.8598   2.9598   3.0148   3.0335
     3.0769   3.1557   3.2477   3.2748   3.3174   3.4092   3.4123   3.4315
     3.4369   3.4687   3.5718   3.6461   3.6516   3.7363   3.7846   3.8508
     3.8965   3.9158   3.9613   3.9670   3.9774   3.9957   4.0032   4.0048
     4.6147   4.6238   4.7026   4.7820   4.8190   4.8203   4.8296   4.8411
     4.8715   4.9175   4.9889   5.0147   5.0592   5.0693   5.0845   5.1188
     5.1508   5.1620   5.1696   5.2119   5.2558   5.2703   5.3015   5.3268
     5.4050   5.4701   5.4767   5.4788   5.5521   5.5668   5.6955   5.7810
     5.8471   6.2259   6.3862   6.4688   6.4870   6.6088   6.7091   6.8950
     7.0604   7.2097   7.5051   7.7397   8.0193   8.0491   8.0535   8.0654
     8.2136   8.3517   8.4805   8.6005   8.8034   8.8532   8.8950   8.9840
     9.1667   9.3608   9.5594   9.7728

     occupation numbers 
     1.0000   1.0000   1.0000   1.0000   1.0000   1.0000   1.0000   1.0000
     1.0000   1.0000   1.0000   1.0000   1.0000   1.0000   1.0000   1.0000
     1.0000   1.0000   1.0000   1.0000   1.0000   1.0000   1.0000   1.0000
     1.0000   1.0000   1.0000   1.0000   1.0000   1.0000   1.0000   1.0000
     1.0000   1.0000   1.0000   1.0000   1.0000   1.0000   1.0000   1.0000
     1.0000   1.0000   1.0000   1.0000   1.0000   1.0000   1.0000   1.0000
     1.0000   1.0000   1.0000   1.0000   1.0000   1.0000   1.0000   1.0000
     1.0000   1.0000   1.0000   1.0000   1.0000   1.0000   1.0000   1.0000
     1.0000   1.0000   1.0000   1.0000   1.0000   1.0000   1.0000   1.0000
     1.0000   1.0000   1.0000   1.0000   1.0000   1.0000   1.0000   1.0000
     1.0000   1.0000   1.0000   1.0000   1.0000   1.0000   1.0000   1.0000
     1.0000   1.0000   1.0000   1.0000   1.0000   1.0000   1.0000   1.0000
     1.0000   1.0000   1.0000   1.0000   1.0000   1.0000   1.0000   1.0000
     1.0000   1.0000   1.0000   1.0000

          k = 0.1667 0.0962 0.2868 (  9914 PWs)   bands (ev):

    -9.6759  -9.1941  -8.9806  -8.8946  -8.7701  -8.7614  -8.7566  -8.7062
    -8.5782  -8.5434  -8.5421  -8.5400   2.4660   2.5327   2.5712   2.6182
     2.6195   2.6592   2.7552   2.7776   2.8231   2.8700   2.9077   3.0120
     3.0864   3.1238   3.2348   3.2575   3.3356   3.4243   3.4388   3.4422
     3.4467   3.4580   3.5581   3.5601   3.6243   3.7143   3.7542   3.8229
     3.8566   3.8662   3.9133   3.9344   3.9422   3.9557   3.9564   3.9616
     4.6703   4.6841   4.7467   4.8189   4.8392   4.8479   4.8848   4.8853
     4.9444   4.9760   4.9955   5.0283   5.0473   5.0537   5.0692   5.1063
     5.1428   5.1573   5.1668   5.1785   5.2281   5.2739   5.3383   5.4161
     5.4386   5.4603   5.5168   5.6232   5.6899   5.7033   5.7334   5.8754
     5.9375   6.2863   6.4715   6.6337   6.7005   6.7149   6.7798   6.9156
     7.1722   7.3160   7.6005   7.6502   7.9872   8.0381   8.0837   8.1317
     8.2257   8.3532   8.4043   8.5147   8.7210   8.7683   8.8033   8.9533
     9.0368   9.0943   9.6130   9.7200

     occupation numbers 
     1.0000   1.0000   1.0000   1.0000   1.0000   1.0000   1.0000   1.0000
     1.0000   1.0000   1.0000   1.0000   1.0000   1.0000   1.0000   1.0000
     1.0000   1.0000   1.0000   1.0000   1.0000   1.0000   1.0000   1.0000
     1.0000   1.0000   1.0000   1.0000   1.0000   1.0000   1.0000   1.0000
     1.0000   1.0000   1.0000   1.0000   1.0000   1.0000   1.0000   1.0000
     1.0000   1.0000   1.0000   1.0000   1.0000   1.0000   1.0000   1.0000
     1.0000   1.0000   1.0000   1.0000   1.0000   1.0000   1.0000   1.0000
     1.0000   1.0000   1.0000   1.0000   1.0000   1.0000   1.0000   1.0000
     1.0000   1.0000   1.0000   1.0000   1.0000   1.0000   1.0000   1.0000
     1.0000   1.0000   1.0000   1.0000   1.0000   1.0000   1.0000   1.0000
     1.0000   1.0000   1.0000   1.0000   1.0000   1.0000   1.0000   1.0000
     1.0000   1.0000   1.0000   1.0000   1.0000   1.0000   1.0000   1.0000
     1.0000   1.0000   1.0000   1.0000   1.0000   1.0000   1.0000   1.0000
     1.0000   1.0000   1.0000   1.0000

          k = 0.1667 0.0962 0.5736 (  9948 PWs)   bands (ev):

    -9.5367  -9.1358  -9.0925  -8.8257  -8.8107  -8.7183  -8.7117  -8.7081
    -8.6428  -8.5852  -8.5849  -8.5848   2.4174   2.4792   2.4927   2.5218
     2.5416   2.5606   2.6190   2.6380   2.6438   2.7397   2.7910   2.8924
     3.1149   3.1183   3.1988   3.2132   3.3879   3.3883   3.4545   3.4680
     3.4816   3.5145   3.5204   3.5370   3.5541   3.6837   3.6959   3.7540
     3.7704   3.7833   3.8611   3.8691   3.8731   3.8817   3.8900   3.8965
     4.7955   4.8249   4.8634   4.8911   4.8965   4.9165   4.9232   4.9949
     5.0002   5.0117   5.0142   5.0143   5.0218   5.0288   5.0501   5.0727
     5.0765   5.1338   5.1379   5.1580   5.1739   5.2408   5.2816   5.3367
     5.4884   5.5344   5.6420   5.7268   5.8218   5.8266   6.1037   6.1899
     6.3067   6.3533   6.7528   6.9389   7.0769   7.0848   7.2037   7.2131
     7.4751   7.5290   7.5963   7.8022   7.8516   7.9417   7.9727   8.0453
[...]
     atom   14 type  1   force =    -0.00000331   -0.00000162    0.22728789
     atom   15 type  2   force =    -0.00000404   -0.00000160    0.18152038
     atom   16 type  2   force =     0.00000500    0.00000342    0.18152117
     atom   17 type  1   force =     0.00000328    0.00000141    0.22728971
     atom   18 type  1   force =    -0.00000474    0.00000040    0.22728892
     atom   19 type  2   force =    -0.00000342   -0.00000288    0.18152072
     atom   20 type  2   force =     0.00000521    0.00000172    0.18152101
     atom   21 type  1   force =     0.00000273    0.00000155    0.22728994
     atom   22 type  1   force =    -0.00000201   -0.00000370    0.22728922
     atom   23 type  2   force =    -0.00000385   -0.00000219    0.18152097
     atom   24 type  2   force =     0.00000343    0.00000395    0.18152095
     The ionic contribution  to forces
     atom    1 type  1   force =     0.00000001    0.00000002    1.85856280
     atom    2 type  1   force =     0.00000001    0.00000001    1.85856280
     atom    3 type  2   force =     0.00000000    0.00000001   -1.85856280
     atom    4 type  2   force =     0.00000000    0.00000001   -1.85856280
     atom    5 type  1   force =     0.00000000    0.00000000    1.85856280
     atom    6 type  1   force =     0.00000001   -0.00000001    1.85856280
     atom    7 type  2   force =    -0.00000000    0.00000000   -1.85856280
     atom    8 type  2   force =     0.00000001   -0.00000001   -1.85856280
     atom    9 type  1   force =    -0.00000001    0.00000001    1.85856280
     atom   10 type  1   force =     0.00000001    0.00000001    1.85856279
     atom   11 type  2   force =    -0.00000001    0.00000001   -1.85856280
     atom   12 type  2   force =     0.00000001   -0.00000000   -1.85856279
     atom   13 type  1   force =    -0.00000002    0.00000000    1.85856279
     atom   14 type  1   force =     0.00000002   -0.00000002    1.85856279
     atom   15 type  2   force =    -0.00000001    0.00000000   -1.85856279
     atom   16 type  2   force =     0.00000001   -0.00000001   -1.85856279
     atom   17 type  1   force =    -0.00000001    0.00000001    1.85856280
     atom   18 type  1   force =    -0.00000001    0.00000000    1.85856280
     atom   19 type  2   force =    -0.00000000    0.00000001   -1.85856280
     atom   20 type  2   force =    -0.00000000    0.00000000   -1.85856280
     atom   21 type  1   force =    -0.00000001   -0.00000001    1.85856279
     atom   22 type  1   force =    -0.00000001   -0.00000002    1.85856280
     atom   23 type  2   force =    -0.00000001   -0.00000000   -1.85856279
     atom   24 type  2   force =     0.00000000   -0.00000001   -1.85856280
     The local contribution  to forces
     atom    1 type  1   force =    -0.00000430    0.00000018   -2.01879710
     atom    2 type  1   force =    -0.00000073   -0.00000662   -2.01880576
     atom    3 type  2   force =     0.00000356    0.00000109    1.63005916
     atom    4 type  2   force =    -0.00000577   -0.00000253    1.63005920
     atom    5 type  1   force =     0.00000301   -0.00000056   -2.01880446
     atom    6 type  1   force =    -0.00000013    0.00000628   -2.01880539
     atom    7 type  2   force =     0.00000319    0.00000279    1.63005985
     atom    8 type  2   force =    -0.00000471   -0.00000396    1.63005959
     atom    9 type  1   force =     0.00000423   -0.00000639   -2.01880763
     atom   10 type  1   force =    -0.00000361   -0.00000176   -2.01880196
     atom   11 type  2   force =     0.00000532    0.00000246    1.63006006
     atom   12 type  2   force =    -0.00000334   -0.00000242    1.63005877
     atom   13 type  1   force =    -0.00000274    0.00000706   -2.01880657
     atom   14 type  1   force =     0.00000376    0.00000186   -2.01879666
     atom   15 type  2   force =     0.00000472    0.00000390    1.63005956
     atom   16 type  2   force =    -0.00000400   -0.00000246    1.63005864
     atom   17 type  1   force =    -0.00000497   -0.00000215   -2.01880198
     atom   18 type  1   force =     0.00000941   -0.00000367   -2.01880030
     atom   19 type  2   force =     0.00000418    0.00000311    1.63005883
     atom   20 type  2   force =    -0.00000447   -0.00000361    1.63005900
     atom   21 type  1   force =    -0.00000447   -0.00000318   -2.01880458
     atom   22 type  1   force =     0.00000079    0.00000936   -2.01880110
     atom   23 type  2   force =     0.00000553    0.00000330    1.63005966
     atom   24 type  2   force =    -0.00000487   -0.00000260    1.63005901
     The core correction contribution to forces
     atom    1 type  1   force =    -0.00000027   -0.00000019   -0.01879359
     atom    2 type  1   force =     0.00000034    0.00000037   -0.01879339
     atom    3 type  2   force =     0.00000008    0.00000004   -0.00127220
     atom    4 type  2   force =    -0.00000004   -0.00000003   -0.00127219
     atom    5 type  1   force =    -0.00000050   -0.00000025   -0.01879338
     atom    6 type  1   force =     0.00000028   -0.00000000   -0.01879340
     atom    7 type  2   force =     0.00000006    0.00000004   -0.00127219
     atom    8 type  2   force =    -0.00000005   -0.00000003   -0.00127219
     atom    9 type  1   force =    -0.00000037   -0.00000007   -0.01879338
     atom   10 type  1   force =     0.00000048    0.00000027   -0.01879338
     atom   11 type  2   force =     0.00000005    0.00000006   -0.00127219
     atom   12 type  2   force =    -0.00000006   -0.00000003   -0.00127219
     atom   13 type  1   force =    -0.00000030   -0.00000032   -0.01879337
     atom   14 type  1   force =     0.00000030    0.00000017   -0.01879361
     atom   15 type  2   force =     0.00000005    0.00000002   -0.00127219
     atom   16 type  2   force =    -0.00000006   -0.00000005   -0.00127220
     atom   17 type  1   force =    -0.00000024   -0.00000011   -0.01879356
     atom   18 type  1   force =     0.00000020    0.00000029   -0.01879350
     atom   19 type  2   force =     0.00000004    0.00000005   -0.00127219
     atom   20 type  2   force =    -0.00000007   -0.00000002   -0.00127220
     atom   21 type  1   force =    -0.00000021   -0.00000016   -0.01879338
     atom   22 type  1   force =     0.00000030   -0.00000000   -0.01879352
     atom   23 type  2   force =     0.00000005    0.00000002   -0.00127219
     atom   24 type  2   force =    -0.00000004   -0.00000006   -0.00127220
     The Hubbard contrib.    to forces
     atom    1 type  1   force =     0.00000000    0.00000000    0.00000000
     atom    2 type  1   force =     0.00000000    0.00000000    0.00000000
     atom    3 type  2   force =     0.00000000    0.00000000    0.00000000
     atom    4 type  2   force =     0.00000000    0.00000000    0.00000000
     atom    5 type  1   force =     0.00000000    0.00000000    0.00000000
     atom    6 type  1   force =     0.00000000    0.00000000    0.00000000
     atom    7 type  2   force =     0.00000000    0.00000000    0.00000000
     atom    8 type  2   force =     0.00000000    0.00000000    0.00000000
     atom    9 type  1   force =     0.00000000    0.00000000    0.00000000
     atom   10 type  1   force =     0.00000000    0.00000000    0.00000000
     atom   11 type  2   force =     0.00000000    0.00000000    0.00000000
     atom   12 type  2   force =     0.00000000    0.00000000    0.00000000
     atom   13 type  1   force =     0.00000000    0.00000000    0.00000000
     atom   14 type  1   force =     0.00000000    0.00000000    0.00000000
     atom   15 type  2   force =     0.00000000    0.00000000    0.00000000
     atom   16 type  2   force =     0.00000000    0.00000000    0.00000000
     atom   17 type  1   force =     0.00000000    0.00000000    0.00000000
     atom   18 type  1   force =     0.00000000    0.00000000    0.00000000
     atom   19 type  2   force =     0.00000000    0.00000000    0.00000000
     atom   20 type  2   force =     0.00000000    0.00000000    0.00000000
     atom   21 type  1   force =     0.00000000    0.00000000    0.00000000
     atom   22 type  1   force =     0.00000000    0.00000000    0.00000000
     atom   23 type  2   force =     0.00000000    0.00000000    0.00000000
     atom   24 type  2   force =     0.00000000    0.00000000    0.00000000
     The SCF correction term to forces
     atom    1 type  1   force =     0.00000324   -0.00000179   -0.00002099
     atom    2 type  1   force =     0.00000336    0.00000905   -0.00001172
     atom    3 type  2   force =     0.00000238    0.00000181    0.00000197
     atom    4 type  2   force =     0.00000262   -0.00000003    0.00000328
     atom    5 type  1   force =    -0.00000569   -0.00000046   -0.00001258
     atom    6 type  1   force =     0.00000209   -0.00000597   -0.00001140
     atom    7 type  2   force =     0.00000165    0.00000056    0.00000248
     atom    8 type  2   force =     0.00000070    0.00000249    0.00000269
     atom    9 type  1   force =    -0.00000688    0.00000665   -0.00000862
     atom   10 type  1   force =     0.00000613    0.00000349   -0.00001609
     atom   11 type  2   force =    -0.00000168    0.00000085    0.00000211
     atom   12 type  2   force =    -0.00000155   -0.00000050    0.00000349
     atom   13 type  1   force =     0.00000086   -0.00000979   -0.00000973
     atom   14 type  1   force =    -0.00000208   -0.00000126   -0.00002173
     atom   15 type  2   force =    -0.00000091   -0.00000237    0.00000274
     atom   16 type  2   force =    -0.00000095   -0.00000073    0.00000253
     atom   17 type  1   force =     0.00000424    0.00000116   -0.00001549
     atom   18 type  1   force =    -0.00000915    0.00000565   -0.00001773
     atom   19 type  2   force =    -0.00000072   -0.00000044    0.00000273
     atom   20 type  2   force =    -0.00000048    0.00000202    0.00000267
     atom   21 type  1   force =     0.00000301    0.00000305   -0.00001205
     atom   22 type  1   force =     0.00000129   -0.00000989   -0.00001656
     atom   23 type  2   force =    -0.00000155   -0.00000131    0.00000227
     atom   24 type  2   force =     0.00000144   -0.00000085    0.00000267

     Total force =     0.236361     Total SCF correction =     0.000060

     init_run     :     19.79s CPU     20.55s WALL (       1 calls)
     electrons    :    928.70s CPU    955.79s WALL (       1 calls)
     forces       :      9.19s CPU      9.27s WALL (       1 calls)

     Called by init_run:
     wfcinit      :     10.51s CPU     11.09s WALL (       1 calls)
     wfcinit:atom :      0.05s CPU      0.05s WALL (       7 calls)
     wfcinit:wfcr :     10.07s CPU     10.62s WALL (       7 calls)
     potinit      :      3.45s CPU      3.54s WALL (       1 calls)
     hinit0       :      4.85s CPU      4.88s WALL (       1 calls)

     Called by electrons:
     c_bands      :    846.77s CPU    869.90s WALL (      21 calls)
     sum_band     :     67.17s CPU     70.17s WALL (      21 calls)
     v_of_rho     :     10.04s CPU     10.65s WALL (      22 calls)
     v_h          :      0.47s CPU      0.52s WALL (      22 calls)
     v_xc         :      9.94s CPU     10.52s WALL (      23 calls)
     newd         :      3.46s CPU      3.74s WALL (      22 calls)
     mix_rho      :      0.51s CPU      0.54s WALL (      21 calls)

     Called by c_bands:
     init_us_2    :      4.77s CPU      4.82s WALL (     308 calls)
     init_us_2:cp :      4.76s CPU      4.82s WALL (     308 calls)
     cegterg      :    731.87s CPU    754.80s WALL (     147 calls)

     Called by sum_band:
     sum_band:wei :      0.04s CPU      0.04s WALL (      21 calls)
     sum_band:loo :     61.78s CPU     64.15s WALL (      21 calls)
     sum_band:buf :      0.44s CPU      0.44s WALL (     147 calls)
     sum_band:ini :      1.45s CPU      1.46s WALL (     147 calls)
     sum_band:cal :     15.18s CPU     15.29s WALL (     147 calls)
     sum_band:bec :      0.12s CPU      0.12s WALL (     147 calls)
     addusdens    :      2.33s CPU      2.74s WALL (      21 calls)
     addusd:skk   :      0.05s CPU      0.05s WALL (      42 calls)
     addusd:dgemm :      0.28s CPU      0.59s WALL (      42 calls)
     addusd:qvan2 :      1.52s CPU      1.53s WALL (      42 calls)

     Called by *egterg:
     cdiaghg      :     45.60s CPU     46.61s WALL (    1016 calls)
     cegterg:over :     65.27s CPU     65.47s WALL (     869 calls)
     cegterg:upda :     39.03s CPU     39.63s WALL (     869 calls)
     cegterg:last :     89.15s CPU     89.46s WALL (     541 calls)
     cdiaghg:chol :      2.78s CPU      2.79s WALL (    1016 calls)
     cdiaghg:inve :      0.71s CPU      0.72s WALL (    1016 calls)
     cdiaghg:para :      8.42s CPU      9.24s WALL (    2032 calls)
     h_psi        :    431.33s CPU    450.14s WALL (    1023 calls)
     s_psi        :     53.50s CPU     53.67s WALL (    1023 calls)
     g_psi        :      1.47s CPU      1.48s WALL (     869 calls)

     Called by h_psi:
     h_psi:calbec :     61.77s CPU     62.42s WALL (    1023 calls)
     vloc_psi     :    313.77s CPU    330.57s WALL (    1023 calls)
     add_vuspsi   :     54.57s CPU     54.63s WALL (    1023 calls)

     General routines
     calbec       :     80.06s CPU     80.84s WALL (    1198 calls)
     fft          :      7.96s CPU      8.44s WALL (     295 calls)
     ffts         :      0.68s CPU      0.69s WALL (      43 calls)
     fftw         :    277.44s CPU    293.88s WALL (  138980 calls)
     interpolate  :      1.07s CPU      1.10s WALL (      22 calls)

     Parallel routines

     PWSCF        :  15m59.68s CPU  16m27.75s WALL


   This run was terminated on:   3:28:55   2Sep2025            

=------------------------------------------------------------------------------=
   JOB DONE.
=------------------------------------------------------------------------------=
Note: The following floating-point exceptions are signalling: IEEE_UNDERFLOW_FLAG IEEE_DENORMAL
Note: The following floating-point exceptions are signalling: IEEE_UNDERFLOW_FLAG IEEE_DENORMAL
Note: The following floating-point exceptions are signalling: IEEE_UNDERFLOW_FLAG IEEE_DENORMAL
Note: The following floating-point exceptions are signalling: IEEE_UNDERFLOW_FLAG IEEE_DENORMAL
Note: The following floating-point exceptions are signalling: IEEE_UNDERFLOW_FLAG IEEE_DENORMAL
Note: The following floating-point exceptions are signalling: IEEE_UNDERFLOW_FLAG IEEE_DENORMAL
Note: The following floating-point exceptions are signalling: IEEE_UNDERFLOW_FLAG IEEE_DENORMAL
Note: The following floating-point exceptions are signalling: IEEE_UNDERFLOW_FLAG IEEE_DENORMAL
Note: The following floating-point exceptions are signalling: IEEE_UNDERFLOW_FLAG IEEE_DENORMAL
Note: The following floating-point exceptions are signalling: IEEE_UNDERFLOW_FLAG IEEE_DENORMAL
Note: The following floating-point exceptions are signalling: IEEE_UNDERFLOW_FLAG IEEE_DENORMAL
Note: The following floating-point exceptions are signalling: IEEE_UNDERFLOW_FLAG IEEE_DENORMAL
Note: The following floating-point exceptions are signalling: IEEE_UNDERFLOW_FLAG IEEE_DENORMAL
Note: The following floating-point exceptions are signalling: IEEE_UNDERFLOW_FLAG IEEE_DENORMAL
Note: The following floating-point exceptions are signalling: IEEE_UNDERFLOW_FLAG IEEE_DENORMAL
Note: The following floating-point exceptions are signalling: IEEE_UNDERFLOW_FLAG IEEE_DENORMAL
Note: The following floating-point exceptions are signalling: IEEE_UNDERFLOW_FLAG IEEE_DENORMAL
Note: The following floating-point exceptions are signalling: IEEE_UNDERFLOW_FLAG IEEE_DENORMAL
Note: The following floating-point exceptions are signalling: IEEE_UNDERFLOW_FLAG IEEE_DENORMAL
Note: The following floating-point exceptions are signalling: IEEE_UNDERFLOW_FLAG IEEE_DENORMAL
Note: The following floating-point exceptions are signalling: IEEE_UNDERFLOW_FLAG IEEE_DENORMAL
Note: The following floating-point exceptions are signalling: IEEE_UNDERFLOW_FLAG IEEE_DENORMAL
Note: The following floating-point exceptions are signalling: IEEE_UNDERFLOW_FLAG IEEE_DENORMAL
Note: The following floating-point exceptions are signalling: IEEE_UNDERFLOW_FLAG IEEE_DENORMAL
Note: The following floating-point exceptions are signalling: IEEE_UNDERFLOW_FLAG IEEE_DENORMAL
Note: The following floating-point exceptions are signalling: IEEE_UNDERFLOW_FLAG IEEE_DENORMAL
Note: The following floating-point exceptions are signalling: IEEE_UNDERFLOW_FLAG IEEE_DENORMAL
Note: The following floating-point exceptions are signalling: IEEE_UNDERFLOW_FLAG IEEE_DENORMAL
Note: The following floating-point exceptions are signalling: IEEE_UNDERFLOW_FLAG IEEE_DENORMAL
Note: The following floating-point exceptions are signalling: IEEE_UNDERFLOW_FLAG IEEE_DENORMAL
Note: The following floating-point exceptions are signalling: IEEE_UNDERFLOW_FLAG IEEE_DENORMAL
Note: The following floating-point exceptions are signalling: IEEE_UNDERFLOW_FLAG IEEE_DENORMAL
Note: The following floating-point exceptions are signalling: IEEE_UNDERFLOW_FLAG IEEE_DENORMAL
Note: The following floating-point exceptions are signalling: IEEE_UNDERFLOW_FLAG IEEE_DENORMAL
Note: The following floating-point exceptions are signalling: IEEE_UNDERFLOW_FLAG IEEE_DENORMAL
Note: The following floating-point exceptions are signalling: IEEE_UNDERFLOW_FLAG IEEE_DENORMAL
Note: The following floating-point exceptions are signalling: IEEE_UNDERFLOW_FLAG IEEE_DENORMAL
Note: The following floating-point exceptions are signalling: IEEE_UNDERFLOW_FLAG IEEE_DENORMAL
Note: The following floating-point exceptions are signalling: IEEE_UNDERFLOW_FLAG IEEE_DENORMAL
Note: The following floating-point exceptions are signalling: IEEE_UNDERFLOW_FLAG IEEE_DENORMAL
Note: The following floating-point exceptions are signalling: IEEE_UNDERFLOW_FLAG IEEE_DENORMAL
Note: The following floating-point exceptions are signalling: IEEE_UNDERFLOW_FLAG IEEE_DENORMAL
Note: The following floating-point exceptions are signalling: IEEE_UNDERFLOW_FLAG IEEE_DENORMAL
Note: The following floating-point exceptions are signalling: IEEE_UNDERFLOW_FLAG IEEE_DENORMAL
Note: The following floating-point exceptions are signalling: IEEE_UNDERFLOW_FLAG IEEE_DENORMAL
Note: The following floating-point exceptions are signalling: IEEE_UNDERFLOW_FLAG IEEE_DENORMAL
Note: The following floating-point exceptions are signalling: IEEE_UNDERFLOW_FLAG IEEE_DENORMAL
Note: The following floating-point exceptions are signalling: IEEE_UNDERFLOW_FLAG IEEE_DENORMAL
Note: The following floating-point exceptions are signalling: IEEE_UNDERFLOW_FLAG IEEE_DENORMAL
Note: The following floating-point exceptions are signalling: IEEE_UNDERFLOW_FLAG IEEE_DENORMAL
Note: The following floating-point exceptions are signalling: IEEE_UNDERFLOW_FLAG IEEE_DENORMAL
Note: The following floating-point exceptions are signalling: IEEE_UNDERFLOW_FLAG IEEE_DENORMAL
Note: The following floating-point exceptions are signalling: IEEE_UNDERFLOW_FLAG IEEE_DENORMAL
Note: The following floating-point exceptions are signalling: IEEE_UNDERFLOW_FLAG IEEE_DENORMAL
Note: The following floating-point exceptions are signalling: IEEE_UNDERFLOW_FLAG IEEE_DENORMAL
Note: The following floating-point exceptions are signalling: IEEE_UNDERFLOW_FLAG IEEE_DENORMAL
Note: The following floating-point exceptions are signalling: IEEE_UNDERFLOW_FLAG IEEE_DENORMAL
Note: The following floating-point exceptions are signalling: IEEE_UNDERFLOW_FLAG IEEE_DENORMAL
Note: The following floating-point exceptions are signalling: IEEE_UNDERFLOW_FLAG IEEE_DENORMAL
Note: The following floating-point exceptions are signalling: IEEE_UNDERFLOW_FLAG IEEE_DENORMAL
Note: The following floating-point exceptions are signalling: IEEE_UNDERFLOW_FLAG IEEE_DENORMAL
Note: The following floating-point exceptions are signalling: IEEE_UNDERFLOW_FLAG IEEE_DENORMAL
Note: The following floating-point exceptions are signalling: IEEE_UNDERFLOW_FLAG IEEE_DENORMAL
Note: The following floating-point exceptions are signalling: IEEE_UNDERFLOW_FLAG IEEE_DENORMAL
