
     Program PWSCF v.7.0 starts on  2Sep2025 at 18:19:42 

     This program is part of the open-source Quantum ESPRESSO suite
     for quantum simulation of materials; please cite
         "P. Giannozzi et al., J. Phys.:Condens. Matter 21 395502 (2009);
         "P. Giannozzi et al., J. Phys.:Condens. Matter 29 465901 (2017);
         "P. Giannozzi et al., J. Chem. Phys. 152 154105 (2020);
          URL http://www.quantum-espresso.org", 
     in publications or presentations arising from this work. More details at
     http://www.quantum-espresso.org/quote

     Parallel version (MPI & OpenMP), running on      64 processor cores
     Number of MPI processes:                64
     Threads/MPI process:                     1

     MPI processes distributed on     1 nodes
     K-points division:     npool     =      16
     R & G space division:  proc/nbgrp/npool/nimage =       4
     107493 MiB available memory on the printing compute node when the environment starts

     Reading input from /home/jvc/QEspresso7.2/ZnO_database/scripts/cell321.in/ZnO-3.27-1.58-321.in
Warning: card &CELL ignored
Warning: card / ignored
Warning: card &FCP ignored
Warning: card / ignored
Warning: card &RISM ignored
Warning: card / ignored

     Current dimensions of program PWSCF are:
     Max number of different atomic species (ntypx) = 10
     Max number of k-points (npk) =  40000
     Max angular momentum in pseudopotentials (lmaxx) =  4
     file Zn.upf: wavefunction(s)  3D renormalized
     Found identity + (  0.0000  0.5000  0.0000) symmetry
     This is a supercell, fractional translations are disabled

     Subspace diagonalization in iterative solution of the eigenvalue problem:
     one sub-group per band group will be used
     scalapack distributed-memory algorithm (size of sub-group:  2*  2 procs)


     Parallelization info
     --------------------
     sticks:   dense  smooth     PW     G-vecs:    dense   smooth      PW
     Min        1577     788    226                65502    23143    3600
     Max        1578     790    227                65503    23144    3602
     Sum        6311    3155    905               262009    92575   14403

     Using Slab Decomposition



     bravais-lattice index     =            0
     lattice parameter (alat)  =      18.5366  a.u.
     unit-cell volume          =    1939.2406 (a.u.)^3
     number of atoms/cell      =           24
     number of atomic types    =            2
     number of electrons       =       216.00
     number of Kohn-Sham states=          108
     kinetic-energy cutoff     =      50.0000  Ry
     charge density cutoff     =     400.0000  Ry
     scf convergence threshold =      1.0E-08
     mixing beta               =       0.3000
     number of iterations used =            8  plain     mixing
     Exchange-correlation= PBE
                           (   1   4   3   4   0   0   0)

     celldm(1)=  18.536562  celldm(2)=   0.000000  celldm(3)=   0.000000
     celldm(4)=   0.000000  celldm(5)=   0.000000  celldm(6)=   0.000000

     crystal axes: (cart. coord. in units of alat)
               a(1) = (   1.000000   0.000000   0.000000 )  
               a(2) = (  -0.333333   0.577350   0.000000 )  
               a(3) = (   0.000000   0.000000   0.527357 )  

     reciprocal axes: (cart. coord. in units 2 pi/alat)
               b(1) = (  1.000000  0.577350 -0.000000 )  
               b(2) = (  0.000000  1.732051  0.000000 )  
               b(3) = (  0.000000 -0.000000  1.896248 )  


     PseudoPot. # 1 for Zn read from file:
     /home/jvc/QEspresso7.2/ZnO_database/pseudos/Zn.upf
     MD5 check sum: 7f56cabf9682ed8c977c2f7d0c5985c5
     Pseudo is Ultrasoft + core correction, Zval = 12.0
     Generated using &quot;atomic&quot; code by A. Dal Corso  v.6.2.2
     Using radial grid of 1201 points,  6 beta functions with: 
                l(1) =   0
                l(2) =   0
                l(3) =   1
                l(4) =   1
                l(5) =   2
                l(6) =   2
     Q(r) pseudized with 0 coefficients 


     PseudoPot. # 2 for O  read from file:
     /home/jvc/QEspresso7.2/ZnO_database/pseudos/O.upf
     MD5 check sum: 91400c9766925bcf19f520983a725ff0
     Pseudo is Ultrasoft + core correction, Zval =  6.0
     Generated using &quot;atomic&quot; code by A. Dal Corso  v.6.3MaX
     Using radial grid of 1095 points,  4 beta functions with: 
                l(1) =   0
                l(2) =   0
                l(3) =   1
                l(4) =   1
     Q(r) pseudized with 0 coefficients 


     atomic species   valence    mass     pseudopotential
        Zn            12.00    65.38000     Zn( 1.00)
        O              6.00    15.99900     O ( 1.00)

     No symmetry found


                                    s                        frac. trans.

      isym =  1     identity                                     

 cryst.   s( 1) = (     1          0          0      )
                  (     0          1          0      )
                  (     0          0          1      )

 cart.    s( 1) = (  1.0000000  0.0000000  0.0000000 )
                  (  0.0000000  1.0000000  0.0000000 )
                  (  0.0000000  0.0000000  1.0000000 )


   Cartesian axes

     site n.     atom                  positions (alat units)
         1           Zn  tau(   1) = (   0.1666667   0.0962250   0.2640127  )
         2           Zn  tau(   2) = (   0.0000000   0.1924501   0.0003341  )
         3           O   tau(   3) = (   0.1666667   0.0962250   0.4639036  )
         4           O   tau(   4) = (   0.0000000   0.1924501   0.2002250  )
         5           Zn  tau(   5) = (   0.0000000   0.3849002   0.2640127  )
         6           Zn  tau(   6) = (  -0.1666667   0.4811252   0.0003341  )
         7           O   tau(   7) = (   0.0000000   0.3849002   0.4639036  )
         8           O   tau(   8) = (  -0.1666667   0.4811252   0.2002250  )
         9           Zn  tau(   9) = (   0.5000000   0.0962250   0.2640127  )
        10           Zn  tau(  10) = (   0.3333333   0.1924501   0.0003341  )
        11           O   tau(  11) = (   0.5000000   0.0962250   0.4639036  )
        12           O   tau(  12) = (   0.3333333   0.1924501   0.2002250  )
        13           Zn  tau(  13) = (   0.3333333   0.3849002   0.2640127  )
        14           Zn  tau(  14) = (   0.1666667   0.4811252   0.0003341  )
        15           O   tau(  15) = (   0.3333333   0.3849002   0.4639036  )
        16           O   tau(  16) = (   0.1666667   0.4811252   0.2002250  )
        17           Zn  tau(  17) = (   0.8333333   0.0962250   0.2640127  )
        18           Zn  tau(  18) = (   0.6666667   0.1924501   0.0003341  )
        19           O   tau(  19) = (   0.8333333   0.0962250   0.4639036  )
        20           O   tau(  20) = (   0.6666667   0.1924501   0.2002250  )
        21           Zn  tau(  21) = (   0.6666667   0.3849002   0.2640127  )
        22           Zn  tau(  22) = (   0.5000000   0.4811252   0.0003341  )
        23           O   tau(  23) = (   0.6666667   0.3849002   0.4639036  )
        24           O   tau(  24) = (   0.5000000   0.4811252   0.2002250  )

   Crystallographic axes

     site n.     atom                  positions (cryst. coord.)
         1           Zn  tau(   1) = (  0.2222222  0.1666667  0.5006336  )
         2           Zn  tau(   2) = (  0.1111111  0.3333333  0.0006336  )
         3           O   tau(   3) = (  0.2222222  0.1666667  0.8796764  )
         4           O   tau(   4) = (  0.1111111  0.3333333  0.3796764  )
         5           Zn  tau(   5) = (  0.2222222  0.6666667  0.5006336  )
         6           Zn  tau(   6) = (  0.1111111  0.8333333  0.0006336  )
         7           O   tau(   7) = (  0.2222222  0.6666667  0.8796764  )
         8           O   tau(   8) = (  0.1111111  0.8333333  0.3796764  )
         9           Zn  tau(   9) = (  0.5555556  0.1666667  0.5006336  )
        10           Zn  tau(  10) = (  0.4444444  0.3333333  0.0006336  )
        11           O   tau(  11) = (  0.5555556  0.1666667  0.8796764  )
        12           O   tau(  12) = (  0.4444444  0.3333333  0.3796764  )
        13           Zn  tau(  13) = (  0.5555556  0.6666667  0.5006336  )
        14           Zn  tau(  14) = (  0.4444444  0.8333333  0.0006336  )
        15           O   tau(  15) = (  0.5555556  0.6666667  0.8796764  )
        16           O   tau(  16) = (  0.4444444  0.8333333  0.3796764  )
        17           Zn  tau(  17) = (  0.8888889  0.1666667  0.5006336  )
        18           Zn  tau(  18) = (  0.7777778  0.3333333  0.0006336  )
        19           O   tau(  19) = (  0.8888889  0.1666667  0.8796764  )
        20           O   tau(  20) = (  0.7777778  0.3333333  0.3796764  )
        21           Zn  tau(  21) = (  0.8888889  0.6666667  0.5006336  )
        22           Zn  tau(  22) = (  0.7777778  0.8333333  0.0006336  )
        23           O   tau(  23) = (  0.8888889  0.6666667  0.8796764  )
        24           O   tau(  24) = (  0.7777778  0.8333333  0.3796764  )

     number of k points=   112
                       cart. coord. in units 2pi/alat
        k(    1) = (   0.0000000   0.0000000   0.0000000), wk =   0.0092593
        k(    2) = (   0.0000000   0.0000000   0.3160414), wk =   0.0185185
        k(    3) = (   0.0000000   0.0000000   0.6320828), wk =   0.0185185
        k(    4) = (   0.0000000   0.0000000  -0.9481242), wk =   0.0092593
        k(    5) = (   0.0000000   0.2886751   0.0000000), wk =   0.0185185
        k(    6) = (   0.0000000   0.2886751   0.3160414), wk =   0.0185185
        k(    7) = (   0.0000000   0.2886751   0.6320828), wk =   0.0185185
        k(    8) = (   0.0000000   0.2886751  -0.9481242), wk =   0.0185185
        k(    9) = (   0.0000000   0.5773503   0.0000000), wk =   0.0185185
        k(   10) = (   0.0000000   0.5773503   0.3160414), wk =   0.0185185
        k(   11) = (   0.0000000   0.5773503   0.6320828), wk =   0.0185185
        k(   12) = (   0.0000000   0.5773503  -0.9481242), wk =   0.0185185
        k(   13) = (   0.0000000  -0.8660254   0.0000000), wk =   0.0092593
        k(   14) = (   0.0000000  -0.8660254   0.3160414), wk =   0.0185185
        k(   15) = (   0.0000000  -0.8660254   0.6320828), wk =   0.0185185
        k(   16) = (   0.0000000  -0.8660254  -0.9481242), wk =   0.0092593
        k(   17) = (   0.1666667   0.0962250   0.0000000), wk =   0.0185185
        k(   18) = (   0.1666667   0.0962250   0.3160414), wk =   0.0185185
        k(   19) = (   0.1666667   0.0962250   0.6320828), wk =   0.0185185
        k(   20) = (   0.1666667   0.0962250  -0.9481242), wk =   0.0185185
        k(   21) = (   0.1666667   0.3849002   0.0000000), wk =   0.0185185
        k(   22) = (   0.1666667   0.3849002   0.3160414), wk =   0.0185185
        k(   23) = (   0.1666667   0.3849002   0.6320828), wk =   0.0185185
        k(   24) = (   0.1666667   0.3849002  -0.9481242), wk =   0.0185185
        k(   25) = (   0.1666667   0.6735753   0.0000000), wk =   0.0185185
        k(   26) = (   0.1666667   0.6735753   0.3160414), wk =   0.0185185
        k(   27) = (   0.1666667   0.6735753   0.6320828), wk =   0.0185185
        k(   28) = (   0.1666667   0.6735753  -0.9481242), wk =   0.0185185
        k(   29) = (   0.1666667  -0.7698004   0.0000000), wk =   0.0185185
        k(   30) = (   0.1666667  -0.7698004   0.3160414), wk =   0.0185185
        k(   31) = (   0.1666667  -0.7698004   0.6320828), wk =   0.0185185
        k(   32) = (   0.1666667  -0.7698004  -0.9481242), wk =   0.0185185
        k(   33) = (   0.1666667  -0.4811252   0.0000000), wk =   0.0185185
        k(   34) = (   0.1666667  -0.4811252   0.3160414), wk =   0.0185185
        k(   35) = (   0.1666667  -0.4811252   0.6320828), wk =   0.0185185
        k(   36) = (   0.1666667  -0.4811252  -0.9481242), wk =   0.0185185
        k(   37) = (   0.1666667  -0.1924501   0.0000000), wk =   0.0185185
        k(   38) = (   0.1666667  -0.1924501   0.3160414), wk =   0.0185185
        k(   39) = (   0.1666667  -0.1924501   0.6320828), wk =   0.0185185
        k(   40) = (   0.1666667  -0.1924501  -0.9481242), wk =   0.0185185
        k(   41) = (   0.3333333   0.1924501   0.0000000), wk =   0.0185185
        k(   42) = (   0.3333333   0.1924501   0.3160414), wk =   0.0185185
        k(   43) = (   0.3333333   0.1924501   0.6320828), wk =   0.0185185
        k(   44) = (   0.3333333   0.1924501  -0.9481242), wk =   0.0185185
        k(   45) = (   0.3333333   0.4811252   0.0000000), wk =   0.0185185
        k(   46) = (   0.3333333   0.4811252   0.3160414), wk =   0.0185185
        k(   47) = (   0.3333333   0.4811252   0.6320828), wk =   0.0185185
        k(   48) = (   0.3333333   0.4811252  -0.9481242), wk =   0.0185185
        k(   49) = (   0.3333333   0.7698004   0.0000000), wk =   0.0185185
        k(   50) = (   0.3333333   0.7698004   0.3160414), wk =   0.0185185
        k(   51) = (   0.3333333   0.7698004   0.6320828), wk =   0.0185185
        k(   52) = (   0.3333333   0.7698004  -0.9481242), wk =   0.0185185
        k(   53) = (   0.3333333  -0.6735753   0.0000000), wk =   0.0185185
        k(   54) = (   0.3333333  -0.6735753   0.3160414), wk =   0.0185185
        k(   55) = (   0.3333333  -0.6735753   0.6320828), wk =   0.0185185
        k(   56) = (   0.3333333  -0.6735753  -0.9481242), wk =   0.0185185
        k(   57) = (   0.3333333  -0.3849002   0.0000000), wk =   0.0185185
        k(   58) = (   0.3333333  -0.3849002   0.3160414), wk =   0.0185185
        k(   59) = (   0.3333333  -0.3849002   0.6320828), wk =   0.0185185
        k(   60) = (   0.3333333  -0.3849002  -0.9481242), wk =   0.0185185
        k(   61) = (   0.3333333  -0.0962250   0.0000000), wk =   0.0185185
        k(   62) = (   0.3333333  -0.0962250   0.3160414), wk =   0.0185185
        k(   63) = (   0.3333333  -0.0962250   0.6320828), wk =   0.0185185
        k(   64) = (   0.3333333  -0.0962250  -0.9481242), wk =   0.0185185
        k(   65) = (  -0.5000000  -0.2886751   0.0000000), wk =   0.0092593
        k(   66) = (  -0.5000000  -0.2886751   0.3160414), wk =   0.0185185
        k(   67) = (  -0.5000000  -0.2886751   0.6320828), wk =   0.0185185
        k(   68) = (  -0.5000000  -0.2886751  -0.9481242), wk =   0.0092593
        k(   69) = (  -0.5000000   0.0000000   0.0000000), wk =   0.0185185
        k(   70) = (  -0.5000000   0.0000000   0.3160414), wk =   0.0185185
        k(   71) = (  -0.5000000   0.0000000   0.6320828), wk =   0.0185185
        k(   72) = (  -0.5000000   0.0000000  -0.9481242), wk =   0.0185185
        k(   73) = (  -0.5000000   0.2886751   0.0000000), wk =   0.0185185
        k(   74) = (  -0.5000000   0.2886751   0.3160414), wk =   0.0185185
        k(   75) = (  -0.5000000   0.2886751   0.6320828), wk =   0.0185185
        k(   76) = (  -0.5000000   0.2886751  -0.9481242), wk =   0.0185185
        k(   77) = (  -0.5000000  -1.1547005   0.0000000), wk =   0.0092593
        k(   78) = (  -0.5000000  -1.1547005   0.3160414), wk =   0.0185185
        k(   79) = (  -0.5000000  -1.1547005   0.6320828), wk =   0.0185185
        k(   80) = (  -0.5000000  -1.1547005  -0.9481242), wk =   0.0092593
        k(   81) = (   0.0000000  -0.2886751   0.3160414), wk =   0.0185185
        k(   82) = (   0.0000000  -0.2886751   0.6320828), wk =   0.0185185
        k(   83) = (   0.0000000  -0.5773503   0.3160414), wk =   0.0185185
        k(   84) = (   0.0000000  -0.5773503   0.6320828), wk =   0.0185185
        k(   85) = (  -0.1666667  -0.0962250   0.3160414), wk =   0.0185185
        k(   86) = (  -0.1666667  -0.0962250   0.6320828), wk =   0.0185185
        k(   87) = (  -0.1666667  -0.3849002   0.3160414), wk =   0.0185185
        k(   88) = (  -0.1666667  -0.3849002   0.6320828), wk =   0.0185185
        k(   89) = (  -0.1666667  -0.6735753   0.3160414), wk =   0.0185185
        k(   90) = (  -0.1666667  -0.6735753   0.6320828), wk =   0.0185185
        k(   91) = (  -0.1666667   0.7698004   0.3160414), wk =   0.0185185
        k(   92) = (  -0.1666667   0.7698004   0.6320828), wk =   0.0185185
        k(   93) = (  -0.1666667   0.4811252   0.3160414), wk =   0.0185185
        k(   94) = (  -0.1666667   0.4811252   0.6320828), wk =   0.0185185
        k(   95) = (  -0.1666667   0.1924501   0.3160414), wk =   0.0185185
        k(   96) = (  -0.1666667   0.1924501   0.6320828), wk =   0.0185185
        k(   97) = (  -0.3333333  -0.1924501   0.3160414), wk =   0.0185185
        k(   98) = (  -0.3333333  -0.1924501   0.6320828), wk =   0.0185185
        k(   99) = (  -0.3333333  -0.4811252   0.3160414), wk =   0.0185185
        k(  100) = (  -0.3333333  -0.4811252   0.6320828), wk =   0.0185185
        k(  101) = (  -0.3333333  -0.7698004   0.3160414), wk =   0.0185185
        k(  102) = (  -0.3333333  -0.7698004   0.6320828), wk =   0.0185185
        k(  103) = (  -0.3333333   0.6735753   0.3160414), wk =   0.0185185
        k(  104) = (  -0.3333333   0.6735753   0.6320828), wk =   0.0185185
        k(  105) = (  -0.3333333   0.3849002   0.3160414), wk =   0.0185185
        k(  106) = (  -0.3333333   0.3849002   0.6320828), wk =   0.0185185
        k(  107) = (  -0.3333333   0.0962250   0.3160414), wk =   0.0185185
        k(  108) = (  -0.3333333   0.0962250   0.6320828), wk =   0.0185185
        k(  109) = (   0.5000000  -0.0000000   0.3160414), wk =   0.0185185
        k(  110) = (   0.5000000  -0.0000000   0.6320828), wk =   0.0185185
        k(  111) = (   0.5000000  -0.2886751   0.3160414), wk =   0.0185185
        k(  112) = (   0.5000000  -0.2886751   0.6320828), wk =   0.0185185

                       cryst. coord.
        k(    1) = (   0.0000000   0.0000000   0.0000000), wk =   0.0092593
        k(    2) = (   0.0000000   0.0000000   0.1666667), wk =   0.0185185
        k(    3) = (   0.0000000   0.0000000   0.3333333), wk =   0.0185185
        k(    4) = (   0.0000000   0.0000000  -0.5000000), wk =   0.0092593
        k(    5) = (   0.0000000   0.1666667   0.0000000), wk =   0.0185185
        k(    6) = (   0.0000000   0.1666667   0.1666667), wk =   0.0185185
        k(    7) = (   0.0000000   0.1666667   0.3333333), wk =   0.0185185
        k(    8) = (   0.0000000   0.1666667  -0.5000000), wk =   0.0185185
        k(    9) = (   0.0000000   0.3333333   0.0000000), wk =   0.0185185
        k(   10) = (   0.0000000   0.3333333   0.1666667), wk =   0.0185185
        k(   11) = (   0.0000000   0.3333333   0.3333333), wk =   0.0185185
        k(   12) = (   0.0000000   0.3333333  -0.5000000), wk =   0.0185185
        k(   13) = (   0.0000000  -0.5000000   0.0000000), wk =   0.0092593
        k(   14) = (   0.0000000  -0.5000000   0.1666667), wk =   0.0185185
        k(   15) = (   0.0000000  -0.5000000   0.3333333), wk =   0.0185185
        k(   16) = (   0.0000000  -0.5000000  -0.5000000), wk =   0.0092593
        k(   17) = (   0.1666667  -0.0000000   0.0000000), wk =   0.0185185
        k(   18) = (   0.1666667  -0.0000000   0.1666667), wk =   0.0185185
        k(   19) = (   0.1666667  -0.0000000   0.3333333), wk =   0.0185185
        k(   20) = (   0.1666667  -0.0000000  -0.5000000), wk =   0.0185185
        k(   21) = (   0.1666667   0.1666667   0.0000000), wk =   0.0185185
        k(   22) = (   0.1666667   0.1666667   0.1666667), wk =   0.0185185
        k(   23) = (   0.1666667   0.1666667   0.3333333), wk =   0.0185185
        k(   24) = (   0.1666667   0.1666667  -0.5000000), wk =   0.0185185
        k(   25) = (   0.1666667   0.3333333   0.0000000), wk =   0.0185185
        k(   26) = (   0.1666667   0.3333333   0.1666667), wk =   0.0185185
        k(   27) = (   0.1666667   0.3333333   0.3333333), wk =   0.0185185
        k(   28) = (   0.1666667   0.3333333  -0.5000000), wk =   0.0185185
        k(   29) = (   0.1666667  -0.5000000   0.0000000), wk =   0.0185185
        k(   30) = (   0.1666667  -0.5000000   0.1666667), wk =   0.0185185
        k(   31) = (   0.1666667  -0.5000000   0.3333333), wk =   0.0185185
        k(   32) = (   0.1666667  -0.5000000  -0.5000000), wk =   0.0185185
        k(   33) = (   0.1666667  -0.3333333   0.0000000), wk =   0.0185185
        k(   34) = (   0.1666667  -0.3333333   0.1666667), wk =   0.0185185
        k(   35) = (   0.1666667  -0.3333333   0.3333333), wk =   0.0185185
        k(   36) = (   0.1666667  -0.3333333  -0.5000000), wk =   0.0185185
        k(   37) = (   0.1666667  -0.1666667   0.0000000), wk =   0.0185185
        k(   38) = (   0.1666667  -0.1666667   0.1666667), wk =   0.0185185
        k(   39) = (   0.1666667  -0.1666667   0.3333333), wk =   0.0185185
        k(   40) = (   0.1666667  -0.1666667  -0.5000000), wk =   0.0185185
        k(   41) = (   0.3333333  -0.0000000   0.0000000), wk =   0.0185185
        k(   42) = (   0.3333333  -0.0000000   0.1666667), wk =   0.0185185
        k(   43) = (   0.3333333  -0.0000000   0.3333333), wk =   0.0185185
        k(   44) = (   0.3333333  -0.0000000  -0.5000000), wk =   0.0185185
        k(   45) = (   0.3333333   0.1666667   0.0000000), wk =   0.0185185
        k(   46) = (   0.3333333   0.1666667   0.1666667), wk =   0.0185185
        k(   47) = (   0.3333333   0.1666667   0.3333333), wk =   0.0185185
        k(   48) = (   0.3333333   0.1666667  -0.5000000), wk =   0.0185185
        k(   49) = (   0.3333333   0.3333333   0.0000000), wk =   0.0185185
        k(   50) = (   0.3333333   0.3333333   0.1666667), wk =   0.0185185
        k(   51) = (   0.3333333   0.3333333   0.3333333), wk =   0.0185185
        k(   52) = (   0.3333333   0.3333333  -0.5000000), wk =   0.0185185
        k(   53) = (   0.3333333  -0.5000000   0.0000000), wk =   0.0185185
        k(   54) = (   0.3333333  -0.5000000   0.1666667), wk =   0.0185185
        k(   55) = (   0.3333333  -0.5000000   0.3333333), wk =   0.0185185
        k(   56) = (   0.3333333  -0.5000000  -0.5000000), wk =   0.0185185
        k(   57) = (   0.3333333  -0.3333333   0.0000000), wk =   0.0185185
        k(   58) = (   0.3333333  -0.3333333   0.1666667), wk =   0.0185185
        k(   59) = (   0.3333333  -0.3333333   0.3333333), wk =   0.0185185
        k(   60) = (   0.3333333  -0.3333333  -0.5000000), wk =   0.0185185
        k(   61) = (   0.3333333  -0.1666667   0.0000000), wk =   0.0185185
        k(   62) = (   0.3333333  -0.1666667   0.1666667), wk =   0.0185185
        k(   63) = (   0.3333333  -0.1666667   0.3333333), wk =   0.0185185
        k(   64) = (   0.3333333  -0.1666667  -0.5000000), wk =   0.0185185
        k(   65) = (  -0.5000000   0.0000000   0.0000000), wk =   0.0092593
        k(   66) = (  -0.5000000   0.0000000   0.1666667), wk =   0.0185185
        k(   67) = (  -0.5000000   0.0000000   0.3333333), wk =   0.0185185
        k(   68) = (  -0.5000000   0.0000000  -0.5000000), wk =   0.0092593
        k(   69) = (  -0.5000000   0.1666667   0.0000000), wk =   0.0185185
        k(   70) = (  -0.5000000   0.1666667   0.1666667), wk =   0.0185185
        k(   71) = (  -0.5000000   0.1666667   0.3333333), wk =   0.0185185
        k(   72) = (  -0.5000000   0.1666667  -0.5000000), wk =   0.0185185
        k(   73) = (  -0.5000000   0.3333333   0.0000000), wk =   0.0185185
        k(   74) = (  -0.5000000   0.3333333   0.1666667), wk =   0.0185185
        k(   75) = (  -0.5000000   0.3333333   0.3333333), wk =   0.0185185
        k(   76) = (  -0.5000000   0.3333333  -0.5000000), wk =   0.0185185
        k(   77) = (  -0.5000000  -0.5000000   0.0000000), wk =   0.0092593
        k(   78) = (  -0.5000000  -0.5000000   0.1666667), wk =   0.0185185
        k(   79) = (  -0.5000000  -0.5000000   0.3333333), wk =   0.0185185
        k(   80) = (  -0.5000000  -0.5000000  -0.5000000), wk =   0.0092593
        k(   81) = (   0.0000000  -0.1666667   0.1666667), wk =   0.0185185
        k(   82) = (   0.0000000  -0.1666667   0.3333333), wk =   0.0185185
        k(   83) = (   0.0000000  -0.3333333   0.1666667), wk =   0.0185185
        k(   84) = (   0.0000000  -0.3333333   0.3333333), wk =   0.0185185
        k(   85) = (  -0.1666667   0.0000000   0.1666667), wk =   0.0185185
        k(   86) = (  -0.1666667   0.0000000   0.3333333), wk =   0.0185185
        k(   87) = (  -0.1666667  -0.1666667   0.1666667), wk =   0.0185185
        k(   88) = (  -0.1666667  -0.1666667   0.3333333), wk =   0.0185185
        k(   89) = (  -0.1666667  -0.3333333   0.1666667), wk =   0.0185185
        k(   90) = (  -0.1666667  -0.3333333   0.3333333), wk =   0.0185185
        k(   91) = (  -0.1666667   0.5000000   0.1666667), wk =   0.0185185
        k(   92) = (  -0.1666667   0.5000000   0.3333333), wk =   0.0185185
        k(   93) = (  -0.1666667   0.3333333   0.1666667), wk =   0.0185185
        k(   94) = (  -0.1666667   0.3333333   0.3333333), wk =   0.0185185
        k(   95) = (  -0.1666667   0.1666667   0.1666667), wk =   0.0185185
        k(   96) = (  -0.1666667   0.1666667   0.3333333), wk =   0.0185185
        k(   97) = (  -0.3333333   0.0000000   0.1666667), wk =   0.0185185
        k(   98) = (  -0.3333333   0.0000000   0.3333333), wk =   0.0185185
        k(   99) = (  -0.3333333  -0.1666667   0.1666667), wk =   0.0185185
        k(  100) = (  -0.3333333  -0.1666667   0.3333333), wk =   0.0185185
        k(  101) = (  -0.3333333  -0.3333333   0.1666667), wk =   0.0185185
        k(  102) = (  -0.3333333  -0.3333333   0.3333333), wk =   0.0185185
        k(  103) = (  -0.3333333   0.5000000   0.1666667), wk =   0.0185185
        k(  104) = (  -0.3333333   0.5000000   0.3333333), wk =   0.0185185
        k(  105) = (  -0.3333333   0.3333333   0.1666667), wk =   0.0185185
        k(  106) = (  -0.3333333   0.3333333   0.3333333), wk =   0.0185185
        k(  107) = (  -0.3333333   0.1666667   0.1666667), wk =   0.0185185
        k(  108) = (  -0.3333333   0.1666667   0.3333333), wk =   0.0185185
        k(  109) = (   0.5000000  -0.1666667   0.1666667), wk =   0.0185185
        k(  110) = (   0.5000000  -0.1666667   0.3333333), wk =   0.0185185
        k(  111) = (   0.5000000  -0.3333333   0.1666667), wk =   0.0185185
        k(  112) = (   0.5000000  -0.3333333   0.3333333), wk =   0.0185185

     Dense  grid:   262009 G-vectors     FFT dimensions: ( 120,  80,  64)

     Smooth grid:    92575 G-vectors     FFT dimensions: (  90,  60,  45)

     Dynamical RAM for                 wfc:       4.77 MB

     Dynamical RAM for     wfc (w. buffer):      38.15 MB

     Dynamical RAM for           str. fact:       2.00 MB

     Dynamical RAM for           local pot:       0.00 MB

     Dynamical RAM for          nlocal pot:      13.78 MB

     Dynamical RAM for                qrad:       3.21 MB

     Dynamical RAM for          rho,v,vnew:       6.51 MB

     Dynamical RAM for               rhoin:       2.17 MB

     Dynamical RAM for            rho*nmix:      15.99 MB

     Dynamical RAM for           G-vectors:       3.92 MB

     Dynamical RAM for          h,s,v(r/c):       0.53 MB

     Dynamical RAM for          <psi|beta>:       0.51 MB

     Dynamical RAM for                 psi:       9.54 MB

     Dynamical RAM for                hpsi:       9.54 MB

     Dynamical RAM for                spsi:       9.54 MB

     Dynamical RAM for      wfcinit/wfcrot:      14.34 MB

     Dynamical RAM for           addusdens:      13.30 MB

     Dynamical RAM for          addusforce:      14.29 MB

     Estimated static dynamical RAM per process >      78.61 MB

     Estimated max dynamical RAM per process >     124.26 MB

     Estimated total dynamical RAM >       6.83 GB

     Check: negative core charge=   -0.000002

     Initial potential from superposition of free atoms

     starting charge     215.9553, renormalised to     216.0000
     Starting wfcs are  156 randomized atomic wfcs

     total cpu time spent up to now is       24.4 secs

     per-process dynamical memory:    99.3 Mb

     Self-consistent Calculation

     iteration #  1     ecut=    50.00 Ry     beta= 0.30
     Davidson diagonalization with overlap

---- Real-time Memory Report at c_bands before calling an iterative solver
           126 MiB given to the printing process from OS
            96 MiB allocation reported by mallinfo(arena+hblkhd)
        101108 MiB available memory on the node where the printing process lives
------------------
     ethr =  1.00E-02,  avg # of iterations =  2.0

     total cpu time spent up to now is       54.0 secs

     total energy              =   -2168.88091516 Ry
     estimated scf accuracy    <       4.12173899 Ry

     iteration #  2     ecut=    50.00 Ry     beta= 0.30
     Davidson diagonalization with overlap

---- Real-time Memory Report at c_bands before calling an iterative solver
           151 MiB given to the printing process from OS
           121 MiB allocation reported by mallinfo(arena+hblkhd)
        100471 MiB available memory on the node where the printing process lives
------------------
     ethr =  1.91E-03,  avg # of iterations =  2.0

     total cpu time spent up to now is       90.3 secs

     total energy              =   -2169.44669843 Ry
     estimated scf accuracy    <       0.54973730 Ry

     iteration #  3     ecut=    50.00 Ry     beta= 0.30
     Davidson diagonalization with overlap

---- Real-time Memory Report at c_bands before calling an iterative solver
           158 MiB given to the printing process from OS
           128 MiB allocation reported by mallinfo(arena+hblkhd)
        100458 MiB available memory on the node where the printing process lives
------------------
     ethr =  2.55E-04,  avg # of iterations =  7.3

     total cpu time spent up to now is      151.7 secs

     total energy              =   -2169.64507735 Ry
     estimated scf accuracy    <       0.36452442 Ry

     iteration #  4     ecut=    50.00 Ry     beta= 0.30
     Davidson diagonalization with overlap

---- Real-time Memory Report at c_bands before calling an iterative solver
           158 MiB given to the printing process from OS
           128 MiB allocation reported by mallinfo(arena+hblkhd)
        100470 MiB available memory on the node where the printing process lives
------------------
     ethr =  1.69E-04,  avg # of iterations =  9.8

     total cpu time spent up to now is      228.7 secs

     total energy              =   -2169.92208821 Ry
     estimated scf accuracy    <       1.61772880 Ry

     iteration #  5     ecut=    50.00 Ry     beta= 0.30
     Davidson diagonalization with overlap

---- Real-time Memory Report at c_bands before calling an iterative solver
           158 MiB given to the printing process from OS
           128 MiB allocation reported by mallinfo(arena+hblkhd)
        100419 MiB available memory on the node where the printing process lives
------------------
     ethr =  1.69E-04,  avg # of iterations =  2.0

     total cpu time spent up to now is      258.6 secs

     total energy              =   -2169.15354279 Ry
     estimated scf accuracy    <       0.96320030 Ry

     iteration #  6     ecut=    50.00 Ry     beta= 0.30
     Davidson diagonalization with overlap

---- Real-time Memory Report at c_bands before calling an iterative solver
           158 MiB given to the printing process from OS
           128 MiB allocation reported by mallinfo(arena+hblkhd)
        100450 MiB available memory on the node where the printing process lives
------------------
     ethr =  1.69E-04,  avg # of iterations = 11.7

     total cpu time spent up to now is      344.4 secs

     total energy              =   -2169.49937648 Ry
     estimated scf accuracy    <       3.92061178 Ry

     iteration #  7     ecut=    50.00 Ry     beta= 0.30
     Davidson diagonalization with overlap

---- Real-time Memory Report at c_bands before calling an iterative solver
           158 MiB given to the printing process from OS
           128 MiB allocation reported by mallinfo(arena+hblkhd)
        100412 MiB available memory on the node where the printing process lives
------------------
     ethr =  1.69E-04,  avg # of iterations =  7.8

     total cpu time spent up to now is      410.0 secs

     total energy              =   -2169.79108363 Ry
     estimated scf accuracy    <       0.33753550 Ry

     iteration #  8     ecut=    50.00 Ry     beta= 0.30
     Davidson diagonalization with overlap

---- Real-time Memory Report at c_bands before calling an iterative solver
           158 MiB given to the printing process from OS
           128 MiB allocation reported by mallinfo(arena+hblkhd)
        100471 MiB available memory on the node where the printing process lives
------------------
     ethr =  1.56E-04,  avg # of iterations =  2.2

     total cpu time spent up to now is      440.3 secs

     total energy              =   -2169.79201462 Ry
     estimated scf accuracy    <       0.17027059 Ry

     iteration #  9     ecut=    50.00 Ry     beta= 0.30
     Davidson diagonalization with overlap

---- Real-time Memory Report at c_bands before calling an iterative solver
           168 MiB given to the printing process from OS
           138 MiB allocation reported by mallinfo(arena+hblkhd)
        100466 MiB available memory on the node where the printing process lives
------------------
     ethr =  7.88E-05,  avg # of iterations =  2.7

     total cpu time spent up to now is      473.4 secs

     total energy              =   -2169.74420801 Ry
     estimated scf accuracy    <       0.10564777 Ry

     iteration # 10     ecut=    50.00 Ry     beta= 0.30
     Davidson diagonalization with overlap

---- Real-time Memory Report at c_bands before calling an iterative solver
           168 MiB given to the printing process from OS
           138 MiB allocation reported by mallinfo(arena+hblkhd)
        100456 MiB available memory on the node where the printing process lives
------------------
     ethr =  4.89E-05,  avg # of iterations =  7.8

     total cpu time spent up to now is      535.7 secs

     total energy              =   -2169.81208708 Ry
     estimated scf accuracy    <       0.05305995 Ry

     iteration # 11     ecut=    50.00 Ry     beta= 0.30
     Davidson diagonalization with overlap

---- Real-time Memory Report at c_bands before calling an iterative solver
           168 MiB given to the printing process from OS
           138 MiB allocation reported by mallinfo(arena+hblkhd)
        100453 MiB available memory on the node where the printing process lives
------------------
     ethr =  2.46E-05,  avg # of iterations =  1.9

     total cpu time spent up to now is      565.0 secs

     total energy              =   -2169.80268852 Ry
     estimated scf accuracy    <       0.02653361 Ry

     iteration # 12     ecut=    50.00 Ry     beta= 0.30
     Davidson diagonalization with overlap

---- Real-time Memory Report at c_bands before calling an iterative solver
           168 MiB given to the printing process from OS
           138 MiB allocation reported by mallinfo(arena+hblkhd)
        100444 MiB available memory on the node where the printing process lives
------------------
     ethr =  1.23E-05,  avg # of iterations =  4.2

     total cpu time spent up to now is      606.6 secs

     total energy              =   -2169.80967394 Ry
     estimated scf accuracy    <       0.00025439 Ry

     iteration # 13     ecut=    50.00 Ry     beta= 0.30
     Davidson diagonalization with overlap

---- Real-time Memory Report at c_bands before calling an iterative solver
           168 MiB given to the printing process from OS
           138 MiB allocation reported by mallinfo(arena+hblkhd)
        100414 MiB available memory on the node where the printing process lives
------------------
     c_bands:  1 eigenvalues not converged
     ethr =  1.18E-07,  avg # of iterations = 10.3

     total cpu time spent up to now is      692.3 secs

     total energy              =   -2169.81075597 Ry
     estimated scf accuracy    <       0.00041445 Ry

     iteration # 14     ecut=    50.00 Ry     beta= 0.30
     Davidson diagonalization with overlap

---- Real-time Memory Report at c_bands before calling an iterative solver
           168 MiB given to the printing process from OS
           138 MiB allocation reported by mallinfo(arena+hblkhd)
        100388 MiB available memory on the node where the printing process lives
------------------
     ethr =  1.18E-07,  avg # of iterations =  7.4

     total cpu time spent up to now is      756.0 secs

     total energy              =   -2169.81082337 Ry
     estimated scf accuracy    <       0.00018530 Ry

     iteration # 15     ecut=    50.00 Ry     beta= 0.30
     Davidson diagonalization with overlap

---- Real-time Memory Report at c_bands before calling an iterative solver
           168 MiB given to the printing process from OS
           138 MiB allocation reported by mallinfo(arena+hblkhd)
        100425 MiB available memory on the node where the printing process lives
------------------
     ethr =  8.58E-08,  avg # of iterations =  9.3

     total cpu time spent up to now is      835.7 secs

     total energy              =   -2169.81081876 Ry
     estimated scf accuracy    <       0.00111587 Ry

     iteration # 16     ecut=    50.00 Ry     beta= 0.30
     Davidson diagonalization with overlap

---- Real-time Memory Report at c_bands before calling an iterative solver
           168 MiB given to the printing process from OS
           138 MiB allocation reported by mallinfo(arena+hblkhd)
        100340 MiB available memory on the node where the printing process lives
------------------
     ethr =  8.58E-08,  avg # of iterations =  5.8

     total cpu time spent up to now is      887.4 secs

     total energy              =   -2169.81085306 Ry
     estimated scf accuracy    <       0.00012919 Ry

     iteration # 17     ecut=    50.00 Ry     beta= 0.30
     Davidson diagonalization with overlap

---- Real-time Memory Report at c_bands before calling an iterative solver
           168 MiB given to the printing process from OS
           138 MiB allocation reported by mallinfo(arena+hblkhd)
        100435 MiB available memory on the node where the printing process lives
------------------
     ethr =  5.98E-08,  avg # of iterations =  6.6

     total cpu time spent up to now is      935.8 secs

     total energy              =   -2169.81090100 Ry
     estimated scf accuracy    <       0.00000149 Ry

     iteration # 18     ecut=    50.00 Ry     beta= 0.30
     Davidson diagonalization with overlap

---- Real-time Memory Report at c_bands before calling an iterative solver
           168 MiB given to the printing process from OS
           138 MiB allocation reported by mallinfo(arena+hblkhd)
        100430 MiB available memory on the node where the printing process lives
------------------
     c_bands:  1 eigenvalues not converged
     ethr =  6.92E-10,  avg # of iterations = 11.7

     total cpu time spent up to now is     1027.8 secs

     total energy              =   -2169.81089985 Ry
     estimated scf accuracy    <       0.00002210 Ry

     iteration # 19     ecut=    50.00 Ry     beta= 0.30
     Davidson diagonalization with overlap

---- Real-time Memory Report at c_bands before calling an iterative solver
           168 MiB given to the printing process from OS
           138 MiB allocation reported by mallinfo(arena+hblkhd)
        100360 MiB available memory on the node where the printing process lives
------------------
     ethr =  6.92E-10,  avg # of iterations = 11.0

     total cpu time spent up to now is     1116.9 secs

     total energy              =   -2169.81090490 Ry
     estimated scf accuracy    <       0.00000066 Ry

     iteration # 20     ecut=    50.00 Ry     beta= 0.30
     Davidson diagonalization with overlap

---- Real-time Memory Report at c_bands before calling an iterative solver
           168 MiB given to the printing process from OS
           138 MiB allocation reported by mallinfo(arena+hblkhd)
        100328 MiB available memory on the node where the printing process lives
------------------
     ethr =  3.05E-10,  avg # of iterations = 10.3

     total cpu time spent up to now is     1205.4 secs

     total energy              =   -2169.81090465 Ry
     estimated scf accuracy    <       0.00000746 Ry

     iteration # 21     ecut=    50.00 Ry     beta= 0.30
     Davidson diagonalization with overlap

---- Real-time Memory Report at c_bands before calling an iterative solver
           168 MiB given to the printing process from OS
           138 MiB allocation reported by mallinfo(arena+hblkhd)
        100395 MiB available memory on the node where the printing process lives
------------------
     ethr =  3.05E-10,  avg # of iterations =  8.2

     total cpu time spent up to now is     1273.4 secs

     total energy              =   -2169.81090506 Ry
     estimated scf accuracy    <       0.00000077 Ry

     iteration # 22     ecut=    50.00 Ry     beta= 0.30
     Davidson diagonalization with overlap

---- Real-time Memory Report at c_bands before calling an iterative solver
           168 MiB given to the printing process from OS
           138 MiB allocation reported by mallinfo(arena+hblkhd)
        100431 MiB available memory on the node where the printing process lives
------------------
     ethr =  3.05E-10,  avg # of iterations =  3.2

     total cpu time spent up to now is     1307.0 secs

     total energy              =   -2169.81090498 Ry
     estimated scf accuracy    <       0.00000025 Ry

     iteration # 23     ecut=    50.00 Ry     beta= 0.30
     Davidson diagonalization with overlap

---- Real-time Memory Report at c_bands before calling an iterative solver
           168 MiB given to the printing process from OS
           138 MiB allocation reported by mallinfo(arena+hblkhd)
        100413 MiB available memory on the node where the printing process lives
------------------
     ethr =  1.18E-10,  avg # of iterations =  7.7

     total cpu time spent up to now is     1364.3 secs

     total energy              =   -2169.81090516 Ry
     estimated scf accuracy    <       0.00000012 Ry

     iteration # 24     ecut=    50.00 Ry     beta= 0.30
     Davidson diagonalization with overlap

---- Real-time Memory Report at c_bands before calling an iterative solver
           168 MiB given to the printing process from OS
           138 MiB allocation reported by mallinfo(arena+hblkhd)
        100419 MiB available memory on the node where the printing process lives
------------------
     ethr =  5.58E-11,  avg # of iterations =  2.0

     total cpu time spent up to now is     1394.7 secs

     total energy              =   -2169.81090514 Ry
     estimated scf accuracy    <       0.00000004 Ry

     iteration # 25     ecut=    50.00 Ry     beta= 0.30
     Davidson diagonalization with overlap

---- Real-time Memory Report at c_bands before calling an iterative solver
           168 MiB given to the printing process from OS
           138 MiB allocation reported by mallinfo(arena+hblkhd)
        100424 MiB available memory on the node where the printing process lives
------------------
     ethr =  1.88E-11,  avg # of iterations =  6.5

     total cpu time spent up to now is     1456.6 secs

     total energy              =   -2169.81090516 Ry
     estimated scf accuracy    <       0.00000004 Ry

     iteration # 26     ecut=    50.00 Ry     beta= 0.30
     Davidson diagonalization with overlap

---- Real-time Memory Report at c_bands before calling an iterative solver
           168 MiB given to the printing process from OS
           138 MiB allocation reported by mallinfo(arena+hblkhd)
        100428 MiB available memory on the node where the printing process lives
------------------
     ethr =  1.88E-11,  avg # of iterations =  2.0

     total cpu time spent up to now is     1486.9 secs

     total energy              =   -2169.81090516 Ry
     estimated scf accuracy    <       0.00000001 Ry

     iteration # 27     ecut=    50.00 Ry     beta= 0.30
     Davidson diagonalization with overlap

---- Real-time Memory Report at c_bands before calling an iterative solver
           168 MiB given to the printing process from OS
           138 MiB allocation reported by mallinfo(arena+hblkhd)
        100408 MiB available memory on the node where the printing process lives
------------------
     ethr =  5.67E-12,  avg # of iterations =  7.7

     total cpu time spent up to now is     1554.7 secs

     total energy              =   -2169.81090517 Ry
     estimated scf accuracy    <       0.00000003 Ry

     iteration # 28     ecut=    50.00 Ry     beta= 0.30
     Davidson diagonalization with overlap

---- Real-time Memory Report at c_bands before calling an iterative solver
           168 MiB given to the printing process from OS
           138 MiB allocation reported by mallinfo(arena+hblkhd)
        100392 MiB available memory on the node where the printing process lives
------------------
     ethr =  5.67E-12,  avg # of iterations =  2.0

     total cpu time spent up to now is     1584.7 secs

     total energy              =   -2169.81090516 Ry
     estimated scf accuracy    <       0.00000001 Ry

     iteration # 29     ecut=    50.00 Ry     beta= 0.30
     Davidson diagonalization with overlap

---- Real-time Memory Report at c_bands before calling an iterative solver
           168 MiB given to the printing process from OS
           138 MiB allocation reported by mallinfo(arena+hblkhd)
        100401 MiB available memory on the node where the printing process lives
------------------
     ethr =  5.67E-12,  avg # of iterations =  5.5

     total cpu time spent up to now is     1638.8 secs

     End of self-consistent calculation

          k = 0.0000 0.0000 0.0000 ( 11555 PWs)   bands (ev):

   -10.8612 -10.3986 -10.3986 -10.2011 -10.2011 -10.1933 -10.1193  -9.9729
    -9.9729  -9.9649  -9.9604  -9.9604   1.2342   1.2342   1.3021   1.4014
     1.4014   1.5207   1.5315   1.5315   1.5650   1.5895   1.5895   1.6271
     1.6481   1.6481   1.7326   1.7326   1.7347   1.7347   1.7723   1.7942
     1.7942   1.9148   1.9148   1.9829   1.9829   2.1223   2.1453   2.1453
     2.1623   2.2543   2.2543   2.2797   2.2797   2.3303   2.3661   2.3661
     2.6107   2.6107   2.6713   2.6713   2.6840   2.6840   2.7229   2.7288
     2.7289   2.7603   2.7603   2.8569   2.9044   2.9044   2.9382   2.9382
     2.9512   2.9614   2.9614   3.0191   3.0574   3.0574   3.1372   3.1372
     3.1572   3.3287   3.3287   3.3480   3.3480   3.5034   3.6959   3.9419
     3.9419   4.0512   4.0512   4.3165   4.3165   4.3734   4.6520   4.6520
     4.8738   4.9275   4.9275   5.2722   5.2722   5.8908   5.8909   5.9200
     6.0802   6.0802   6.3310   6.3310   6.3660   6.3777   6.3777   6.5843
     6.5843   7.1235   7.1654   7.1654

     occupation numbers 
     1.0000   1.0000   1.0000   1.0000   1.0000   1.0000   1.0000   1.0000
     1.0000   1.0000   1.0000   1.0000   1.0000   1.0000   1.0000   1.0000
     1.0000   1.0000   1.0000   1.0000   1.0000   1.0000   1.0000   1.0000
     1.0000   1.0000   1.0000   1.0000   1.0000   1.0000   1.0000   1.0000
     1.0000   1.0000   1.0000   1.0000   1.0000   1.0000   1.0000   1.0000
     1.0000   1.0000   1.0000   1.0000   1.0000   1.0000   1.0000   1.0000
     1.0000   1.0000   1.0000   1.0000   1.0000   1.0000   1.0000   1.0000
     1.0000   1.0000   1.0000   1.0000   1.0000   1.0000   1.0000   1.0000
     1.0000   1.0000   1.0000   1.0000   1.0000   1.0000   1.0000   1.0000
     1.0000   1.0000   1.0000   1.0000   1.0000   1.0000   1.0000   1.0000
     1.0000   1.0000   1.0000   1.0000   1.0000   1.0000   1.0000   1.0000
     1.0000   1.0000   1.0000   1.0000   1.0000   1.0000   1.0000   1.0000
     1.0000   1.0000   1.0000   1.0000   1.0000   1.0000   1.0000   1.0000
     1.0000   1.0000   1.0000   1.0000

          k = 0.0000 0.0000 0.3160 ( 11588 PWs)   bands (ev):

   -10.8139 -10.3690 -10.3690 -10.1827 -10.1827 -10.1756 -10.1714  -9.9999
    -9.9999  -9.9775  -9.9740  -9.9739   1.1967   1.1967   1.2498   1.3603
     1.3603   1.4080   1.4826   1.4826   1.4931   1.5098   1.5380   1.5380
     1.5609   1.5609   1.7130   1.7130   1.7530   1.7530   1.7669   1.7669
     1.8000   1.8863   1.8863   1.9637   1.9637   2.0839   2.1084   2.1084
     2.1086   2.1086   2.1331   2.2017   2.2017   2.2766   2.2766   2.2804
     2.6495   2.6495   2.6800   2.6800   2.7049   2.7049   2.7710   2.7710
     2.7914   2.8068   2.8068   2.8596   2.8968   2.8968   2.9230   2.9230
     2.9347   2.9566   2.9566   3.0185   3.0338   3.0338   3.1457   3.1457
     3.3700   3.3700   3.4565   3.4840   3.6012   3.6012   3.6477   3.9731
     3.9731   4.2084   4.2084   4.4124   4.4124   4.6806   4.8675   4.8675
     4.8912   4.8912   4.9925   5.3700   5.3700   5.8821   5.8821   6.0212
     6.0832   6.0832   6.2754   6.3883   6.3883   6.4097   6.4097   6.5021
     6.5021   6.5675   7.1112   7.1112

     occupation numbers 
     1.0000   1.0000   1.0000   1.0000   1.0000   1.0000   1.0000   1.0000
     1.0000   1.0000   1.0000   1.0000   1.0000   1.0000   1.0000   1.0000
     1.0000   1.0000   1.0000   1.0000   1.0000   1.0000   1.0000   1.0000
     1.0000   1.0000   1.0000   1.0000   1.0000   1.0000   1.0000   1.0000
     1.0000   1.0000   1.0000   1.0000   1.0000   1.0000   1.0000   1.0000
     1.0000   1.0000   1.0000   1.0000   1.0000   1.0000   1.0000   1.0000
     1.0000   1.0000   1.0000   1.0000   1.0000   1.0000   1.0000   1.0000
     1.0000   1.0000   1.0000   1.0000   1.0000   1.0000   1.0000   1.0000
     1.0000   1.0000   1.0000   1.0000   1.0000   1.0000   1.0000   1.0000
     1.0000   1.0000   1.0000   1.0000   1.0000   1.0000   1.0000   1.0000
     1.0000   1.0000   1.0000   1.0000   1.0000   1.0000   1.0000   1.0000
     1.0000   1.0000   1.0000   1.0000   1.0000   1.0000   1.0000   1.0000
     1.0000   1.0000   1.0000   1.0000   1.0000   1.0000   1.0000   1.0000
     1.0000   1.0000   1.0000   1.0000

          k = 0.0000 0.0000 0.6321 ( 11568 PWs)   bands (ev):

   -10.6829 -10.3121 -10.2887 -10.2887 -10.1338 -10.1338 -10.1288 -10.0752
   -10.0752 -10.0142 -10.0130 -10.0130   1.1255   1.1255   1.1454   1.2065
     1.2582   1.2582   1.2657   1.2657   1.3255   1.3560   1.3560   1.3881
     1.5610   1.5610   1.6611   1.6611   1.7877   1.7877   1.8131   1.8131
     1.8600   1.8600   1.8816   1.9289   1.9289   1.9627   1.9627   2.0160
     2.0160   2.0468   2.0799   2.1038   2.1038   2.1444   2.1444   2.1555
     2.7500   2.7500   2.7578   2.7578   2.7620   2.7620   2.8003   2.8003
     2.8355   2.8355   2.8681   2.8697   2.8697   2.8862   2.8862   2.8992
     2.9056   2.9624   2.9624   2.9678   2.9678   3.0093   3.0919   3.0919
     3.4313   3.5229   3.5229   3.5531   3.8683   3.8683   3.9064   3.9064
     4.1891   4.3307   4.3307   4.7523   4.7523   5.1953   5.1953   5.2939
     5.3086   5.3713   5.3713   5.6262   5.6262   5.6500   5.6500   5.7889
     6.0249   6.1106   6.1561   6.1561   6.2754   6.2754   6.3029   6.3029
     6.5441   6.5441   6.9617   6.9618

     occupation numbers 
     1.0000   1.0000   1.0000   1.0000   1.0000   1.0000   1.0000   1.0000
     1.0000   1.0000   1.0000   1.0000   1.0000   1.0000   1.0000   1.0000
     1.0000   1.0000   1.0000   1.0000   1.0000   1.0000   1.0000   1.0000
     1.0000   1.0000   1.0000   1.0000   1.0000   1.0000   1.0000   1.0000
     1.0000   1.0000   1.0000   1.0000   1.0000   1.0000   1.0000   1.0000
     1.0000   1.0000   1.0000   1.0000   1.0000   1.0000   1.0000   1.0000
     1.0000   1.0000   1.0000   1.0000   1.0000   1.0000   1.0000   1.0000
     1.0000   1.0000   1.0000   1.0000   1.0000   1.0000   1.0000   1.0000
     1.0000   1.0000   1.0000   1.0000   1.0000   1.0000   1.0000   1.0000
     1.0000   1.0000   1.0000   1.0000   1.0000   1.0000   1.0000   1.0000
     1.0000   1.0000   1.0000   1.0000   1.0000   1.0000   1.0000   1.0000
     1.0000   1.0000   1.0000   1.0000   1.0000   1.0000   1.0000   1.0000
     1.0000   1.0000   1.0000   1.0000   1.0000   1.0000   1.0000   1.0000
     1.0000   1.0000   1.0000   1.0000

          k = 0.0000 0.0000-0.9481 ( 11590 PWs)   bands (ev):

   -10.4999 -10.4999 -10.1807 -10.1807 -10.1807 -10.1807 -10.0709 -10.0709
   -10.0709 -10.0709 -10.0690 -10.0690   1.1049   1.1049   1.1216   1.1216
     1.1217   1.1217   1.2361   1.2361   1.2361   1.2361   1.2962   1.2962
     1.6037   1.6037   1.6037   1.6037   1.8661   1.8661   1.8661   1.8661
     1.8852   1.8852   1.8852   1.8852   1.9066   1.9066   1.9066   1.9066
     2.0077   2.0077   2.0463   2.0463   2.0748   2.0748   2.0748   2.0748
     2.8196   2.8196   2.8196   2.8196   2.8201   2.8201   2.8201   2.8201
     2.8416   2.8416   2.8416   2.8416   2.8630   2.8630   2.8630   2.8630
     2.8828   2.8828   2.9740   2.9740   3.0184   3.0184   3.0184   3.0184
     3.4709   3.4709   3.7008   3.7008   3.7008   3.7008   4.1483   4.1483
     4.1483   4.1483   4.9917   4.9917   5.1743   5.1743   5.1743   5.1743
     5.6709   5.6709   5.8502   5.8502   5.8502   5.8502   5.8734   5.8734
     5.9567   5.9567   5.9567   5.9567   5.9577   5.9577   5.9577   5.9577
     6.7544   6.7544   6.7545   6.7545

     occupation numbers 
     1.0000   1.0000   1.0000   1.0000   1.0000   1.0000   1.0000   1.0000
     1.0000   1.0000   1.0000   1.0000   1.0000   1.0000   1.0000   1.0000
     1.0000   1.0000   1.0000   1.0000   1.0000   1.0000   1.0000   1.0000
     1.0000   1.0000   1.0000   1.0000   1.0000   1.0000   1.0000   1.0000
     1.0000   1.0000   1.0000   1.0000   1.0000   1.0000   1.0000   1.0000
     1.0000   1.0000   1.0000   1.0000   1.0000   1.0000   1.0000   1.0000
     1.0000   1.0000   1.0000   1.0000   1.0000   1.0000   1.0000   1.0000
     1.0000   1.0000   1.0000   1.0000   1.0000   1.0000   1.0000   1.0000
     1.0000   1.0000   1.0000   1.0000   1.0000   1.0000   1.0000   1.0000
     1.0000   1.0000   1.0000   1.0000   1.0000   1.0000   1.0000   1.0000
     1.0000   1.0000   1.0000   1.0000   1.0000   1.0000   1.0000   1.0000
     1.0000   1.0000   1.0000   1.0000   1.0000   1.0000   1.0000   1.0000
     1.0000   1.0000   1.0000   1.0000   1.0000   1.0000   1.0000   1.0000
     1.0000   1.0000   1.0000   1.0000

          k = 0.0000 0.2887 0.0000 ( 11544 PWs)   bands (ev):

   -10.8240 -10.4633 -10.3053 -10.3053 -10.2555 -10.1043 -10.1038  -9.9853
    -9.9808  -9.9611  -9.9611  -9.9604   1.2620   1.2796   1.2806   1.2806
     1.4745   1.4844   1.5500   1.5528   1.5929   1.5940   1.5940   1.5957
     1.6712   1.7030   1.7381   1.7381   1.7413   1.7464   1.7632   1.7655
     1.8532   1.9280   1.9749   1.9749   2.0408   2.0484   2.0904   2.2121
     2.2198   2.2246   2.2246   2.2763   2.2763   2.2777   2.3639   2.4667
     2.5768   2.6550   2.6550   2.6610   2.6687   2.6818   2.6961   2.7032
     2.7243   2.7694   2.7694   2.8252   2.9083   2.9329   2.9334   2.9361
     2.9455   2.9455   2.9474   2.9496   3.0532   3.1333   3.1359   3.1359
     3.1500   3.3043   3.3150   3.3243   3.3243   3.5054   3.6335   3.8257
     3.9098   3.9386   3.9386   4.3601   4.5045   4.6657   4.6657   4.8984
     4.9473   4.9474   4.9858   5.0542   5.3718   5.5724   5.7398   6.0654
     6.0826   6.1812   6.1812   6.2378   6.3906   6.3906   6.4259   6.5166
     6.5900   6.6906   7.0760   7.1179

     occupation numbers 
     1.0000   1.0000   1.0000   1.0000   1.0000   1.0000   1.0000   1.0000
     1.0000   1.0000   1.0000   1.0000   1.0000   1.0000   1.0000   1.0000
     1.0000   1.0000   1.0000   1.0000   1.0000   1.0000   1.0000   1.0000
     1.0000   1.0000   1.0000   1.0000   1.0000   1.0000   1.0000   1.0000
     1.0000   1.0000   1.0000   1.0000   1.0000   1.0000   1.0000   1.0000
     1.0000   1.0000   1.0000   1.0000   1.0000   1.0000   1.0000   1.0000
     1.0000   1.0000   1.0000   1.0000   1.0000   1.0000   1.0000   1.0000
     1.0000   1.0000   1.0000   1.0000   1.0000   1.0000   1.0000   1.0000
     1.0000   1.0000   1.0000   1.0000   1.0000   1.0000   1.0000   1.0000
     1.0000   1.0000   1.0000   1.0000   1.0000   1.0000   1.0000   1.0000
     1.0000   1.0000   1.0000   1.0000   1.0000   1.0000   1.0000   1.0000
     1.0000   1.0000   1.0000   1.0000   1.0000   1.0000   1.0000   1.0000
     1.0000   1.0000   1.0000   1.0000   1.0000   1.0000   1.0000   1.0000
     1.0000   1.0000   1.0000   1.0000

          k = 0.0000 0.2887 0.3160 ( 11585 PWs)   bands (ev):

   -10.7779 -10.4307 -10.2805 -10.2805 -10.2337 -10.1542 -10.0932 -10.0164
    -9.9861  -9.9821  -9.9821  -9.9778   1.2156   1.2377   1.2377   1.2416
     1.4400   1.4510   1.4756   1.4890   1.4890   1.5010   1.5127   1.5600
     1.5812   1.6651   1.7131   1.7279   1.7432   1.7581   1.7581   1.7889
     1.7967   1.8274   1.9461   1.9461   2.0146   2.0266   2.0462   2.0608
     2.1452   2.1452   2.1459   2.1931   2.1931   2.2320   2.2900   2.3455
     2.6264   2.6700   2.6756   2.6756   2.6922   2.7025   2.7411   2.7498
     2.7741   2.8036   2.8036   2.8300   2.8995   2.9118   2.9194   2.9315
     2.9321   2.9321   2.9694   3.0228   3.0424   3.0842   3.0858   3.0858
     3.3776   3.4718   3.4803   3.4803   3.4967   3.6410   3.7686   3.9029
     3.9078   4.0862   4.0862   4.4829   4.6719   4.7194   4.7194   5.0242
     5.0611   5.0611   5.0980   5.1162   5.4237   5.5375   5.7999   6.1391
     6.1472   6.2263   6.2263   6.2985   6.3181   6.3181   6.3376   6.3635
     6.4923   6.5406   7.0132   7.0608

     occupation numbers 
     1.0000   1.0000   1.0000   1.0000   1.0000   1.0000   1.0000   1.0000
     1.0000   1.0000   1.0000   1.0000   1.0000   1.0000   1.0000   1.0000
     1.0000   1.0000   1.0000   1.0000   1.0000   1.0000   1.0000   1.0000
     1.0000   1.0000   1.0000   1.0000   1.0000   1.0000   1.0000   1.0000
     1.0000   1.0000   1.0000   1.0000   1.0000   1.0000   1.0000   1.0000
     1.0000   1.0000   1.0000   1.0000   1.0000   1.0000   1.0000   1.0000
     1.0000   1.0000   1.0000   1.0000   1.0000   1.0000   1.0000   1.0000
     1.0000   1.0000   1.0000   1.0000   1.0000   1.0000   1.0000   1.0000
     1.0000   1.0000   1.0000   1.0000   1.0000   1.0000   1.0000   1.0000
     1.0000   1.0000   1.0000   1.0000   1.0000   1.0000   1.0000   1.0000
     1.0000   1.0000   1.0000   1.0000   1.0000   1.0000   1.0000   1.0000
     1.0000   1.0000   1.0000   1.0000   1.0000   1.0000   1.0000   1.0000
     1.0000   1.0000   1.0000   1.0000   1.0000   1.0000   1.0000   1.0000
     1.0000   1.0000   1.0000   1.0000

          k = 0.0000 0.2887 0.6321 ( 11575 PWs)   bands (ev):

   -10.6503 -10.3417 -10.2902 -10.2139 -10.2139 -10.1754 -10.1021 -10.0650
   -10.0412 -10.0412 -10.0273 -10.0030   1.1266   1.1551   1.1551   1.1665
     1.2281   1.2720   1.2720   1.2840   1.3211   1.3539   1.4177   1.4850
     1.5846   1.5847   1.6779   1.6892   1.7047   1.7501   1.8045   1.8189
     1.8189   1.8644   1.9090   1.9146   1.9147   1.9361   1.9764   1.9813
     2.0203   2.0203   2.0540   2.0845   2.0845   2.1171   2.2055   2.2239
     2.7212   2.7320   2.7510   2.7554   2.7667   2.7667   2.7782   2.7888
     2.8268   2.8336   2.8336   2.8451   2.8702   2.8765   2.8840   2.8995
     2.9057   2.9057   2.9526   3.0015   3.0015   3.0050   3.0555   3.1643
     3.4687   3.5232   3.6968   3.6968   3.6978   3.8450   4.0787   4.0825
     4.0825   4.2066   4.2516   4.5919   5.1711   5.1714   5.1714   5.2334
     5.2501   5.3806   5.3806   5.3857   5.6360   5.6432   5.7127   6.0094
     6.0257   6.0257   6.0935   6.1755   6.2523   6.2523   6.2638   6.3282
     6.3863   6.4631   6.8255   6.9034

     occupation numbers 
     1.0000   1.0000   1.0000   1.0000   1.0000   1.0000   1.0000   1.0000
     1.0000   1.0000   1.0000   1.0000   1.0000   1.0000   1.0000   1.0000
     1.0000   1.0000   1.0000   1.0000   1.0000   1.0000   1.0000   1.0000
     1.0000   1.0000   1.0000   1.0000   1.0000   1.0000   1.0000   1.0000
     1.0000   1.0000   1.0000   1.0000   1.0000   1.0000   1.0000   1.0000
     1.0000   1.0000   1.0000   1.0000   1.0000   1.0000   1.0000   1.0000
     1.0000   1.0000   1.0000   1.0000   1.0000   1.0000   1.0000   1.0000
     1.0000   1.0000   1.0000   1.0000   1.0000   1.0000   1.0000   1.0000
     1.0000   1.0000   1.0000   1.0000   1.0000   1.0000   1.0000   1.0000
     1.0000   1.0000   1.0000   1.0000   1.0000   1.0000   1.0000   1.0000
     1.0000   1.0000   1.0000   1.0000   1.0000   1.0000   1.0000   1.0000
     1.0000   1.0000   1.0000   1.0000   1.0000   1.0000   1.0000   1.0000
     1.0000   1.0000   1.0000   1.0000   1.0000   1.0000   1.0000   1.0000
     1.0000   1.0000   1.0000   1.0000

          k = 0.0000 0.2887-0.9481 ( 11588 PWs)   bands (ev):

   -10.4723 -10.4723 -10.2211 -10.2211 -10.1257 -10.1256 -10.1256 -10.1256
   -10.0992 -10.0992 -10.0311 -10.0311   1.1066   1.1066   1.1420   1.1420
     1.1420   1.1420   1.1549   1.1549   1.2758   1.2758   1.3743   1.3743
     1.6222   1.6222   1.6297   1.6297   1.7927   1.7927   1.7965   1.7965
     1.8947   1.8947   1.8950   1.8950   1.8950   1.8950   1.9810   1.9810
     1.9884   1.9884   1.9884   1.9884   1.9955   1.9955   2.1848   2.1848
     2.7559   2.7559   2.8183   2.8183   2.8202   2.8202   2.8280   2.8280
     2.8430   2.8430   2.8430   2.8430   2.8586   2.8586   2.8689   2.8689
     2.9142   2.9142   2.9142   2.9142   2.9196   2.9196   3.1440   3.1440
     3.5681   3.5681   3.6884   3.6884   3.9035   3.9035   3.9035   3.9035
     4.3814   4.3814   4.7247   4.7247   4.9845   4.9845   5.6383   5.6383
     5.6383   5.6383   5.7496   5.7496   5.8285   5.8285   5.8624   5.8624
     5.9197   5.9197   5.9197   5.9197   5.9869   5.9869   6.0112   6.0112
     6.5719   6.5719   6.6850   6.6851

     occupation numbers 
     1.0000   1.0000   1.0000   1.0000   1.0000   1.0000   1.0000   1.0000
     1.0000   1.0000   1.0000   1.0000   1.0000   1.0000   1.0000   1.0000
     1.0000   1.0000   1.0000   1.0000   1.0000   1.0000   1.0000   1.0000
     1.0000   1.0000   1.0000   1.0000   1.0000   1.0000   1.0000   1.0000
     1.0000   1.0000   1.0000   1.0000   1.0000   1.0000   1.0000   1.0000
     1.0000   1.0000   1.0000   1.0000   1.0000   1.0000   1.0000   1.0000
     1.0000   1.0000   1.0000   1.0000   1.0000   1.0000   1.0000   1.0000
     1.0000   1.0000   1.0000   1.0000   1.0000   1.0000   1.0000   1.0000
     1.0000   1.0000   1.0000   1.0000   1.0000   1.0000   1.0000   1.0000
     1.0000   1.0000   1.0000   1.0000   1.0000   1.0000   1.0000   1.0000
     1.0000   1.0000   1.0000   1.0000   1.0000   1.0000   1.0000   1.0000
     1.0000   1.0000   1.0000   1.0000   1.0000   1.0000   1.0000   1.0000
     1.0000   1.0000   1.0000   1.0000   1.0000   1.0000   1.0000   1.0000
     1.0000   1.0000   1.0000   1.0000

          k = 0.0000 0.5774 0.0000 ( 11528 PWs)   bands (ev):

   -10.7192 -10.4864 -10.3987 -10.3986 -10.2011 -10.0631 -10.0286 -10.0286
    -9.9904  -9.9729  -9.9728  -9.9604   1.2342   1.2342   1.3395   1.3833
     1.4014   1.4865   1.5399   1.5895   1.5895   1.6090   1.6332   1.6481
     1.7075   1.7326   1.7326   1.7394   1.7942   1.8032   1.8487   1.8487
     1.8537   1.8743   1.9148   1.9148   1.9829   2.0761   2.1453   2.1453
     2.1905   2.2543   2.2543   2.2780   2.2797   2.3661   2.4844   2.4845
     2.5779   2.6107   2.6107   2.6199   2.6269   2.6713   2.6838   2.7056
     2.7289   2.7586   2.7603   2.7603   2.7944   2.7944   2.9177   2.9313
     2.9382   2.9382   2.9614   3.0066   3.0574   3.0574   3.0594   3.1372
     3.1422   3.3012   3.3287   3.3480   3.3480   3.4138   3.6937   3.6937
     3.9419   4.0512   4.0512   4.3165   4.6486   4.6520   4.8811   4.9275
     4.9275   5.2722   5.2722   5.2821   5.2821   5.4450   5.4604   5.5168
     5.8909   5.9845   6.0652   6.0802   6.3777   6.3778   6.5389   6.5739
     6.5843   6.5843   6.9322   6.9834

     occupation numbers 
     1.0000   1.0000   1.0000   1.0000   1.0000   1.0000   1.0000   1.0000
     1.0000   1.0000   1.0000   1.0000   1.0000   1.0000   1.0000   1.0000
     1.0000   1.0000   1.0000   1.0000   1.0000   1.0000   1.0000   1.0000
     1.0000   1.0000   1.0000   1.0000   1.0000   1.0000   1.0000   1.0000
     1.0000   1.0000   1.0000   1.0000   1.0000   1.0000   1.0000   1.0000
     1.0000   1.0000   1.0000   1.0000   1.0000   1.0000   1.0000   1.0000
     1.0000   1.0000   1.0000   1.0000   1.0000   1.0000   1.0000   1.0000
     1.0000   1.0000   1.0000   1.0000   1.0000   1.0000   1.0000   1.0000
     1.0000   1.0000   1.0000   1.0000   1.0000   1.0000   1.0000   1.0000
     1.0000   1.0000   1.0000   1.0000   1.0000   1.0000   1.0000   1.0000
     1.0000   1.0000   1.0000   1.0000   1.0000   1.0000   1.0000   1.0000
     1.0000   1.0000   1.0000   1.0000   1.0000   1.0000   1.0000   1.0000
     1.0000   1.0000   1.0000   1.0000   1.0000   1.0000   1.0000   1.0000
     1.0000   1.0000   1.0000   1.0000

          k = 0.0000 0.5774 0.3160 ( 11558 PWs)   bands (ev):

   -10.6765 -10.4527 -10.3690 -10.3690 -10.1827 -10.1082 -10.0256 -10.0256
   -10.0229  -9.9999  -9.9999  -9.9740   1.1967   1.1967   1.2963   1.3475
     1.3603   1.4782   1.4826   1.4826   1.5146   1.5307   1.5609   1.6185
     1.6588   1.7285   1.7466   1.7466   1.7530   1.7530   1.7669   1.7714
     1.8064   1.8292   1.8863   1.8863   1.9637   2.0183   2.0436   2.1084
     2.1084   2.1086   2.1086   2.1575   2.2017   2.2766   2.3679   2.3679
     2.6237   2.6389   2.6495   2.6495   2.6602   2.6800   2.7034   2.7424
     2.7511   2.7710   2.7710   2.8068   2.9061   2.9178   2.9230   2.9230
     2.9494   2.9522   2.9522   2.9566   3.0227   3.0338   3.0338   3.1457
     3.3700   3.5393   3.5987   3.6012   3.6012   3.6470   3.6491   3.6491
     3.9731   4.2084   4.2084   4.4124   4.7917   4.8675   4.8718   4.8912
     4.8912   5.3700   5.3700   5.3805   5.4494   5.4689   5.4689   5.5074
     5.8821   5.9081   6.0543   6.0832   6.4097   6.4097   6.4523   6.5021
     6.5021   6.5775   6.8622   6.9189

     occupation numbers 
     1.0000   1.0000   1.0000   1.0000   1.0000   1.0000   1.0000   1.0000
     1.0000   1.0000   1.0000   1.0000   1.0000   1.0000   1.0000   1.0000
     1.0000   1.0000   1.0000   1.0000   1.0000   1.0000   1.0000   1.0000
     1.0000   1.0000   1.0000   1.0000   1.0000   1.0000   1.0000   1.0000
     1.0000   1.0000   1.0000   1.0000   1.0000   1.0000   1.0000   1.0000
     1.0000   1.0000   1.0000   1.0000   1.0000   1.0000   1.0000   1.0000
     1.0000   1.0000   1.0000   1.0000   1.0000   1.0000   1.0000   1.0000
     1.0000   1.0000   1.0000   1.0000   1.0000   1.0000   1.0000   1.0000
     1.0000   1.0000   1.0000   1.0000   1.0000   1.0000   1.0000   1.0000
     1.0000   1.0000   1.0000   1.0000   1.0000   1.0000   1.0000   1.0000
     1.0000   1.0000   1.0000   1.0000   1.0000   1.0000   1.0000   1.0000
     1.0000   1.0000   1.0000   1.0000   1.0000   1.0000   1.0000   1.0000
     1.0000   1.0000   1.0000   1.0000   1.0000   1.0000   1.0000   1.0000
     1.0000   1.0000   1.0000   1.0000

          k = 0.0000 0.5774 0.6321 ( 11587 PWs)   bands (ev):

   -10.5589 -10.3608 -10.2887 -10.2887 -10.2306 -10.1338 -10.1123 -10.0752
   -10.0752 -10.0196 -10.0196 -10.0130   1.1255   1.1255   1.2084   1.2582
     1.2582   1.2621   1.2657   1.2935   1.3149   1.3560   1.5489   1.5489
     1.6001   1.6486   1.6491   1.7247   1.7367   1.7517   1.7693   1.7877
     1.8131   1.8131   1.8600   1.8600   1.8943   1.9289   1.9395   1.9627
     1.9627   1.9665   2.0160   2.0160   2.1038   2.1444   2.2810   2.2810
     2.6689   2.7285   2.7301   2.7365   2.7500   2.7500   2.7541   2.7620
     2.7859   2.8003   2.8003   2.8355   2.8717   2.8837   2.8862   2.8862
     2.8963   2.9518   2.9624   2.9624   2.9678   3.0919   3.1340   3.1340
     3.5229   3.5673   3.5673   3.8683   3.9064   3.9064   4.0220   4.1434
     4.2407   4.3307   4.3307   4.7398   4.7523   5.0174   5.1953   5.1953
     5.2580   5.3713   5.4146   5.5843   5.6262   5.6262   5.6500   5.8251
     5.8251   5.8421   6.1561   6.2189   6.2426   6.2754   6.2754   6.3029
     6.3029   6.4123   6.5934   6.7413

     occupation numbers 
     1.0000   1.0000   1.0000   1.0000   1.0000   1.0000   1.0000   1.0000
     1.0000   1.0000   1.0000   1.0000   1.0000   1.0000   1.0000   1.0000
     1.0000   1.0000   1.0000   1.0000   1.0000   1.0000   1.0000   1.0000
     1.0000   1.0000   1.0000   1.0000   1.0000   1.0000   1.0000   1.0000
     1.0000   1.0000   1.0000   1.0000   1.0000   1.0000   1.0000   1.0000
     1.0000   1.0000   1.0000   1.0000   1.0000   1.0000   1.0000   1.0000
     1.0000   1.0000   1.0000   1.0000   1.0000   1.0000   1.0000   1.0000
     1.0000   1.0000   1.0000   1.0000   1.0000   1.0000   1.0000   1.0000
     1.0000   1.0000   1.0000   1.0000   1.0000   1.0000   1.0000   1.0000
     1.0000   1.0000   1.0000   1.0000   1.0000   1.0000   1.0000   1.0000
     1.0000   1.0000   1.0000   1.0000   1.0000   1.0000   1.0000   1.0000
     1.0000   1.0000   1.0000   1.0000   1.0000   1.0000   1.0000   1.0000
     1.0000   1.0000   1.0000   1.0000   1.0000   1.0000   1.0000   1.0000
     1.0000   1.0000   1.0000   1.0000

          k = 0.0000 0.5774-0.9481 ( 11616 PWs)   bands (ev):

   -10.3960 -10.3960 -10.2359 -10.2359 -10.1807 -10.1807 -10.1807 -10.1807
   -10.0709 -10.0709 -10.0166 -10.0166   1.1217   1.1217   1.1217   1.1217
     1.1811   1.1811   1.2228   1.2228   1.2361   1.2361   1.4573   1.4573
     1.6793   1.6793   1.7020   1.7020   1.7434   1.7434   1.7435   1.7435
     1.8661   1.8661   1.8852   1.8852   1.8852   1.8852   1.8926   1.8926
     1.9066   1.9066   1.9066   1.9066   2.0748   2.0748   2.2577   2.2577
     2.7007   2.7007   2.8169   2.8169   2.8201   2.8201   2.8233   2.8233
     2.8237   2.8237   2.8416   2.8416   2.8416   2.8416   2.8599   2.8599
     2.8630   2.8630   2.8630   2.8630   3.0184   3.0184   3.2098   3.2098
     3.5230   3.5230   3.7008   3.7008   4.1483   4.1484   4.1484   4.1484
     4.4881   4.4881   4.5293   4.5293   4.9097   4.9097   5.1743   5.1743
     5.8134   5.8134   5.8502   5.8502   5.8502   5.8502   5.9567   5.9567
     5.9577   5.9577   5.9577   5.9577   5.9935   5.9935   5.9982   5.9982
     6.1892   6.1892   6.4945   6.4945

     occupation numbers 
     1.0000   1.0000   1.0000   1.0000   1.0000   1.0000   1.0000   1.0000
     1.0000   1.0000   1.0000   1.0000   1.0000   1.0000   1.0000   1.0000
     1.0000   1.0000   1.0000   1.0000   1.0000   1.0000   1.0000   1.0000
     1.0000   1.0000   1.0000   1.0000   1.0000   1.0000   1.0000   1.0000
     1.0000   1.0000   1.0000   1.0000   1.0000   1.0000   1.0000   1.0000
     1.0000   1.0000   1.0000   1.0000   1.0000   1.0000   1.0000   1.0000
     1.0000   1.0000   1.0000   1.0000   1.0000   1.0000   1.0000   1.0000
     1.0000   1.0000   1.0000   1.0000   1.0000   1.0000   1.0000   1.0000
     1.0000   1.0000   1.0000   1.0000   1.0000   1.0000   1.0000   1.0000
     1.0000   1.0000   1.0000   1.0000   1.0000   1.0000   1.0000   1.0000
     1.0000   1.0000   1.0000   1.0000   1.0000   1.0000   1.0000   1.0000
     1.0000   1.0000   1.0000   1.0000   1.0000   1.0000   1.0000   1.0000
     1.0000   1.0000   1.0000   1.0000   1.0000   1.0000   1.0000   1.0000
     1.0000   1.0000   1.0000   1.0000

          k = 0.0000-0.8660 0.0000 ( 11560 PWs)   bands (ev):

   -10.5669 -10.5669 -10.4633 -10.4633 -10.1043 -10.1043 -10.0125 -10.0125
    -9.9853  -9.9853  -9.9808  -9.9808   1.2796   1.2796   1.2815   1.2815
     1.4745   1.4745   1.5957   1.5957   1.6224   1.6224   1.6772   1.6773
     1.7030   1.7030   1.7464   1.7464   1.7884   1.7884   1.8532   1.8532
     1.9280   1.9280   1.9886   1.9886   2.0408   2.0408   2.0904   2.0904
     2.1064   2.1064   2.2198   2.2198   2.3639   2.3639   2.4667   2.4667
     2.5768   2.5768   2.5787   2.5787   2.6610   2.6610   2.6961   2.6961
     2.7071   2.7071   2.7243   2.7243   2.9280   2.9280   2.9334   2.9334
     2.9361   2.9361   2.9496   2.9496   3.0416   3.0416   3.0532   3.0532
     3.2216   3.2216   3.3150   3.3150   3.5054   3.5054   3.6335   3.6335
     3.9098   3.9098   4.3601   4.3601   4.6854   4.6854   4.8984   4.8984
     5.0542   5.0542   5.3718   5.3718   5.4752   5.4752   5.5724   5.5724
     5.6357   5.6357   5.7398   5.7398   6.5166   6.5166   6.5900   6.5900
     6.6923   6.6923   6.7895   6.7895

     occupation numbers 
     1.0000   1.0000   1.0000   1.0000   1.0000   1.0000   1.0000   1.0000
     1.0000   1.0000   1.0000   1.0000   1.0000   1.0000   1.0000   1.0000
     1.0000   1.0000   1.0000   1.0000   1.0000   1.0000   1.0000   1.0000
     1.0000   1.0000   1.0000   1.0000   1.0000   1.0000   1.0000   1.0000
     1.0000   1.0000   1.0000   1.0000   1.0000   1.0000   1.0000   1.0000
     1.0000   1.0000   1.0000   1.0000   1.0000   1.0000   1.0000   1.0000
     1.0000   1.0000   1.0000   1.0000   1.0000   1.0000   1.0000   1.0000
     1.0000   1.0000   1.0000   1.0000   1.0000   1.0000   1.0000   1.0000
     1.0000   1.0000   1.0000   1.0000   1.0000   1.0000   1.0000   1.0000
     1.0000   1.0000   1.0000   1.0000   1.0000   1.0000   1.0000   1.0000
     1.0000   1.0000   1.0000   1.0000   1.0000   1.0000   1.0000   1.0000
     1.0000   1.0000   1.0000   1.0000   1.0000   1.0000   1.0000   1.0000
     1.0000   1.0000   1.0000   1.0000   1.0000   1.0000   1.0000   1.0000
     1.0000   1.0000   1.0000   1.0000

          k = 0.0000-0.8660 0.3160 ( 11564 PWs)   bands (ev):

   -10.5299 -10.5299 -10.4307 -10.4306 -10.0932 -10.0932 -10.0495 -10.0495
   -10.0164 -10.0164  -9.9862  -9.9861   1.2416   1.2416   1.2467   1.2467
     1.4756   1.4756   1.5010   1.5010   1.5152   1.5152   1.6651   1.6651
     1.6915   1.6915   1.7131   1.7131   1.7616   1.7616   1.7967   1.7967
     1.8274   1.8274   1.9595   1.9595   1.9642   1.9642   2.0266   2.0266
     2.0462   2.0462   2.0608   2.0608   2.2900   2.2900   2.3455   2.3455
     2.6264   2.6264   2.6292   2.6292   2.6700   2.6700   2.7234   2.7234
     2.7498   2.7498   2.7741   2.7741   2.9141   2.9141   2.9194   2.9194
     2.9694   2.9694   2.9918   2.9918   3.0228   3.0228   3.0424   3.0424
     3.4718   3.4718   3.6112   3.6112   3.6410   3.6410   3.7686   3.7686
     3.9029   3.9029   4.4829   4.4829   4.7784   4.7784   5.0242   5.0242
     5.1162   5.1162   5.3739   5.3739   5.4237   5.4237   5.5375   5.5375
     5.7185   5.7185   5.7999   5.7999   6.4923   6.4923   6.5406   6.5406
     6.6656   6.6656   6.7160   6.7160

     occupation numbers 
     1.0000   1.0000   1.0000   1.0000   1.0000   1.0000   1.0000   1.0000
     1.0000   1.0000   1.0000   1.0000   1.0000   1.0000   1.0000   1.0000
     1.0000   1.0000   1.0000   1.0000   1.0000   1.0000   1.0000   1.0000
     1.0000   1.0000   1.0000   1.0000   1.0000   1.0000   1.0000   1.0000
     1.0000   1.0000   1.0000   1.0000   1.0000   1.0000   1.0000   1.0000
     1.0000   1.0000   1.0000   1.0000   1.0000   1.0000   1.0000   1.0000
     1.0000   1.0000   1.0000   1.0000   1.0000   1.0000   1.0000   1.0000
     1.0000   1.0000   1.0000   1.0000   1.0000   1.0000   1.0000   1.0000
     1.0000   1.0000   1.0000   1.0000   1.0000   1.0000   1.0000   1.0000
     1.0000   1.0000   1.0000   1.0000   1.0000   1.0000   1.0000   1.0000
     1.0000   1.0000   1.0000   1.0000   1.0000   1.0000   1.0000   1.0000
     1.0000   1.0000   1.0000   1.0000   1.0000   1.0000   1.0000   1.0000
     1.0000   1.0000   1.0000   1.0000   1.0000   1.0000   1.0000   1.0000
     1.0000   1.0000   1.0000   1.0000

          k = 0.0000-0.8660 0.6321 ( 11578 PWs)   bands (ev):

   -10.4285 -10.4285 -10.3417 -10.3417 -10.1508 -10.1508 -10.1021 -10.1021
   -10.0650 -10.0650 -10.0030 -10.0030   1.1665   1.1665   1.1755   1.1755
     1.2840   1.2840   1.2878   1.2878   1.4177   1.4177   1.4850   1.4850
     1.7047   1.7047   1.7343   1.7343   1.7431   1.7431   1.7501   1.7501
     1.8045   1.8045   1.8406   1.8406   1.8873   1.8873   1.9090   1.9090
     1.9361   1.9361   1.9764   1.9764   2.2055   2.2055   2.2239   2.2239
     2.7212   2.7212   2.7279   2.7279   2.7320   2.7320   2.7664   2.7664
     2.7782   2.7782   2.7888   2.7888   2.8762   2.8762   2.8840   2.8840
     2.9261   2.9261   2.9526   2.9526   3.0555   3.0555   3.1643   3.1643
     3.4687   3.4687   3.6978   3.6978   4.0787   4.0787   4.2006   4.2006
     4.2516   4.2516   4.5919   4.5919   4.8834   4.8834   5.1711   5.1711
     5.2334   5.2334   5.3844   5.3844   5.6360   5.6360   5.6432   5.6432
     5.9390   5.9390   6.0094   6.0094   6.2638   6.2638   6.3863   6.3863
     6.4322   6.4323   6.5130   6.5130

     occupation numbers 
     1.0000   1.0000   1.0000   1.0000   1.0000   1.0000   1.0000   1.0000
     1.0000   1.0000   1.0000   1.0000   1.0000   1.0000   1.0000   1.0000
     1.0000   1.0000   1.0000   1.0000   1.0000   1.0000   1.0000   1.0000
     1.0000   1.0000   1.0000   1.0000   1.0000   1.0000   1.0000   1.0000
     1.0000   1.0000   1.0000   1.0000   1.0000   1.0000   1.0000   1.0000
     1.0000   1.0000   1.0000   1.0000   1.0000   1.0000   1.0000   1.0000
     1.0000   1.0000   1.0000   1.0000   1.0000   1.0000   1.0000   1.0000
     1.0000   1.0000   1.0000   1.0000   1.0000   1.0000   1.0000   1.0000
     1.0000   1.0000   1.0000   1.0000   1.0000   1.0000   1.0000   1.0000
     1.0000   1.0000   1.0000   1.0000   1.0000   1.0000   1.0000   1.0000
     1.0000   1.0000   1.0000   1.0000   1.0000   1.0000   1.0000   1.0000
     1.0000   1.0000   1.0000   1.0000   1.0000   1.0000   1.0000   1.0000
     1.0000   1.0000   1.0000   1.0000   1.0000   1.0000   1.0000   1.0000
     1.0000   1.0000   1.0000   1.0000

          k = 0.0000-0.8660-0.9481 ( 11608 PWs)   bands (ev):

   -10.2896 -10.2896 -10.2896 -10.2896 -10.2211 -10.2211 -10.2211 -10.2211
   -10.0311 -10.0311 -10.0311 -10.0311   1.1549   1.1549   1.1549   1.1549
     1.1627   1.1627   1.1627   1.1627   1.3743   1.3743   1.3743   1.3743
     1.7710   1.7710   1.7710   1.7710   1.7927   1.7927   1.7927   1.7927
     1.7965   1.7965   1.7965   1.7965   1.8037   1.8037   1.8037   1.8037
     1.8947   1.8947   1.8947   1.8947   2.1848   2.1848   2.1848   2.1848
     2.7559   2.7559   2.7559   2.7559   2.8226   2.8226   2.8226   2.8226
     2.8280   2.8280   2.8280   2.8280   2.8350   2.8350   2.8350   2.8350
     2.8586   2.8586   2.8586   2.8586   3.1440   3.1440   3.1440   3.1440
     3.5681   3.5681   3.5681   3.5681   4.3814   4.3814   4.3814   4.3814
     4.6263   4.6263   4.6263   4.6263   4.7247   4.7247   4.7247   4.7247
     5.8285   5.8285   5.8285   5.8285   5.9169   5.9169   5.9169   5.9169
     5.9869   5.9869   5.9869   5.9869   6.0112   6.0112   6.0112   6.0112
     6.2303   6.2303   6.2303   6.2303

     occupation numbers 
     1.0000   1.0000   1.0000   1.0000   1.0000   1.0000   1.0000   1.0000
     1.0000   1.0000   1.0000   1.0000   1.0000   1.0000   1.0000   1.0000
     1.0000   1.0000   1.0000   1.0000   1.0000   1.0000   1.0000   1.0000
     1.0000   1.0000   1.0000   1.0000   1.0000   1.0000   1.0000   1.0000
     1.0000   1.0000   1.0000   1.0000   1.0000   1.0000   1.0000   1.0000
     1.0000   1.0000   1.0000   1.0000   1.0000   1.0000   1.0000   1.0000
     1.0000   1.0000   1.0000   1.0000   1.0000   1.0000   1.0000   1.0000
     1.0000   1.0000   1.0000   1.0000   1.0000   1.0000   1.0000   1.0000
     1.0000   1.0000   1.0000   1.0000   1.0000   1.0000   1.0000   1.0000
     1.0000   1.0000   1.0000   1.0000   1.0000   1.0000   1.0000   1.0000
     1.0000   1.0000   1.0000   1.0000   1.0000   1.0000   1.0000   1.0000
     1.0000   1.0000   1.0000   1.0000   1.0000   1.0000   1.0000   1.0000
     1.0000   1.0000   1.0000   1.0000   1.0000   1.0000   1.0000   1.0000
     1.0000   1.0000   1.0000   1.0000

          k = 0.1667 0.0962 0.0000 ( 11546 PWs)   bands (ev):

   -10.8445 -10.5108 -10.2974 -10.2034 -10.1977 -10.1946 -10.1123  -9.9970
    -9.9641  -9.9624  -9.9613  -9.9592   1.2459   1.2575   1.3110   1.3431
     1.4722   1.5083   1.5411   1.5555   1.5640   1.5799   1.5914   1.6122
     1.6332   1.6483   1.6981   1.7355   1.7485   1.7506   1.7556   1.7648
[...]
     atom   14 type  1   force =    -0.00000161    0.00000073   -0.06327132
     atom   15 type  2   force =    -0.00000469   -0.00000303   -0.04263109
     atom   16 type  2   force =     0.00000432    0.00000233   -0.04263111
     atom   17 type  1   force =     0.00000094    0.00000009   -0.06327083
     atom   18 type  1   force =    -0.00000293   -0.00000187   -0.06327155
     atom   19 type  2   force =    -0.00000400   -0.00000257   -0.04263124
     atom   20 type  2   force =     0.00000473    0.00000282   -0.04263106
     atom   21 type  1   force =     0.00000087    0.00000118   -0.06327096
     atom   22 type  1   force =    -0.00000236   -0.00000131   -0.06327097
     atom   23 type  2   force =    -0.00000435   -0.00000241   -0.04263111
     atom   24 type  2   force =     0.00000443    0.00000280   -0.04263101
     The ionic contribution  to forces
     atom    1 type  1   force =     0.00000001    0.00000001   -0.35823079
     atom    2 type  1   force =     0.00000001    0.00000000   -0.35823079
     atom    3 type  2   force =     0.00000000    0.00000000    0.35823079
     atom    4 type  2   force =     0.00000000    0.00000000    0.35823079
     atom    5 type  1   force =     0.00000001    0.00000001   -0.35823079
     atom    6 type  1   force =     0.00000001    0.00000000   -0.35823079
     atom    7 type  2   force =     0.00000000    0.00000000    0.35823079
     atom    8 type  2   force =     0.00000000    0.00000000    0.35823079
     atom    9 type  1   force =    -0.00000001    0.00000000   -0.35823079
     atom   10 type  1   force =     0.00000001   -0.00000000   -0.35823079
     atom   11 type  2   force =    -0.00000001    0.00000000    0.35823079
     atom   12 type  2   force =     0.00000001   -0.00000000    0.35823079
     atom   13 type  1   force =    -0.00000001    0.00000000   -0.35823079
     atom   14 type  1   force =     0.00000001   -0.00000000   -0.35823079
     atom   15 type  2   force =    -0.00000001    0.00000000    0.35823079
     atom   16 type  2   force =     0.00000001   -0.00000000    0.35823079
     atom   17 type  1   force =    -0.00000001   -0.00000000   -0.35823079
     atom   18 type  1   force =    -0.00000001   -0.00000001   -0.35823079
     atom   19 type  2   force =    -0.00000000   -0.00000000    0.35823079
     atom   20 type  2   force =    -0.00000000   -0.00000000    0.35823079
     atom   21 type  1   force =    -0.00000001   -0.00000000   -0.35823079
     atom   22 type  1   force =    -0.00000001   -0.00000001   -0.35823079
     atom   23 type  2   force =    -0.00000000   -0.00000000    0.35823079
     atom   24 type  2   force =    -0.00000000   -0.00000000    0.35823079
     The local contribution  to forces
     atom    1 type  1   force =    -0.00000224    0.00000258    0.40920156
     atom    2 type  1   force =     0.00000438    0.00000050    0.40920383
     atom    3 type  2   force =     0.00000389    0.00000409   -0.30848233
     atom    4 type  2   force =    -0.00000287   -0.00000204   -0.30848286
     atom    5 type  1   force =     0.00000000   -0.00000422    0.40920027
     atom    6 type  1   force =     0.00000083    0.00000291    0.40920274
     atom    7 type  2   force =     0.00000516    0.00000122   -0.30848263
     atom    8 type  2   force =    -0.00000413   -0.00000219   -0.30848303
     atom    9 type  1   force =    -0.00000373   -0.00000098    0.40919893
     atom   10 type  1   force =    -0.00000561    0.00000282    0.40920374
     atom   11 type  2   force =     0.00000332    0.00000246   -0.30848287
     atom   12 type  2   force =    -0.00000701   -0.00000250   -0.30848302
     atom   13 type  1   force =    -0.00000618   -0.00000512    0.40920271
     atom   14 type  1   force =     0.00000142   -0.00000518    0.40920383
     atom   15 type  2   force =     0.00000258    0.00000129   -0.30848258
     atom   16 type  2   force =    -0.00000517   -0.00000466   -0.30848295
     atom   17 type  1   force =     0.00000175    0.00000330    0.40920164
     atom   18 type  1   force =     0.00000538    0.00000332    0.40920450
     atom   19 type  2   force =     0.00000595    0.00000371   -0.30848250
     atom   20 type  2   force =    -0.00000326   -0.00000200   -0.30848319
     atom   21 type  1   force =     0.00000188   -0.00000154    0.40920218
     atom   22 type  1   force =     0.00000180    0.00000126    0.40920122
     atom   23 type  2   force =     0.00000592    0.00000296   -0.30848269
     atom   24 type  2   force =    -0.00000381   -0.00000231   -0.30848332
     The core correction contribution to forces
     atom    1 type  1   force =    -0.00000024   -0.00000019    0.00487798
     atom    2 type  1   force =     0.00000021    0.00000018    0.00487793
     atom    3 type  2   force =     0.00000005    0.00000003    0.00030282
     atom    4 type  2   force =    -0.00000005   -0.00000003    0.00030282
     atom    5 type  1   force =    -0.00000026   -0.00000010    0.00487803
     atom    6 type  1   force =     0.00000025    0.00000010    0.00487799
     atom    7 type  2   force =     0.00000005    0.00000003    0.00030282
     atom    8 type  2   force =    -0.00000005   -0.00000003    0.00030282
     atom    9 type  1   force =    -0.00000023   -0.00000017    0.00487809
     atom   10 type  1   force =     0.00000036    0.00000012    0.00487793
     atom   11 type  2   force =     0.00000005    0.00000003    0.00030281
     atom   12 type  2   force =    -0.00000004   -0.00000003    0.00030282
     atom   13 type  1   force =    -0.00000021   -0.00000009    0.00487797
     atom   14 type  1   force =     0.00000024    0.00000022    0.00487795
     atom   15 type  2   force =     0.00000005    0.00000003    0.00030282
     atom   16 type  2   force =    -0.00000004   -0.00000003    0.00030282
     atom   17 type  1   force =    -0.00000030   -0.00000024    0.00487800
     atom   18 type  1   force =     0.00000020    0.00000012    0.00487795
     atom   19 type  2   force =     0.00000004    0.00000003    0.00030282
     atom   20 type  2   force =    -0.00000005   -0.00000003    0.00030282
     atom   21 type  1   force =    -0.00000031   -0.00000012    0.00487799
     atom   22 type  1   force =     0.00000028    0.00000016    0.00487804
     atom   23 type  2   force =     0.00000005    0.00000002    0.00030282
     atom   24 type  2   force =    -0.00000005   -0.00000003    0.00030281
     The Hubbard contrib.    to forces
     atom    1 type  1   force =     0.00000000    0.00000000    0.00000000
     atom    2 type  1   force =     0.00000000    0.00000000    0.00000000
     atom    3 type  2   force =     0.00000000    0.00000000    0.00000000
     atom    4 type  2   force =     0.00000000    0.00000000    0.00000000
     atom    5 type  1   force =     0.00000000    0.00000000    0.00000000
     atom    6 type  1   force =     0.00000000    0.00000000    0.00000000
     atom    7 type  2   force =     0.00000000    0.00000000    0.00000000
     atom    8 type  2   force =     0.00000000    0.00000000    0.00000000
     atom    9 type  1   force =     0.00000000    0.00000000    0.00000000
     atom   10 type  1   force =     0.00000000    0.00000000    0.00000000
     atom   11 type  2   force =     0.00000000    0.00000000    0.00000000
     atom   12 type  2   force =     0.00000000    0.00000000    0.00000000
     atom   13 type  1   force =     0.00000000    0.00000000    0.00000000
     atom   14 type  1   force =     0.00000000    0.00000000    0.00000000
     atom   15 type  2   force =     0.00000000    0.00000000    0.00000000
     atom   16 type  2   force =     0.00000000    0.00000000    0.00000000
     atom   17 type  1   force =     0.00000000    0.00000000    0.00000000
     atom   18 type  1   force =     0.00000000    0.00000000    0.00000000
     atom   19 type  2   force =     0.00000000    0.00000000    0.00000000
     atom   20 type  2   force =     0.00000000    0.00000000    0.00000000
     atom   21 type  1   force =     0.00000000    0.00000000    0.00000000
     atom   22 type  1   force =     0.00000000    0.00000000    0.00000000
     atom   23 type  2   force =     0.00000000    0.00000000    0.00000000
     atom   24 type  2   force =     0.00000000    0.00000000    0.00000000
     The SCF correction term to forces
     atom    1 type  1   force =     0.00000097   -0.00000463    0.00000020
     atom    2 type  1   force =    -0.00000387    0.00000047   -0.00000293
     atom    3 type  2   force =     0.00000066   -0.00000163   -0.00000048
     atom    4 type  2   force =    -0.00000196   -0.00000080    0.00000012
     atom    5 type  1   force =    -0.00000176    0.00000486    0.00000229
     atom    6 type  1   force =     0.00000072   -0.00000325   -0.00000140
     atom    7 type  2   force =    -0.00000081    0.00000186   -0.00000028
     atom    8 type  2   force =    -0.00000048   -0.00000075    0.00000023
     atom    9 type  1   force =     0.00000312    0.00000023    0.00000439
     atom   10 type  1   force =     0.00000993   -0.00000259   -0.00000228
     atom   11 type  2   force =     0.00000147    0.00000036   -0.00000009
     atom   12 type  2   force =     0.00000323   -0.00000027    0.00000013
     atom   13 type  1   force =     0.00000646    0.00000615   -0.00000117
     atom   14 type  1   force =    -0.00000028    0.00000836   -0.00000253
     atom   15 type  2   force =     0.00000227    0.00000180   -0.00000036
     atom   16 type  2   force =     0.00000095    0.00000246    0.00000007
     atom   17 type  1   force =    -0.00000448   -0.00000568    0.00000043
     atom   18 type  1   force =    -0.00000555   -0.00000336   -0.00000369
     atom   19 type  2   force =    -0.00000199   -0.00000120   -0.00000029
     atom   20 type  2   force =    -0.00000152   -0.00000095    0.00000034
     atom   21 type  1   force =    -0.00000444    0.00000099   -0.00000018
     atom   22 type  1   force =     0.00000021   -0.00000076    0.00000099
     atom   23 type  2   force =    -0.00000171   -0.00000050   -0.00000020
     atom   24 type  2   force =    -0.00000069   -0.00000055    0.00000044

     Total force =     0.036354     Total SCF correction =     0.000024

     init_run     :     23.16s CPU     23.82s WALL (       1 calls)
     electrons    :   1573.42s CPU   1614.50s WALL (       1 calls)
     forces       :     11.19s CPU     11.28s WALL (       1 calls)

     Called by init_run:
     wfcinit      :     12.84s CPU     13.36s WALL (       1 calls)
     wfcinit:atom :      0.06s CPU      0.06s WALL (       7 calls)
     wfcinit:wfcr :     12.16s CPU     12.65s WALL (       7 calls)
     potinit      :      3.65s CPU      3.71s WALL (       1 calls)
     hinit0       :      5.69s CPU      5.72s WALL (       1 calls)

     Called by electrons:
     c_bands      :   1431.91s CPU   1467.60s WALL (      29 calls)
     sum_band     :    116.86s CPU    121.53s WALL (      29 calls)
     v_of_rho     :     17.35s CPU     17.81s WALL (      30 calls)
     v_h          :      0.85s CPU      0.90s WALL (      30 calls)
     v_xc         :     17.04s CPU     17.47s WALL (      31 calls)
     newd         :      4.76s CPU      4.85s WALL (      30 calls)
     mix_rho      :      0.90s CPU      0.96s WALL (      29 calls)

     Called by c_bands:
     init_us_2    :      8.06s CPU      8.19s WALL (     420 calls)
     init_us_2:cp :      8.06s CPU      8.19s WALL (     420 calls)
     cegterg      :   1283.36s CPU   1318.32s WALL (     203 calls)

     Called by sum_band:
     sum_band:wei :      0.05s CPU      0.06s WALL (      29 calls)
     sum_band:loo :    103.61s CPU    107.73s WALL (      29 calls)
     sum_band:buf :      0.74s CPU      0.81s WALL (     203 calls)
     sum_band:ini :      3.18s CPU      3.22s WALL (     203 calls)
     sum_band:cal :     24.56s CPU     24.84s WALL (     203 calls)
     sum_band:bec :      0.17s CPU      0.17s WALL (     203 calls)
     addusdens    :      4.23s CPU      4.41s WALL (      29 calls)
     addusd:skk   :      0.10s CPU      0.10s WALL (      58 calls)
     addusd:dgemm :      0.83s CPU      0.85s WALL (      58 calls)
     addusd:qvan2 :      2.80s CPU      2.82s WALL (      58 calls)

     Called by *egterg:
     cdiaghg      :     71.93s CPU     73.92s WALL (    1650 calls)
     cegterg:over :    115.16s CPU    116.02s WALL (    1447 calls)
     cegterg:upda :     69.16s CPU     69.77s WALL (    1447 calls)
     cegterg:last :    162.90s CPU    164.28s WALL (     845 calls)
     cdiaghg:chol :      4.37s CPU      4.42s WALL (    1650 calls)
     cdiaghg:inve :      1.13s CPU      1.14s WALL (    1650 calls)
     cdiaghg:para :     13.27s CPU     14.65s WALL (    3300 calls)
     h_psi        :    756.66s CPU    786.38s WALL (    1657 calls)
     s_psi        :     90.24s CPU     90.78s WALL (    1657 calls)
     g_psi        :      2.68s CPU      2.71s WALL (    1447 calls)

     Called by h_psi:
     h_psi:calbec :    105.96s CPU    107.21s WALL (    1657 calls)
     vloc_psi     :    555.76s CPU    583.69s WALL (    1657 calls)
     add_vuspsi   :     92.49s CPU     92.98s WALL (    1657 calls)

     General routines
     calbec       :    134.13s CPU    135.70s WALL (    1888 calls)
     fft          :     14.72s CPU     15.34s WALL (     399 calls)
     ffts         :      0.85s CPU      0.88s WALL (      59 calls)
     fftw         :    497.05s CPU    524.09s WALL (  201858 calls)
     interpolate  :      1.53s CPU      1.59s WALL (      30 calls)

     Parallel routines

     PWSCF        :  26m48.61s CPU  27m30.48s WALL


   This run was terminated on:  18:47:12   2Sep2025            

=------------------------------------------------------------------------------=
   JOB DONE.
=------------------------------------------------------------------------------=
Note: The following floating-point exceptions are signalling: IEEE_UNDERFLOW_FLAG IEEE_DENORMAL
Note: The following floating-point exceptions are signalling: IEEE_UNDERFLOW_FLAG IEEE_DENORMAL
Note: The following floating-point exceptions are signalling: IEEE_UNDERFLOW_FLAG IEEE_DENORMAL
Note: The following floating-point exceptions are signalling: IEEE_UNDERFLOW_FLAG IEEE_DENORMAL
Note: The following floating-point exceptions are signalling: IEEE_UNDERFLOW_FLAG IEEE_DENORMAL
Note: The following floating-point exceptions are signalling: IEEE_UNDERFLOW_FLAG IEEE_DENORMAL
Note: The following floating-point exceptions are signalling: IEEE_UNDERFLOW_FLAG IEEE_DENORMAL
Note: The following floating-point exceptions are signalling: IEEE_UNDERFLOW_FLAG IEEE_DENORMAL
Note: The following floating-point exceptions are signalling: IEEE_UNDERFLOW_FLAG IEEE_DENORMAL
Note: The following floating-point exceptions are signalling: IEEE_UNDERFLOW_FLAG IEEE_DENORMAL
Note: The following floating-point exceptions are signalling: IEEE_UNDERFLOW_FLAG IEEE_DENORMAL
Note: The following floating-point exceptions are signalling: IEEE_UNDERFLOW_FLAG IEEE_DENORMAL
Note: The following floating-point exceptions are signalling: IEEE_UNDERFLOW_FLAG IEEE_DENORMAL
Note: The following floating-point exceptions are signalling: IEEE_UNDERFLOW_FLAG IEEE_DENORMAL
Note: The following floating-point exceptions are signalling: IEEE_UNDERFLOW_FLAG IEEE_DENORMAL
Note: The following floating-point exceptions are signalling: IEEE_UNDERFLOW_FLAG IEEE_DENORMAL
Note: The following floating-point exceptions are signalling: IEEE_UNDERFLOW_FLAG IEEE_DENORMAL
Note: The following floating-point exceptions are signalling: IEEE_UNDERFLOW_FLAG IEEE_DENORMAL
Note: The following floating-point exceptions are signalling: IEEE_UNDERFLOW_FLAG IEEE_DENORMAL
Note: The following floating-point exceptions are signalling: IEEE_UNDERFLOW_FLAG IEEE_DENORMAL
Note: The following floating-point exceptions are signalling: IEEE_UNDERFLOW_FLAG IEEE_DENORMAL
Note: The following floating-point exceptions are signalling: IEEE_UNDERFLOW_FLAG IEEE_DENORMAL
Note: The following floating-point exceptions are signalling: IEEE_UNDERFLOW_FLAG IEEE_DENORMAL
Note: The following floating-point exceptions are signalling: IEEE_UNDERFLOW_FLAG IEEE_DENORMAL
Note: The following floating-point exceptions are signalling: IEEE_UNDERFLOW_FLAG IEEE_DENORMAL
Note: The following floating-point exceptions are signalling: IEEE_UNDERFLOW_FLAG IEEE_DENORMAL
Note: The following floating-point exceptions are signalling: IEEE_UNDERFLOW_FLAG IEEE_DENORMAL
Note: The following floating-point exceptions are signalling: IEEE_UNDERFLOW_FLAG IEEE_DENORMAL
Note: The following floating-point exceptions are signalling: IEEE_UNDERFLOW_FLAG IEEE_DENORMAL
Note: The following floating-point exceptions are signalling: IEEE_UNDERFLOW_FLAG IEEE_DENORMAL
Note: The following floating-point exceptions are signalling: IEEE_UNDERFLOW_FLAG IEEE_DENORMAL
Note: The following floating-point exceptions are signalling: IEEE_UNDERFLOW_FLAG IEEE_DENORMAL
Note: The following floating-point exceptions are signalling: IEEE_UNDERFLOW_FLAG IEEE_DENORMAL
Note: The following floating-point exceptions are signalling: IEEE_UNDERFLOW_FLAG IEEE_DENORMAL
Note: The following floating-point exceptions are signalling: IEEE_UNDERFLOW_FLAG IEEE_DENORMAL
Note: The following floating-point exceptions are signalling: IEEE_UNDERFLOW_FLAG IEEE_DENORMAL
Note: The following floating-point exceptions are signalling: IEEE_UNDERFLOW_FLAG IEEE_DENORMAL
Note: The following floating-point exceptions are signalling: IEEE_UNDERFLOW_FLAG IEEE_DENORMAL
Note: The following floating-point exceptions are signalling: IEEE_UNDERFLOW_FLAG IEEE_DENORMAL
Note: The following floating-point exceptions are signalling: IEEE_UNDERFLOW_FLAG IEEE_DENORMAL
Note: The following floating-point exceptions are signalling: IEEE_UNDERFLOW_FLAG IEEE_DENORMAL
Note: The following floating-point exceptions are signalling: IEEE_UNDERFLOW_FLAG IEEE_DENORMAL
Note: The following floating-point exceptions are signalling: IEEE_UNDERFLOW_FLAG IEEE_DENORMAL
Note: The following floating-point exceptions are signalling: IEEE_UNDERFLOW_FLAG IEEE_DENORMAL
Note: The following floating-point exceptions are signalling: IEEE_UNDERFLOW_FLAG IEEE_DENORMAL
Note: The following floating-point exceptions are signalling: IEEE_UNDERFLOW_FLAG IEEE_DENORMAL
Note: The following floating-point exceptions are signalling: IEEE_UNDERFLOW_FLAG IEEE_DENORMAL
Note: The following floating-point exceptions are signalling: IEEE_UNDERFLOW_FLAG IEEE_DENORMAL
Note: The following floating-point exceptions are signalling: IEEE_UNDERFLOW_FLAG IEEE_DENORMAL
Note: The following floating-point exceptions are signalling: IEEE_UNDERFLOW_FLAG IEEE_DENORMAL
Note: The following floating-point exceptions are signalling: IEEE_UNDERFLOW_FLAG IEEE_DENORMAL
Note: The following floating-point exceptions are signalling: IEEE_UNDERFLOW_FLAG IEEE_DENORMAL
Note: The following floating-point exceptions are signalling: IEEE_UNDERFLOW_FLAG IEEE_DENORMAL
Note: The following floating-point exceptions are signalling: IEEE_UNDERFLOW_FLAG IEEE_DENORMAL
Note: The following floating-point exceptions are signalling: IEEE_UNDERFLOW_FLAG IEEE_DENORMAL
Note: The following floating-point exceptions are signalling: IEEE_UNDERFLOW_FLAG IEEE_DENORMAL
Note: The following floating-point exceptions are signalling: IEEE_UNDERFLOW_FLAG IEEE_DENORMAL
Note: The following floating-point exceptions are signalling: IEEE_UNDERFLOW_FLAG IEEE_DENORMAL
Note: The following floating-point exceptions are signalling: IEEE_UNDERFLOW_FLAG IEEE_DENORMAL
Note: The following floating-point exceptions are signalling: IEEE_UNDERFLOW_FLAG IEEE_DENORMAL
Note: The following floating-point exceptions are signalling: IEEE_UNDERFLOW_FLAG IEEE_DENORMAL
Note: The following floating-point exceptions are signalling: IEEE_UNDERFLOW_FLAG IEEE_DENORMAL
Note: The following floating-point exceptions are signalling: IEEE_UNDERFLOW_FLAG IEEE_DENORMAL
Note: The following floating-point exceptions are signalling: IEEE_UNDERFLOW_FLAG IEEE_DENORMAL
