Authorization required, but no authorization protocol specified

Authorization required, but no authorization protocol specified

Authorization required, but no authorization protocol specified

Authorization required, but no authorization protocol specified

Authorization required, but no authorization protocol specified

Authorization required, but no authorization protocol specified

Authorization required, but no authorization protocol specified

Authorization required, but no authorization protocol specified

Authorization required, but no authorization protocol specified

Authorization required, but no authorization protocol specified


     Program PWSCF v.7.2 starts on 14Jul2025 at  0:58:21 

     This program is part of the open-source Quantum ESPRESSO suite
     for quantum simulation of materials; please cite
         "P. Giannozzi et al., J. Phys.:Condens. Matter 21 395502 (2009);
         "P. Giannozzi et al., J. Phys.:Condens. Matter 29 465901 (2017);
         "P. Giannozzi et al., J. Chem. Phys. 152 154105 (2020);
          URL http://www.quantum-espresso.org", 
     in publications or presentations arising from this work. More details at
     http://www.quantum-espresso.org/quote

     Parallel version (MPI), running on     8 processors

     MPI processes distributed on     1 nodes
     56787 MiB available memory on the printing compute node when the environment starts

     Reading input from /home/jvc/QEspresso7.2/ZnO_database/scripts/cell121.in/ZnO-3.60-1.78-121.in
Warning: card &CELL ignored
Warning: card / ignored
Warning: card &FCP ignored
Warning: card / ignored
Warning: card &RISM ignored
Warning: card / ignored

     Current dimensions of program PWSCF are:
     Max number of different atomic species (ntypx) = 10
     Max number of k-points (npk) =  40000
     Max angular momentum in pseudopotentials (lmaxx) =  4
     file Zn.upf: wavefunction(s)  3D renormalized
     Found identity + (  0.0000 -0.5000  0.0000) symmetry
     This is a supercell, fractional translations are disabled
     Message from routine setup:
     using ibrav=0 with symmetry is DISCOURAGED, use correct ibrav instead

     K-points division:     npool     =       2
     R & G space division:  proc/nbgrp/npool/nimage =       4
     Subspace diagonalization in iterative solution of the eigenvalue problem:
     a serial algorithm will be used


     Parallelization info
     --------------------
     sticks:   dense  smooth     PW     G-vecs:    dense   smooth      PW
     Min         638     319     97                32617    11518    1949
     Max         641     320     98                32618    11520    1952
     Sum        2557    1279    389               130469    46077    7799

     Using Slab Decomposition



     bravais-lattice index     =            0
     lattice parameter (alat)  =       6.7967  a.u.
     unit-cell volume          =     965.7286 (a.u.)^3
     number of atoms/cell      =            8
     number of atomic types    =            2
     number of electrons       =        72.00
     number of Kohn-Sham states=           36
     kinetic-energy cutoff     =      50.0000  Ry
     charge density cutoff     =     400.0000  Ry
     scf convergence threshold =      1.0E-08
     mixing beta               =       0.3000
     number of iterations used =            8  plain     mixing
     Exchange-correlation= PBE
                           (   1   4   3   4   0   0   0)

     celldm(1)=   6.796739  celldm(2)=   0.000000  celldm(3)=   0.000000
     celldm(4)=   0.000000  celldm(5)=   0.000000  celldm(6)=   0.000000

     crystal axes: (cart. coord. in units of alat)
               a(1) = (   1.000000   0.000000   0.000000 )  
               a(2) = (  -1.000000   1.732051   0.000000 )  
               a(3) = (   0.000000   0.000000   1.775794 )  

     reciprocal axes: (cart. coord. in units 2 pi/alat)
               b(1) = (  1.000000  0.577350 -0.000000 )  
               b(2) = (  0.000000  0.577350  0.000000 )  
               b(3) = (  0.000000 -0.000000  0.563128 )  


     PseudoPot. # 1 for Zn read from file:
     /home/jvc/QEspresso7.2/ZnO_database/pseudos/Zn.upf
     MD5 check sum: 7f56cabf9682ed8c977c2f7d0c5985c5
     Pseudo is Ultrasoft + core correction, Zval = 12.0
     Generated using &quot;atomic&quot; code by A. Dal Corso  v.6.2.2
     Using radial grid of 1201 points,  6 beta functions with: 
                l(1) =   0
                l(2) =   0
                l(3) =   1
                l(4) =   1
                l(5) =   2
                l(6) =   2
     Q(r) pseudized with 0 coefficients 


     PseudoPot. # 2 for O  read from file:
     /home/jvc/QEspresso7.2/ZnO_database/pseudos/O.upf
     MD5 check sum: 91400c9766925bcf19f520983a725ff0
     Pseudo is Ultrasoft + core correction, Zval =  6.0
     Generated using &quot;atomic&quot; code by A. Dal Corso  v.6.3MaX
     Using radial grid of 1095 points,  4 beta functions with: 
                l(1) =   0
                l(2) =   0
                l(3) =   1
                l(4) =   1
     Q(r) pseudized with 0 coefficients 


     atomic species   valence    mass     pseudopotential
        Zn            12.00    65.38000     Zn( 1.00)
        O              6.00    15.99900     O ( 1.00)

      2 Sym. Ops. (no inversion) found


                                    s                        frac. trans.

      isym =  1     identity                                     

 cryst.   s( 1) = (     1          0          0      )
                  (     0          1          0      )
                  (     0          0          1      )

 cart.    s( 1) = (  1.0000000  0.0000000  0.0000000 )
                  (  0.0000000  1.0000000  0.0000000 )
                  (  0.0000000  0.0000000  1.0000000 )


      isym =  2     inv. 180 deg rotation - cart. axis [1,0,0]   

 cryst.   s( 2) = (    -1          0          0      )
                  (     2          1          0      )
                  (     0          0          1      )

 cart.    s( 2) = ( -1.0000000  0.0000000  0.0000000 )
                  (  0.0000000  1.0000000  0.0000000 )
                  (  0.0000000  0.0000000  1.0000000 )


   Cartesian axes

     site n.     atom                  positions (alat units)
         1           Zn  tau(   1) = (   0.0000000   0.0000000   0.0000000  )
         2           O   tau(   2) = (   0.0000000   0.5773503   0.2562391  )
         3           Zn  tau(   3) = (   0.0000000   0.5773503   0.8878971  )
         4           O   tau(   4) = (   0.0000000   0.0000000   1.1441362  )
         5           Zn  tau(   5) = (  -0.5000000   0.8660254   0.0000000  )
         6           O   tau(   6) = (  -0.5000000   1.4433757   0.2562391  )
         7           Zn  tau(   7) = (  -0.5000000   1.4433757   0.8878971  )
         8           O   tau(   8) = (  -0.5000000   0.8660254   1.1441362  )

   Crystallographic axes

     site n.     atom                  positions (cryst. coord.)
         1           Zn  tau(   1) = (  0.0000000  0.0000000  0.0000000  )
         2           O   tau(   2) = (  0.3333333  0.3333333  0.1442955  )
         3           Zn  tau(   3) = (  0.3333333  0.3333333  0.5000000  )
         4           O   tau(   4) = (  0.0000000  0.0000000  0.6442955  )
         5           Zn  tau(   5) = (  0.0000000  0.5000000  0.0000000  )
         6           O   tau(   6) = (  0.3333333  0.8333333  0.1442955  )
         7           Zn  tau(   7) = (  0.3333333  0.8333333  0.5000000  )
         8           O   tau(   8) = (  0.0000000  0.5000000  0.6442955  )

     number of k points=    80
                       cart. coord. in units 2pi/alat
        k(    1) = (   0.0000000   0.0000000   0.0000000), wk =   0.0092593
        k(    2) = (   0.0000000   0.0000000   0.0938547), wk =   0.0185185
        k(    3) = (   0.0000000   0.0000000   0.1877094), wk =   0.0185185
        k(    4) = (   0.0000000   0.0000000  -0.2815642), wk =   0.0092593
        k(    5) = (   0.0000000   0.0962250   0.0000000), wk =   0.0185185
        k(    6) = (   0.0000000   0.0962250   0.0938547), wk =   0.0185185
        k(    7) = (   0.0000000   0.0962250   0.1877094), wk =   0.0185185
        k(    8) = (   0.0000000   0.0962250  -0.2815642), wk =   0.0185185
        k(    9) = (   0.0000000   0.1924501   0.0000000), wk =   0.0185185
        k(   10) = (   0.0000000   0.1924501   0.0938547), wk =   0.0185185
        k(   11) = (   0.0000000   0.1924501   0.1877094), wk =   0.0185185
        k(   12) = (   0.0000000   0.1924501  -0.2815642), wk =   0.0185185
        k(   13) = (   0.0000000  -0.2886751   0.0000000), wk =   0.0092593
        k(   14) = (   0.0000000  -0.2886751   0.0938547), wk =   0.0185185
        k(   15) = (   0.0000000  -0.2886751   0.1877094), wk =   0.0185185
        k(   16) = (   0.0000000  -0.2886751  -0.2815642), wk =   0.0092593
        k(   17) = (   0.1666667   0.0962250   0.0000000), wk =   0.0370370
        k(   18) = (   0.1666667   0.0962250   0.0938547), wk =   0.0370370
        k(   19) = (   0.1666667   0.0962250   0.1877094), wk =   0.0370370
        k(   20) = (   0.1666667   0.0962250  -0.2815642), wk =   0.0370370
        k(   21) = (   0.1666667   0.1924501   0.0000000), wk =   0.0370370
        k(   22) = (   0.1666667   0.1924501   0.0938547), wk =   0.0370370
        k(   23) = (   0.1666667   0.1924501   0.1877094), wk =   0.0370370
        k(   24) = (   0.1666667   0.1924501  -0.2815642), wk =   0.0370370
        k(   25) = (   0.1666667   0.2886751   0.0000000), wk =   0.0185185
        k(   26) = (   0.1666667   0.2886751   0.0938547), wk =   0.0370370
        k(   27) = (   0.1666667   0.2886751   0.1877094), wk =   0.0370370
        k(   28) = (   0.1666667   0.2886751  -0.2815642), wk =   0.0185185
        k(   29) = (   0.1666667   0.0000000   0.0000000), wk =   0.0185185
        k(   30) = (   0.1666667   0.0000000   0.0938547), wk =   0.0370370
        k(   31) = (   0.1666667   0.0000000   0.1877094), wk =   0.0370370
        k(   32) = (   0.1666667   0.0000000  -0.2815642), wk =   0.0185185
        k(   33) = (   0.3333333   0.1924501   0.0000000), wk =   0.0370370
        k(   34) = (   0.3333333   0.1924501   0.0938547), wk =   0.0370370
        k(   35) = (   0.3333333   0.1924501   0.1877094), wk =   0.0370370
        k(   36) = (   0.3333333   0.1924501  -0.2815642), wk =   0.0370370
        k(   37) = (   0.3333333   0.2886751   0.0000000), wk =   0.0185185
        k(   38) = (   0.3333333   0.2886751   0.0938547), wk =   0.0370370
        k(   39) = (   0.3333333   0.2886751   0.1877094), wk =   0.0370370
        k(   40) = (   0.3333333   0.2886751  -0.2815642), wk =   0.0185185
        k(   41) = (   0.3333333  -0.0962250   0.0000000), wk =   0.0370370
        k(   42) = (   0.3333333  -0.0962250   0.0938547), wk =   0.0370370
        k(   43) = (   0.3333333  -0.0962250   0.1877094), wk =   0.0370370
        k(   44) = (   0.3333333  -0.0962250  -0.2815642), wk =   0.0370370
        k(   45) = (   0.3333333  -0.0000000   0.0000000), wk =   0.0185185
        k(   46) = (   0.3333333  -0.0000000   0.0938547), wk =   0.0370370
        k(   47) = (   0.3333333  -0.0000000   0.1877094), wk =   0.0370370
        k(   48) = (   0.3333333  -0.0000000  -0.2815642), wk =   0.0185185
        k(   49) = (  -0.5000000  -0.2886751   0.0000000), wk =   0.0092593
        k(   50) = (  -0.5000000  -0.2886751   0.0938547), wk =   0.0185185
        k(   51) = (  -0.5000000  -0.2886751   0.1877094), wk =   0.0185185
        k(   52) = (  -0.5000000  -0.2886751  -0.2815642), wk =   0.0092593
        k(   53) = (  -0.5000000  -0.1924501   0.0000000), wk =   0.0185185
        k(   54) = (  -0.5000000  -0.1924501   0.0938547), wk =   0.0185185
        k(   55) = (  -0.5000000  -0.1924501   0.1877094), wk =   0.0185185
        k(   56) = (  -0.5000000  -0.1924501  -0.2815642), wk =   0.0185185
        k(   57) = (  -0.5000000  -0.0962250   0.0000000), wk =   0.0185185
        k(   58) = (  -0.5000000  -0.0962250   0.0938547), wk =   0.0185185
        k(   59) = (  -0.5000000  -0.0962250   0.1877094), wk =   0.0185185
        k(   60) = (  -0.5000000  -0.0962250  -0.2815642), wk =   0.0185185
        k(   61) = (  -0.5000000  -0.5773503   0.0000000), wk =   0.0092593
        k(   62) = (  -0.5000000  -0.5773503   0.0938547), wk =   0.0185185
        k(   63) = (  -0.5000000  -0.5773503   0.1877094), wk =   0.0185185
        k(   64) = (  -0.5000000  -0.5773503  -0.2815642), wk =   0.0092593
        k(   65) = (   0.0000000   0.0962250  -0.0938547), wk =   0.0185185
        k(   66) = (   0.0000000   0.0962250  -0.1877094), wk =   0.0185185
        k(   67) = (   0.0000000   0.1924501  -0.0938547), wk =   0.0185185
        k(   68) = (   0.0000000   0.1924501  -0.1877094), wk =   0.0185185
        k(   69) = (  -0.1666667   0.0962250  -0.0938547), wk =   0.0370370
        k(   70) = (  -0.1666667   0.0962250  -0.1877094), wk =   0.0370370
        k(   71) = (  -0.1666667   0.1924501  -0.0938547), wk =   0.0370370
        k(   72) = (  -0.1666667   0.1924501  -0.1877094), wk =   0.0370370
        k(   73) = (  -0.3333333   0.1924501  -0.0938547), wk =   0.0370370
        k(   74) = (  -0.3333333   0.1924501  -0.1877094), wk =   0.0370370
        k(   75) = (  -0.3333333  -0.0962250  -0.0938547), wk =   0.0370370
        k(   76) = (  -0.3333333  -0.0962250  -0.1877094), wk =   0.0370370
        k(   77) = (   0.5000000  -0.1924501  -0.0938547), wk =   0.0185185
        k(   78) = (   0.5000000  -0.1924501  -0.1877094), wk =   0.0185185
        k(   79) = (   0.5000000  -0.0962250  -0.0938547), wk =   0.0185185
        k(   80) = (   0.5000000  -0.0962250  -0.1877094), wk =   0.0185185

                       cryst. coord.
        k(    1) = (   0.0000000   0.0000000   0.0000000), wk =   0.0092593
        k(    2) = (   0.0000000   0.0000000   0.1666667), wk =   0.0185185
        k(    3) = (   0.0000000   0.0000000   0.3333333), wk =   0.0185185
        k(    4) = (   0.0000000   0.0000000  -0.5000000), wk =   0.0092593
        k(    5) = (   0.0000000   0.1666667   0.0000000), wk =   0.0185185
        k(    6) = (   0.0000000   0.1666667   0.1666667), wk =   0.0185185
        k(    7) = (   0.0000000   0.1666667   0.3333333), wk =   0.0185185
        k(    8) = (   0.0000000   0.1666667  -0.5000000), wk =   0.0185185
        k(    9) = (   0.0000000   0.3333333   0.0000000), wk =   0.0185185
        k(   10) = (   0.0000000   0.3333333   0.1666667), wk =   0.0185185
        k(   11) = (   0.0000000   0.3333333   0.3333333), wk =   0.0185185
        k(   12) = (   0.0000000   0.3333333  -0.5000000), wk =   0.0185185
        k(   13) = (   0.0000000  -0.5000000   0.0000000), wk =   0.0092593
        k(   14) = (   0.0000000  -0.5000000   0.1666667), wk =   0.0185185
        k(   15) = (   0.0000000  -0.5000000   0.3333333), wk =   0.0185185
        k(   16) = (   0.0000000  -0.5000000  -0.5000000), wk =   0.0092593
        k(   17) = (   0.1666667   0.0000000   0.0000000), wk =   0.0370370
        k(   18) = (   0.1666667   0.0000000   0.1666667), wk =   0.0370370
        k(   19) = (   0.1666667   0.0000000   0.3333333), wk =   0.0370370
        k(   20) = (   0.1666667   0.0000000  -0.5000000), wk =   0.0370370
        k(   21) = (   0.1666667   0.1666667   0.0000000), wk =   0.0370370
        k(   22) = (   0.1666667   0.1666667   0.1666667), wk =   0.0370370
        k(   23) = (   0.1666667   0.1666667   0.3333333), wk =   0.0370370
        k(   24) = (   0.1666667   0.1666667  -0.5000000), wk =   0.0370370
        k(   25) = (   0.1666667   0.3333333   0.0000000), wk =   0.0185185
        k(   26) = (   0.1666667   0.3333333   0.1666667), wk =   0.0370370
        k(   27) = (   0.1666667   0.3333333   0.3333333), wk =   0.0370370
        k(   28) = (   0.1666667   0.3333333  -0.5000000), wk =   0.0185185
        k(   29) = (   0.1666667  -0.1666667   0.0000000), wk =   0.0185185
        k(   30) = (   0.1666667  -0.1666667   0.1666667), wk =   0.0370370
        k(   31) = (   0.1666667  -0.1666667   0.3333333), wk =   0.0370370
        k(   32) = (   0.1666667  -0.1666667  -0.5000000), wk =   0.0185185
        k(   33) = (   0.3333333   0.0000000   0.0000000), wk =   0.0370370
        k(   34) = (   0.3333333   0.0000000   0.1666667), wk =   0.0370370
        k(   35) = (   0.3333333   0.0000000   0.3333333), wk =   0.0370370
        k(   36) = (   0.3333333   0.0000000  -0.5000000), wk =   0.0370370
        k(   37) = (   0.3333333   0.1666667   0.0000000), wk =   0.0185185
        k(   38) = (   0.3333333   0.1666667   0.1666667), wk =   0.0370370
        k(   39) = (   0.3333333   0.1666667   0.3333333), wk =   0.0370370
        k(   40) = (   0.3333333   0.1666667  -0.5000000), wk =   0.0185185
        k(   41) = (   0.3333333  -0.5000000   0.0000000), wk =   0.0370370
        k(   42) = (   0.3333333  -0.5000000   0.1666667), wk =   0.0370370
        k(   43) = (   0.3333333  -0.5000000   0.3333333), wk =   0.0370370
        k(   44) = (   0.3333333  -0.5000000  -0.5000000), wk =   0.0370370
        k(   45) = (   0.3333333  -0.3333333   0.0000000), wk =   0.0185185
        k(   46) = (   0.3333333  -0.3333333   0.1666667), wk =   0.0370370
        k(   47) = (   0.3333333  -0.3333333   0.3333333), wk =   0.0370370
        k(   48) = (   0.3333333  -0.3333333  -0.5000000), wk =   0.0185185
        k(   49) = (  -0.5000000   0.0000000   0.0000000), wk =   0.0092593
        k(   50) = (  -0.5000000   0.0000000   0.1666667), wk =   0.0185185
        k(   51) = (  -0.5000000   0.0000000   0.3333333), wk =   0.0185185
        k(   52) = (  -0.5000000   0.0000000  -0.5000000), wk =   0.0092593
        k(   53) = (  -0.5000000   0.1666667   0.0000000), wk =   0.0185185
        k(   54) = (  -0.5000000   0.1666667   0.1666667), wk =   0.0185185
        k(   55) = (  -0.5000000   0.1666667   0.3333333), wk =   0.0185185
        k(   56) = (  -0.5000000   0.1666667  -0.5000000), wk =   0.0185185
        k(   57) = (  -0.5000000   0.3333333   0.0000000), wk =   0.0185185
        k(   58) = (  -0.5000000   0.3333333   0.1666667), wk =   0.0185185
        k(   59) = (  -0.5000000   0.3333333   0.3333333), wk =   0.0185185
        k(   60) = (  -0.5000000   0.3333333  -0.5000000), wk =   0.0185185
        k(   61) = (  -0.5000000  -0.5000000   0.0000000), wk =   0.0092593
        k(   62) = (  -0.5000000  -0.5000000   0.1666667), wk =   0.0185185
        k(   63) = (  -0.5000000  -0.5000000   0.3333333), wk =   0.0185185
        k(   64) = (  -0.5000000  -0.5000000  -0.5000000), wk =   0.0092593
        k(   65) = (   0.0000000   0.1666667  -0.1666667), wk =   0.0185185
        k(   66) = (   0.0000000   0.1666667  -0.3333333), wk =   0.0185185
        k(   67) = (   0.0000000   0.3333333  -0.1666667), wk =   0.0185185
        k(   68) = (   0.0000000   0.3333333  -0.3333333), wk =   0.0185185
        k(   69) = (  -0.1666667   0.3333333  -0.1666667), wk =   0.0370370
        k(   70) = (  -0.1666667   0.3333333  -0.3333333), wk =   0.0370370
        k(   71) = (  -0.1666667   0.5000000  -0.1666667), wk =   0.0370370
        k(   72) = (  -0.1666667   0.5000000  -0.3333333), wk =   0.0370370
        k(   73) = (  -0.3333333   0.6666667  -0.1666667), wk =   0.0370370
        k(   74) = (  -0.3333333   0.6666667  -0.3333333), wk =   0.0370370
        k(   75) = (  -0.3333333   0.1666667  -0.1666667), wk =   0.0370370
        k(   76) = (  -0.3333333   0.1666667  -0.3333333), wk =   0.0370370
        k(   77) = (   0.5000000  -0.8333333  -0.1666667), wk =   0.0185185
        k(   78) = (   0.5000000  -0.8333333  -0.3333333), wk =   0.0185185
        k(   79) = (   0.5000000  -0.6666667  -0.1666667), wk =   0.0185185
        k(   80) = (   0.5000000  -0.6666667  -0.3333333), wk =   0.0185185

     Dense  grid:   130469 G-vectors     FFT dimensions: (  45,  90,  80)

     Smooth grid:    46077 G-vectors     FFT dimensions: (  32,  64,  60)

     Dynamical RAM for                 wfc:       0.79 MB

     Dynamical RAM for     wfc (w. buffer):      32.45 MB

     Dynamical RAM for           str. fact:       1.00 MB

     Dynamical RAM for           local pot:       0.00 MB

     Dynamical RAM for          nlocal pot:       2.29 MB

     Dynamical RAM for                qrad:       3.21 MB

     Dynamical RAM for          rho,v,vnew:       3.35 MB

     Dynamical RAM for               rhoin:       1.12 MB

     Dynamical RAM for            rho*nmix:       7.96 MB

     Dynamical RAM for           G-vectors:       1.95 MB

     Dynamical RAM for          h,s,v(r/c):       0.24 MB

     Dynamical RAM for          <psi|beta>:       0.06 MB

     Dynamical RAM for                 psi:       1.58 MB

     Dynamical RAM for                hpsi:       1.58 MB

     Dynamical RAM for                spsi:       1.58 MB

     Dynamical RAM for      wfcinit/wfcrot:       2.35 MB

     Dynamical RAM for           addusdens:      47.53 MB

     Dynamical RAM for          addusforce:      49.04 MB

     Estimated static dynamical RAM per process >      49.95 MB

     Estimated max dynamical RAM per process >     106.95 MB

     Estimated total dynamical RAM >     823.73 MB

     Check: negative core charge=   -0.000003

     Initial potential from superposition of free atoms

     starting charge      71.9851, renormalised to      72.0000
     Starting wfcs are   52 randomized atomic wfcs

     total cpu time spent up to now is        7.4 secs

     Self-consistent Calculation

     iteration #  1     ecut=    50.00 Ry     beta= 0.30
     Davidson diagonalization with overlap

---- Real-time Memory Report at c_bands before calling an iterative solver
           100 MiB given to the printing process from OS
             0 MiB allocation reported by mallinfo(arena+hblkhd)
         56318 MiB available memory on the node where the printing process lives
------------------
     ethr =  1.00E-02,  avg # of iterations =  1.0

     total cpu time spent up to now is       15.9 secs

     total energy              =    -722.47800197 Ry
     estimated scf accuracy    <       1.90230669 Ry

     iteration #  2     ecut=    50.00 Ry     beta= 0.30
     Davidson diagonalization with overlap

---- Real-time Memory Report at c_bands before calling an iterative solver
           144 MiB given to the printing process from OS
             0 MiB allocation reported by mallinfo(arena+hblkhd)
         55999 MiB available memory on the node where the printing process lives
------------------
     ethr =  2.64E-03,  avg # of iterations =  2.0

     total cpu time spent up to now is       26.1 secs

     total energy              =    -722.72968148 Ry
     estimated scf accuracy    <       0.23124205 Ry

     iteration #  3     ecut=    50.00 Ry     beta= 0.30
     Davidson diagonalization with overlap

---- Real-time Memory Report at c_bands before calling an iterative solver
           146 MiB given to the printing process from OS
             0 MiB allocation reported by mallinfo(arena+hblkhd)
         55991 MiB available memory on the node where the printing process lives
------------------
     ethr =  3.21E-04,  avg # of iterations =  7.5

     total cpu time spent up to now is       42.8 secs

     total energy              =    -722.69177143 Ry
     estimated scf accuracy    <       0.65425719 Ry

     iteration #  4     ecut=    50.00 Ry     beta= 0.30
     Davidson diagonalization with overlap

---- Real-time Memory Report at c_bands before calling an iterative solver
           146 MiB given to the printing process from OS
             0 MiB allocation reported by mallinfo(arena+hblkhd)
         55986 MiB available memory on the node where the printing process lives
------------------
     ethr =  3.21E-04,  avg # of iterations =  8.1

     total cpu time spent up to now is       62.2 secs

     total energy              =    -723.14129354 Ry
     estimated scf accuracy    <       0.46103250 Ry

     iteration #  5     ecut=    50.00 Ry     beta= 0.30
     Davidson diagonalization with overlap

---- Real-time Memory Report at c_bands before calling an iterative solver
           146 MiB given to the printing process from OS
             0 MiB allocation reported by mallinfo(arena+hblkhd)
         55998 MiB available memory on the node where the printing process lives
------------------
     ethr =  3.21E-04,  avg # of iterations =  2.2

     total cpu time spent up to now is       71.6 secs

     total energy              =    -722.95365728 Ry
     estimated scf accuracy    <       0.65607325 Ry

     iteration #  6     ecut=    50.00 Ry     beta= 0.30
     Davidson diagonalization with overlap

---- Real-time Memory Report at c_bands before calling an iterative solver
           147 MiB given to the printing process from OS
             0 MiB allocation reported by mallinfo(arena+hblkhd)
         55989 MiB available memory on the node where the printing process lives
------------------
     ethr =  3.21E-04,  avg # of iterations =  2.0

     total cpu time spent up to now is       81.0 secs

     total energy              =    -722.85282922 Ry
     estimated scf accuracy    <       0.32756593 Ry

     iteration #  7     ecut=    50.00 Ry     beta= 0.30
     Davidson diagonalization with overlap

---- Real-time Memory Report at c_bands before calling an iterative solver
           147 MiB given to the printing process from OS
             0 MiB allocation reported by mallinfo(arena+hblkhd)
         56003 MiB available memory on the node where the printing process lives
------------------
     ethr =  3.21E-04,  avg # of iterations =  6.5

     total cpu time spent up to now is       95.5 secs

     total energy              =    -722.94658368 Ry
     estimated scf accuracy    <       0.00640174 Ry

     iteration #  8     ecut=    50.00 Ry     beta= 0.30
     Davidson diagonalization with overlap

---- Real-time Memory Report at c_bands before calling an iterative solver
           147 MiB given to the printing process from OS
             0 MiB allocation reported by mallinfo(arena+hblkhd)
         56012 MiB available memory on the node where the printing process lives
------------------
     ethr =  8.89E-06,  avg # of iterations =  6.6

     total cpu time spent up to now is      109.3 secs

     total energy              =    -722.95209867 Ry
     estimated scf accuracy    <       0.00280139 Ry

     iteration #  9     ecut=    50.00 Ry     beta= 0.30
     Davidson diagonalization with overlap

---- Real-time Memory Report at c_bands before calling an iterative solver
           148 MiB given to the printing process from OS
             0 MiB allocation reported by mallinfo(arena+hblkhd)
         55993 MiB available memory on the node where the printing process lives
------------------
     ethr =  3.89E-06,  avg # of iterations =  6.2

     total cpu time spent up to now is      123.3 secs

     total energy              =    -722.95816394 Ry
     estimated scf accuracy    <       0.01912677 Ry

     iteration # 10     ecut=    50.00 Ry     beta= 0.30
     Davidson diagonalization with overlap

---- Real-time Memory Report at c_bands before calling an iterative solver
           148 MiB given to the printing process from OS
             0 MiB allocation reported by mallinfo(arena+hblkhd)
         56002 MiB available memory on the node where the printing process lives
------------------
     ethr =  3.89E-06,  avg # of iterations =  5.8

     total cpu time spent up to now is      137.4 secs

     total energy              =    -722.94955586 Ry
     estimated scf accuracy    <       0.04583424 Ry

     iteration # 11     ecut=    50.00 Ry     beta= 0.30
     Davidson diagonalization with overlap

---- Real-time Memory Report at c_bands before calling an iterative solver
           149 MiB given to the printing process from OS
             0 MiB allocation reported by mallinfo(arena+hblkhd)
         55989 MiB available memory on the node where the printing process lives
------------------
     ethr =  3.89E-06,  avg # of iterations =  6.6

     total cpu time spent up to now is      152.1 secs

     total energy              =    -722.94662449 Ry
     estimated scf accuracy    <       0.01335987 Ry

     iteration # 12     ecut=    50.00 Ry     beta= 0.30
     Davidson diagonalization with overlap

---- Real-time Memory Report at c_bands before calling an iterative solver
           149 MiB given to the printing process from OS
             0 MiB allocation reported by mallinfo(arena+hblkhd)
         55989 MiB available memory on the node where the printing process lives
------------------
     ethr =  3.89E-06,  avg # of iterations =  7.7

     total cpu time spent up to now is      168.2 secs

     total energy              =    -722.94913909 Ry
     estimated scf accuracy    <       0.00004843 Ry

     iteration # 13     ecut=    50.00 Ry     beta= 0.30
     Davidson diagonalization with overlap

---- Real-time Memory Report at c_bands before calling an iterative solver
           149 MiB given to the printing process from OS
             0 MiB allocation reported by mallinfo(arena+hblkhd)
         56000 MiB available memory on the node where the printing process lives
------------------
     ethr =  6.73E-08,  avg # of iterations =  9.7

     total cpu time spent up to now is      186.4 secs

     total energy              =    -722.94927507 Ry
     estimated scf accuracy    <       0.00026135 Ry

     iteration # 14     ecut=    50.00 Ry     beta= 0.30
     Davidson diagonalization with overlap

---- Real-time Memory Report at c_bands before calling an iterative solver
           149 MiB given to the printing process from OS
             0 MiB allocation reported by mallinfo(arena+hblkhd)
         56014 MiB available memory on the node where the printing process lives
------------------
     ethr =  6.73E-08,  avg # of iterations =  5.7

     total cpu time spent up to now is      199.7 secs

     total energy              =    -722.94927843 Ry
     estimated scf accuracy    <       0.00051680 Ry

     iteration # 15     ecut=    50.00 Ry     beta= 0.30
     Davidson diagonalization with overlap

---- Real-time Memory Report at c_bands before calling an iterative solver
           149 MiB given to the printing process from OS
             0 MiB allocation reported by mallinfo(arena+hblkhd)
         56017 MiB available memory on the node where the printing process lives
------------------
     ethr =  6.73E-08,  avg # of iterations =  3.4

     total cpu time spent up to now is      210.7 secs

     total energy              =    -722.94906907 Ry
     estimated scf accuracy    <       0.00053718 Ry

     iteration # 16     ecut=    50.00 Ry     beta= 0.30
     Davidson diagonalization with overlap

---- Real-time Memory Report at c_bands before calling an iterative solver
           149 MiB given to the printing process from OS
             0 MiB allocation reported by mallinfo(arena+hblkhd)
         56015 MiB available memory on the node where the printing process lives
------------------
     ethr =  6.73E-08,  avg # of iterations =  8.7

     total cpu time spent up to now is      228.9 secs

     total energy              =    -722.94917310 Ry
     estimated scf accuracy    <       0.00000182 Ry

     iteration # 17     ecut=    50.00 Ry     beta= 0.30
     Davidson diagonalization with overlap

---- Real-time Memory Report at c_bands before calling an iterative solver
           149 MiB given to the printing process from OS
             0 MiB allocation reported by mallinfo(arena+hblkhd)
         56031 MiB available memory on the node where the printing process lives
------------------
     c_bands:  2 eigenvalues not converged
     c_bands:  1 eigenvalues not converged
     c_bands:  1 eigenvalues not converged
     ethr =  2.53E-09,  avg # of iterations = 15.6

     total cpu time spent up to now is      262.4 secs

     total energy              =    -722.94919489 Ry
     estimated scf accuracy    <       0.00020643 Ry

     iteration # 18     ecut=    50.00 Ry     beta= 0.30
     Davidson diagonalization with overlap

---- Real-time Memory Report at c_bands before calling an iterative solver
           149 MiB given to the printing process from OS
             0 MiB allocation reported by mallinfo(arena+hblkhd)
         56042 MiB available memory on the node where the printing process lives
------------------
     ethr =  2.53E-09,  avg # of iterations =  5.8

     total cpu time spent up to now is      275.9 secs

     total energy              =    -722.94917453 Ry
     estimated scf accuracy    <       0.00016077 Ry

     iteration # 19     ecut=    50.00 Ry     beta= 0.30
     Davidson diagonalization with overlap

---- Real-time Memory Report at c_bands before calling an iterative solver
           149 MiB given to the printing process from OS
             0 MiB allocation reported by mallinfo(arena+hblkhd)
         56044 MiB available memory on the node where the printing process lives
------------------
     ethr =  2.53E-09,  avg # of iterations =  7.9

     total cpu time spent up to now is      293.1 secs

     total energy              =    -722.94915847 Ry
     estimated scf accuracy    <       0.00007216 Ry

     iteration # 20     ecut=    50.00 Ry     beta= 0.30
     Davidson diagonalization with overlap

---- Real-time Memory Report at c_bands before calling an iterative solver
           149 MiB given to the printing process from OS
             0 MiB allocation reported by mallinfo(arena+hblkhd)
         56046 MiB available memory on the node where the printing process lives
------------------
     ethr =  2.53E-09,  avg # of iterations = 10.9

     total cpu time spent up to now is      315.0 secs

     total energy              =    -722.94916504 Ry
     estimated scf accuracy    <       0.00000630 Ry

     iteration # 21     ecut=    50.00 Ry     beta= 0.30
     Davidson diagonalization with overlap

---- Real-time Memory Report at c_bands before calling an iterative solver
           149 MiB given to the printing process from OS
             0 MiB allocation reported by mallinfo(arena+hblkhd)
         56049 MiB available memory on the node where the printing process lives
------------------
     ethr =  2.53E-09,  avg # of iterations =  1.0

     total cpu time spent up to now is      323.4 secs

     total energy              =    -722.94916305 Ry
     estimated scf accuracy    <       0.00000677 Ry

     iteration # 22     ecut=    50.00 Ry     beta= 0.30
     Davidson diagonalization with overlap

---- Real-time Memory Report at c_bands before calling an iterative solver
           149 MiB given to the printing process from OS
             0 MiB allocation reported by mallinfo(arena+hblkhd)
         56050 MiB available memory on the node where the printing process lives
------------------
     ethr =  2.53E-09,  avg # of iterations =  5.5

     total cpu time spent up to now is      337.2 secs

     total energy              =    -722.94916368 Ry
     estimated scf accuracy    <       0.00000052 Ry

     iteration # 23     ecut=    50.00 Ry     beta= 0.30
     Davidson diagonalization with overlap

---- Real-time Memory Report at c_bands before calling an iterative solver
           149 MiB given to the printing process from OS
             0 MiB allocation reported by mallinfo(arena+hblkhd)
         56028 MiB available memory on the node where the printing process lives
------------------
     c_bands:  1 eigenvalues not converged
     ethr =  7.20E-10,  avg # of iterations =  5.9

     total cpu time spent up to now is      349.2 secs

     total energy              =    -722.94916400 Ry
     estimated scf accuracy    <       0.00000285 Ry

     iteration # 24     ecut=    50.00 Ry     beta= 0.30
     Davidson diagonalization with overlap

---- Real-time Memory Report at c_bands before calling an iterative solver
           149 MiB given to the printing process from OS
             0 MiB allocation reported by mallinfo(arena+hblkhd)
         56028 MiB available memory on the node where the printing process lives
------------------
     ethr =  7.20E-10,  avg # of iterations =  1.4

     total cpu time spent up to now is      358.0 secs

     total energy              =    -722.94916392 Ry
     estimated scf accuracy    <       0.00000278 Ry

     iteration # 25     ecut=    50.00 Ry     beta= 0.30
     Davidson diagonalization with overlap

---- Real-time Memory Report at c_bands before calling an iterative solver
           149 MiB given to the printing process from OS
             0 MiB allocation reported by mallinfo(arena+hblkhd)
         56026 MiB available memory on the node where the printing process lives
------------------
     ethr =  7.20E-10,  avg # of iterations =  1.3

     total cpu time spent up to now is      366.8 secs

     total energy              =    -722.94916373 Ry
     estimated scf accuracy    <       0.00000258 Ry

     iteration # 26     ecut=    50.00 Ry     beta= 0.30
     Davidson diagonalization with overlap

---- Real-time Memory Report at c_bands before calling an iterative solver
           149 MiB given to the printing process from OS
             0 MiB allocation reported by mallinfo(arena+hblkhd)
         56048 MiB available memory on the node where the printing process lives
------------------
     ethr =  7.20E-10,  avg # of iterations =  2.0

     total cpu time spent up to now is      376.4 secs

     total energy              =    -722.94916367 Ry
     estimated scf accuracy    <       0.00000208 Ry

     iteration # 27     ecut=    50.00 Ry     beta= 0.30
     Davidson diagonalization with overlap

---- Real-time Memory Report at c_bands before calling an iterative solver
           149 MiB given to the printing process from OS
             0 MiB allocation reported by mallinfo(arena+hblkhd)
         56044 MiB available memory on the node where the printing process lives
------------------
     ethr =  7.20E-10,  avg # of iterations =  1.2

     total cpu time spent up to now is      385.0 secs

     total energy              =    -722.94916359 Ry
     estimated scf accuracy    <       0.00000190 Ry

     iteration # 28     ecut=    50.00 Ry     beta= 0.30
     Davidson diagonalization with overlap

---- Real-time Memory Report at c_bands before calling an iterative solver
           149 MiB given to the printing process from OS
             0 MiB allocation reported by mallinfo(arena+hblkhd)
         55994 MiB available memory on the node where the printing process lives
------------------
     ethr =  7.20E-10,  avg # of iterations =  1.0

     total cpu time spent up to now is      393.5 secs

     total energy              =    -722.94916362 Ry
     estimated scf accuracy    <       0.00000169 Ry

     iteration # 29     ecut=    50.00 Ry     beta= 0.30
     Davidson diagonalization with overlap

---- Real-time Memory Report at c_bands before calling an iterative solver
           149 MiB given to the printing process from OS
             0 MiB allocation reported by mallinfo(arena+hblkhd)
         56010 MiB available memory on the node where the printing process lives
------------------
     ethr =  7.20E-10,  avg # of iterations =  1.2

     total cpu time spent up to now is      402.2 secs

     total energy              =    -722.94916363 Ry
     estimated scf accuracy    <       0.00000175 Ry

     iteration # 30     ecut=    50.00 Ry     beta= 0.30
     Davidson diagonalization with overlap

---- Real-time Memory Report at c_bands before calling an iterative solver
           149 MiB given to the printing process from OS
             0 MiB allocation reported by mallinfo(arena+hblkhd)
         56001 MiB available memory on the node where the printing process lives
------------------
     ethr =  7.20E-10,  avg # of iterations =  1.0

     total cpu time spent up to now is      410.6 secs

     total energy              =    -722.94916359 Ry
     estimated scf accuracy    <       0.00000177 Ry

     iteration # 31     ecut=    50.00 Ry     beta= 0.30
     Davidson diagonalization with overlap

---- Real-time Memory Report at c_bands before calling an iterative solver
           149 MiB given to the printing process from OS
             0 MiB allocation reported by mallinfo(arena+hblkhd)
         56013 MiB available memory on the node where the printing process lives
------------------
     ethr =  7.20E-10,  avg # of iterations =  1.0

     total cpu time spent up to now is      419.0 secs

     total energy              =    -722.94916287 Ry
     estimated scf accuracy    <       0.00000166 Ry

     iteration # 32     ecut=    50.00 Ry     beta= 0.30
     Davidson diagonalization with overlap

---- Real-time Memory Report at c_bands before calling an iterative solver
           149 MiB given to the printing process from OS
             0 MiB allocation reported by mallinfo(arena+hblkhd)
         56000 MiB available memory on the node where the printing process lives
------------------
     ethr =  7.20E-10,  avg # of iterations =  6.0

     total cpu time spent up to now is      433.1 secs

     total energy              =    -722.94916321 Ry
     estimated scf accuracy    <       0.00000079 Ry

     iteration # 33     ecut=    50.00 Ry     beta= 0.30
     Davidson diagonalization with overlap

---- Real-time Memory Report at c_bands before calling an iterative solver
           149 MiB given to the printing process from OS
             0 MiB allocation reported by mallinfo(arena+hblkhd)
         56020 MiB available memory on the node where the printing process lives
------------------
     ethr =  7.20E-10,  avg # of iterations =  1.7

     total cpu time spent up to now is      442.1 secs

     total energy              =    -722.94916324 Ry
     estimated scf accuracy    <       0.00000100 Ry

     iteration # 34     ecut=    50.00 Ry     beta= 0.30
     Davidson diagonalization with overlap

---- Real-time Memory Report at c_bands before calling an iterative solver
           149 MiB given to the printing process from OS
             0 MiB allocation reported by mallinfo(arena+hblkhd)
         55985 MiB available memory on the node where the printing process lives
------------------
     ethr =  7.20E-10,  avg # of iterations =  1.1

     total cpu time spent up to now is      450.6 secs

     total energy              =    -722.94916329 Ry
     estimated scf accuracy    <       0.00000109 Ry

     iteration # 35     ecut=    50.00 Ry     beta= 0.30
     Davidson diagonalization with overlap

---- Real-time Memory Report at c_bands before calling an iterative solver
           149 MiB given to the printing process from OS
             0 MiB allocation reported by mallinfo(arena+hblkhd)
         55998 MiB available memory on the node where the printing process lives
------------------
     ethr =  7.20E-10,  avg # of iterations =  1.2

     total cpu time spent up to now is      459.3 secs

     total energy              =    -722.94916326 Ry
     estimated scf accuracy    <       0.00000126 Ry

     iteration # 36     ecut=    50.00 Ry     beta= 0.30
     Davidson diagonalization with overlap

---- Real-time Memory Report at c_bands before calling an iterative solver
           149 MiB given to the printing process from OS
             0 MiB allocation reported by mallinfo(arena+hblkhd)
         55988 MiB available memory on the node where the printing process lives
------------------
     ethr =  7.20E-10,  avg # of iterations =  1.1

     total cpu time spent up to now is      467.8 secs

     total energy              =    -722.94916320 Ry
     estimated scf accuracy    <       0.00000123 Ry

     iteration # 37     ecut=    50.00 Ry     beta= 0.30
     Davidson diagonalization with overlap

---- Real-time Memory Report at c_bands before calling an iterative solver
           149 MiB given to the printing process from OS
             0 MiB allocation reported by mallinfo(arena+hblkhd)
         56004 MiB available memory on the node where the printing process lives
------------------
     ethr =  7.20E-10,  avg # of iterations =  1.0

     total cpu time spent up to now is      476.2 secs

     total energy              =    -722.94916285 Ry
     estimated scf accuracy    <       0.00000116 Ry

     iteration # 38     ecut=    50.00 Ry     beta= 0.30
     Davidson diagonalization with overlap

---- Real-time Memory Report at c_bands before calling an iterative solver
           149 MiB given to the printing process from OS
             0 MiB allocation reported by mallinfo(arena+hblkhd)
         55991 MiB available memory on the node where the printing process lives
------------------
     ethr =  7.20E-10,  avg # of iterations =  2.0

     total cpu time spent up to now is      485.9 secs

     total energy              =    -722.94916249 Ry
     estimated scf accuracy    <       0.00000052 Ry

     iteration # 39     ecut=    50.00 Ry     beta= 0.30
     Davidson diagonalization with overlap

---- Real-time Memory Report at c_bands before calling an iterative solver
           149 MiB given to the printing process from OS
             0 MiB allocation reported by mallinfo(arena+hblkhd)
         56012 MiB available memory on the node where the printing process lives
------------------
     ethr =  7.17E-10,  avg # of iterations =  9.3

     total cpu time spent up to now is      504.0 secs

     total energy              =    -722.94916289 Ry
     estimated scf accuracy    <       0.00000267 Ry

     iteration # 40     ecut=    50.00 Ry     beta= 0.30
     Davidson diagonalization with overlap

---- Real-time Memory Report at c_bands before calling an iterative solver
           149 MiB given to the printing process from OS
             0 MiB allocation reported by mallinfo(arena+hblkhd)
         56013 MiB available memory on the node where the printing process lives
------------------
     ethr =  7.17E-10,  avg # of iterations =  4.8

     total cpu time spent up to now is      515.9 secs

     total energy              =    -722.94916269 Ry
     estimated scf accuracy    <       0.00000113 Ry

     iteration # 41     ecut=    50.00 Ry     beta= 0.30
     Davidson diagonalization with overlap

---- Real-time Memory Report at c_bands before calling an iterative solver
           149 MiB given to the printing process from OS
             0 MiB allocation reported by mallinfo(arena+hblkhd)
         56006 MiB available memory on the node where the printing process lives
------------------
     ethr =  7.17E-10,  avg # of iterations =  5.8

     total cpu time spent up to now is      529.6 secs

     End of self-consistent calculation

          k = 0.0000 0.0000 0.0000 (  5787 PWs)   bands (ev):

   -13.2832 -13.0601 -13.0056 -12.9379  -2.4052  -2.3226  -2.3218  -2.3211
    -2.2530  -2.2526  -2.2496  -2.2087  -2.1847  -2.0593  -2.0341  -2.0172
    -2.0170  -1.9829  -1.9522  -1.9521  -1.9507  -1.9375  -1.8966  -1.8865
    -0.9549  -0.3483   0.1431   0.6922   1.5506   1.5895   2.1804   2.1938
     2.1966   2.2122   2.4943   2.5497

     occupation numbers 
     1.0000   1.0000   1.0000   1.0000   1.0000   1.0000   1.0000   1.0000
     1.0000   1.0000   1.0000   1.0000   1.0000   1.0000   1.0000   1.0000
     1.0000   1.0000   1.0000   1.0000   1.0000   1.0000   1.0000   1.0000
     1.0000   1.0000   1.0000   1.0000   1.0000   1.0000   1.0000   1.0000
     1.0000   1.0000   1.0000   1.0000

          k = 0.0000 0.0000 0.0939 (  5793 PWs)   bands (ev):

   -13.2686 -13.0754 -13.0009 -12.9423  -2.4010  -2.3261  -2.3190  -2.3183
    -2.2588  -2.2583  -2.2375  -2.2349  -2.1695  -2.0723  -2.0712  -2.0204
    -2.0123  -2.0121  -1.9559  -1.9559  -1.9503  -1.9398  -1.9020  -1.8975
    -0.7617  -0.3733   0.0558   0.8437   1.5928   1.5974   1.6365   2.1378
     2.2174   2.2203   2.5231   2.5260

     occupation numbers 
     1.0000   1.0000   1.0000   1.0000   1.0000   1.0000   1.0000   1.0000
     1.0000   1.0000   1.0000   1.0000   1.0000   1.0000   1.0000   1.0000
     1.0000   1.0000   1.0000   1.0000   1.0000   1.0000   1.0000   1.0000
     1.0000   1.0000   1.0000   1.0000   1.0000   1.0000   1.0000   1.0000
     1.0000   1.0000   1.0000   1.0000

          k = 0.0000 0.0000 0.1877 (  5797 PWs)   bands (ev):

   -13.2285 -13.1170 -12.9882 -12.9544  -2.3807  -2.3309  -2.3081  -2.3074
    -2.2828  -2.2736  -2.2730  -2.2185  -2.2041  -2.1295  -2.1082  -2.0236
    -1.9993  -1.9992  -1.9663  -1.9662  -1.9494  -1.9441  -1.9205  -1.9021
    -0.3744  -0.3125  -0.1254   0.9054   1.1765   1.6564   1.7077   2.0219
     2.2821   2.2849   2.4586   2.4614

     occupation numbers 
     1.0000   1.0000   1.0000   1.0000   1.0000   1.0000   1.0000   1.0000
     1.0000   1.0000   1.0000   1.0000   1.0000   1.0000   1.0000   1.0000
     1.0000   1.0000   1.0000   1.0000   1.0000   1.0000   1.0000   1.0000
     1.0000   1.0000   1.0000   1.0000   1.0000   1.0000   1.0000   1.0000
     1.0000   1.0000   1.0000   1.0000

          k = 0.0000 0.0000-0.2816 (  5748 PWs)   bands (ev):

   -13.1732 -13.1731 -12.9712 -12.9711  -2.3250  -2.3250  -2.3185  -2.3185
    -2.2916  -2.2916  -2.2910  -2.2910  -2.1568  -2.1568  -2.0736  -2.0736
    -1.9819  -1.9818  -1.9817  -1.9817  -1.9474  -1.9474  -1.9122  -1.9122
    -0.2882  -0.2882   0.2609   0.2609   1.4966   1.4966   1.8645   1.8646
     2.3703   2.3704   2.3732   2.3733

     occupation numbers 
     1.0000   1.0000   1.0000   1.0000   1.0000   1.0000   1.0000   1.0000
     1.0000   1.0000   1.0000   1.0000   1.0000   1.0000   1.0000   1.0000
     1.0000   1.0000   1.0000   1.0000   1.0000   1.0000   1.0000   1.0000
     1.0000   1.0000   1.0000   1.0000   1.0000   1.0000   1.0000   1.0000
     1.0000   1.0000   1.0000   1.0000

          k = 0.0000 0.0962 0.0000 (  5787 PWs)   bands (ev):

   -13.2666 -13.0505 -13.0289 -12.9421  -2.3941  -2.3241  -2.3193  -2.3133
    -2.2580  -2.2503  -2.2498  -2.2397  -2.1419  -2.0703  -2.0434  -2.0228
    -2.0182  -1.9974  -1.9636  -1.9614  -1.9519  -1.9408  -1.9300  -1.8552
    -0.9055  -0.2631   0.1327   0.6924   1.5933   1.6957   1.8515   2.0316
     2.1517   2.2062   2.2524   2.5265

     occupation numbers 
     1.0000   1.0000   1.0000   1.0000   1.0000   1.0000   1.0000   1.0000
     1.0000   1.0000   1.0000   1.0000   1.0000   1.0000   1.0000   1.0000
     1.0000   1.0000   1.0000   1.0000   1.0000   1.0000   1.0000   1.0000
     1.0000   1.0000   1.0000   1.0000   1.0000   1.0000   1.0000   1.0000
     1.0000   1.0000   1.0000   1.0000

          k = 0.0000 0.0962 0.0939 (  5780 PWs)   bands (ev):

   -13.2525 -13.0654 -13.0229 -12.9478  -2.3905  -2.3250  -2.3196  -2.3093
    -2.2653  -2.2557  -2.2455  -2.2388  -2.1434  -2.0824  -2.0681  -2.0353
    -2.0171  -2.0133  -1.9658  -1.9607  -1.9558  -1.9488  -1.9436  -1.8711
    -0.7189  -0.2936   0.0915   0.8192   1.4732   1.6343   1.7217   2.0445
     2.1647   2.1768   2.3353   2.5013

     occupation numbers 
     1.0000   1.0000   1.0000   1.0000   1.0000   1.0000   1.0000   1.0000
     1.0000   1.0000   1.0000   1.0000   1.0000   1.0000   1.0000   1.0000
     1.0000   1.0000   1.0000   1.0000   1.0000   1.0000   1.0000   1.0000
     1.0000   1.0000   1.0000   1.0000   1.0000   1.0000   1.0000   1.0000
     1.0000   1.0000   1.0000   1.0000

          k = 0.0000 0.0962 0.1877 (  5784 PWs)   bands (ev):

   -13.2136 -13.1056 -13.0068 -12.9634  -2.3713  -2.3304  -2.3072  -2.2975
    -2.2918  -2.2715  -2.2607  -2.2074  -2.2071  -2.1248  -2.1163  -2.0438
    -2.0026  -2.0002  -1.9667  -1.9657  -1.9592  -1.9585  -1.9494  -1.9048
    -0.2930  -0.2839  -0.0502   0.8694   1.1449   1.6942   1.7461   2.0519
     2.1160   2.2454   2.3056   2.4327

     occupation numbers 
     1.0000   1.0000   1.0000   1.0000   1.0000   1.0000   1.0000   1.0000
     1.0000   1.0000   1.0000   1.0000   1.0000   1.0000   1.0000   1.0000
     1.0000   1.0000   1.0000   1.0000   1.0000   1.0000   1.0000   1.0000
     1.0000   1.0000   1.0000   1.0000   1.0000   1.0000   1.0000   1.0000
     1.0000   1.0000   1.0000   1.0000

          k = 0.0000 0.0962-0.2816 (  5748 PWs)   bands (ev):

   -13.1600 -13.1599 -12.9850 -12.9849  -2.3198  -2.3197  -2.3190  -2.3189
    -2.2856  -2.2856  -2.2800  -2.2799  -2.1621  -2.1621  -2.0839  -2.0839
    -1.9838  -1.9838  -1.9828  -1.9828  -1.9546  -1.9546  -1.9357  -1.9357
    -0.2033  -0.2032   0.2663   0.2663   1.4889   1.4889   1.8987   1.8988
     2.2145   2.2145   2.3390   2.3391

     occupation numbers 
     1.0000   1.0000   1.0000   1.0000   1.0000   1.0000   1.0000   1.0000
     1.0000   1.0000   1.0000   1.0000   1.0000   1.0000   1.0000   1.0000
     1.0000   1.0000   1.0000   1.0000   1.0000   1.0000   1.0000   1.0000
     1.0000   1.0000   1.0000   1.0000   1.0000   1.0000   1.0000   1.0000
     1.0000   1.0000   1.0000   1.0000

          k = 0.0000 0.1925 0.0000 (  5776 PWs)   bands (ev):

   -13.2205 -13.0853 -13.0248 -12.9602  -2.3684  -2.3232  -2.3172  -2.3079
    -2.2919  -2.2548  -2.2350  -2.2039  -2.1215  -2.1040  -2.0851  -2.0386
    -2.0174  -2.0111  -2.0040  -1.9852  -1.9515  -1.9467  -1.8974  -1.8548
    -0.7584  -0.2848   0.2875   0.8563   1.2746   1.6401   1.7098   1.8942
     2.0310   2.1824   2.2760   2.4615

     occupation numbers 
     1.0000   1.0000   1.0000   1.0000   1.0000   1.0000   1.0000   1.0000
     1.0000   1.0000   1.0000   1.0000   1.0000   1.0000   1.0000   1.0000
     1.0000   1.0000   1.0000   1.0000   1.0000   1.0000   1.0000   1.0000
     1.0000   1.0000   1.0000   1.0000   1.0000   1.0000   1.0000   1.0000
     1.0000   1.0000   1.0000   1.0000

          k = 0.0000 0.1925 0.0939 (  5771 PWs)   bands (ev):

   -13.2076 -13.0769 -13.0382 -12.9685  -2.3672  -2.3270  -2.3173  -2.3020
    -2.2865  -2.2451  -2.2407  -2.2102  -2.1249  -2.1142  -2.0879  -2.0625
    -2.0283  -2.0128  -2.0066  -1.9834  -1.9557  -1.9507  -1.9299  -1.8805
    -0.5946  -0.2541   0.2767   0.9156   1.1220   1.6514   1.7476   1.8803
     2.0598   2.1514   2.2377   2.4325

     occupation numbers 
     1.0000   1.0000   1.0000   1.0000   1.0000   1.0000   1.0000   1.0000
     1.0000   1.0000   1.0000   1.0000   1.0000   1.0000   1.0000   1.0000
     1.0000   1.0000   1.0000   1.0000   1.0000   1.0000   1.0000   1.0000
     1.0000   1.0000   1.0000   1.0000   1.0000   1.0000   1.0000   1.0000
     1.0000   1.0000   1.0000   1.0000

          k = 0.0000 0.1925 0.1877 (  5766 PWs)   bands (ev):

   -13.1723 -13.0745 -13.0539 -12.9913  -2.3533  -2.3320  -2.3059  -2.3058
    -2.2717  -2.2545  -2.2277  -2.2181  -2.1758  -2.1421  -2.1297  -2.1042
    -2.0114  -2.0005  -1.9995  -1.9781  -1.9675  -1.9619  -1.9597  -1.9304
    -0.2105  -0.1580   0.1666   0.7335   1.1603   1.7417   1.7674   1.8509
     2.0451   2.1335   2.1384   2.3535

     occupation numbers 
     1.0000   1.0000   1.0000   1.0000   1.0000   1.0000   1.0000   1.0000
     1.0000   1.0000   1.0000   1.0000   1.0000   1.0000   1.0000   1.0000
     1.0000   1.0000   1.0000   1.0000   1.0000   1.0000   1.0000   1.0000
     1.0000   1.0000   1.0000   1.0000   1.0000   1.0000   1.0000   1.0000
     1.0000   1.0000   1.0000   1.0000

          k = 0.0000 0.1925-0.2816 (  5760 PWs)   bands (ev):

   -13.1236 -13.1236 -13.0226 -13.0226  -2.3219  -2.3218  -2.3177  -2.3177
    -2.2508  -2.2508  -2.2504  -2.2503  -2.1804  -2.1804  -2.1238  -2.1238
    -1.9875  -1.9875  -1.9839  -1.9839  -1.9726  -1.9726  -1.9697  -1.9697
    -0.0053  -0.0053   0.2594   0.2594   1.4998   1.4998   1.8905   1.8905
     1.9919   1.9920   2.2458   2.2459

     occupation numbers 
     1.0000   1.0000   1.0000   1.0000   1.0000   1.0000   1.0000   1.0000
     1.0000   1.0000   1.0000   1.0000   1.0000   1.0000   1.0000   1.0000
     1.0000   1.0000   1.0000   1.0000   1.0000   1.0000   1.0000   1.0000
     1.0000   1.0000   1.0000   1.0000   1.0000   1.0000   1.0000   1.0000
     1.0000   1.0000   1.0000   1.0000

          k = 0.0000-0.2887 0.0000 (  5798 PWs)   bands (ev):

   -13.1551 -13.1550 -12.9910 -12.9910  -2.3437  -2.3437  -2.3159  -2.3159
    -2.2690  -2.2690  -2.1913  -2.1913  -2.1539  -2.1539  -2.0623  -2.0622
    -2.0131  -2.0131  -2.0074  -2.0074  -1.9504  -1.9504  -1.8710  -1.8710
    -0.5287  -0.5287   0.7325   0.7325   1.2049   1.2050   1.8694   1.8695
     2.0661   2.0661   2.3698   2.3699

     occupation numbers 
     1.0000   1.0000   1.0000   1.0000   1.0000   1.0000   1.0000   1.0000
     1.0000   1.0000   1.0000   1.0000   1.0000   1.0000   1.0000   1.0000
     1.0000   1.0000   1.0000   1.0000   1.0000   1.0000   1.0000   1.0000
     1.0000   1.0000   1.0000   1.0000   1.0000   1.0000   1.0000   1.0000
     1.0000   1.0000   1.0000   1.0000

          k = 0.0000-0.2887 0.0939 (  5778 PWs)   bands (ev):

   -13.1442 -13.1441 -13.0021 -13.0021  -2.3460  -2.3460  -2.3112  -2.3112
    -2.2616  -2.2615  -2.1947  -2.1946  -2.1618  -2.1618  -2.0710  -2.0709
    -2.0263  -2.0263  -2.0039  -2.0039  -1.9547  -1.9547  -1.9045  -1.9044
    -0.4119  -0.4119   0.6743   0.6743   1.2276   1.2276   1.9028   1.9029
     2.0222   2.0223   2.3360   2.3361

     occupation numbers 
     1.0000   1.0000   1.0000   1.0000   1.0000   1.0000   1.0000   1.0000
     1.0000   1.0000   1.0000   1.0000   1.0000   1.0000   1.0000   1.0000
     1.0000   1.0000   1.0000   1.0000   1.0000   1.0000   1.0000   1.0000
     1.0000   1.0000   1.0000   1.0000   1.0000   1.0000   1.0000   1.0000
     1.0000   1.0000   1.0000   1.0000

          k = 0.0000-0.2887 0.1877 (  5746 PWs)   bands (ev):

   -13.1144 -13.1143 -13.0323 -13.0323  -2.3410  -2.3410  -2.3078  -2.3078
    -2.2410  -2.2409  -2.2001  -2.2001  -2.1833  -2.1833  -2.1355  -2.1355
    -2.0159  -2.0159  -1.9942  -1.9942  -1.9661  -1.9661  -1.9514  -1.9514
    -0.1389  -0.1389   0.4727   0.4727   1.3696   1.3696   1.8662   1.8662
     1.9941   1.9942   2.2440   2.2441

     occupation numbers 
     1.0000   1.0000   1.0000   1.0000   1.0000   1.0000   1.0000   1.0000
     1.0000   1.0000   1.0000   1.0000   1.0000   1.0000   1.0000   1.0000
     1.0000   1.0000   1.0000   1.0000   1.0000   1.0000   1.0000   1.0000
     1.0000   1.0000   1.0000   1.0000   1.0000   1.0000   1.0000   1.0000
     1.0000   1.0000   1.0000   1.0000

          k = 0.0000-0.2887-0.2816 (  5744 PWs)   bands (ev):

   -13.0735 -13.0734 -13.0734 -13.0734  -2.3213  -2.3212  -2.3212  -2.3212
    -2.2125  -2.2125  -2.2125  -2.2125  -2.1893  -2.1893  -2.1893  -2.1893
    -1.9873  -1.9873  -1.9873  -1.9873  -1.9807  -1.9807  -1.9807  -1.9807
     0.1786   0.1786   0.1786   0.1786   1.6173   1.6173   1.6173   1.6174
     2.1188   2.1189   2.1189   2.1189

     occupation numbers 
     1.0000   1.0000   1.0000   1.0000   1.0000   1.0000   1.0000   1.0000
     1.0000   1.0000   1.0000   1.0000   1.0000   1.0000   1.0000   1.0000
     1.0000   1.0000   1.0000   1.0000   1.0000   1.0000   1.0000   1.0000
     1.0000   1.0000   1.0000   1.0000   1.0000   1.0000   1.0000   1.0000
     1.0000   1.0000   1.0000   1.0000

          k = 0.1667 0.0962 0.0000 (  5777 PWs)   bands (ev):

   -13.2205 -13.0248 -13.0075 -12.9370  -2.3684  -2.3228  -2.3226  -2.2924
    -2.2496  -2.2347  -2.2042  -2.1814  -2.1050  -2.0805  -2.0474  -2.0388
    -2.0172  -2.0111  -2.0017  -1.9877  -1.9515  -1.9096  -1.8973  -1.8394
    -0.7584  -0.1527   0.1554   0.7883   1.2114   1.2759   1.6418   1.6525
     1.9225   2.0290   2.1824   2.4593

     occupation numbers 
     1.0000   1.0000   1.0000   1.0000   1.0000   1.0000   1.0000   1.0000
     1.0000   1.0000   1.0000   1.0000   1.0000   1.0000   1.0000   1.0000
     1.0000   1.0000   1.0000   1.0000   1.0000   1.0000   1.0000   1.0000
     1.0000   1.0000   1.0000   1.0000   1.0000   1.0000   1.0000   1.0000
     1.0000   1.0000   1.0000   1.0000

          k = 0.1667 0.0962 0.0939 (  5771 PWs)   bands (ev):

   -13.2076 -13.0382 -13.0026 -12.9416  -2.3671  -2.3169  -2.3133  -2.2871
    -2.2560  -2.2404  -2.2106  -2.1924  -2.1080  -2.0855  -2.0625  -2.0506
    -2.0285  -2.0126  -2.0076  -1.9786  -1.9556  -1.9298  -1.9085  -1.8496
    -0.5946  -0.1851   0.1052   0.9076   1.1229   1.2673   1.6532   1.6891
     1.8718   2.0577   2.1520   2.4303

     occupation numbers 
     1.0000   1.0000   1.0000   1.0000   1.0000   1.0000   1.0000   1.0000
     1.0000   1.0000   1.0000   1.0000   1.0000   1.0000   1.0000   1.0000
     1.0000   1.0000   1.0000   1.0000   1.0000   1.0000   1.0000   1.0000
     1.0000   1.0000   1.0000   1.0000   1.0000   1.0000   1.0000   1.0000
     1.0000   1.0000   1.0000   1.0000

          k = 0.1667 0.0962 0.1877 (  5769 PWs)   bands (ev):

   -13.1723 -13.0745 -12.9894 -12.9541  -2.3532  -2.3055  -2.2961  -2.2722
    -2.2627  -2.2542  -2.2281  -2.2103  -2.1757  -2.1287  -2.0909  -2.0647
    -2.0114  -2.0003  -1.9980  -1.9713  -1.9674  -1.9619  -1.9044  -1.8726
    -0.2104  -0.2024  -0.0213   0.7339   1.1683   1.4300   1.6558   1.7435
     1.7822   2.0464   2.1363   2.3514

     occupation numbers 
     1.0000   1.0000   1.0000   1.0000   1.0000   1.0000   1.0000   1.0000
     1.0000   1.0000   1.0000   1.0000   1.0000   1.0000   1.0000   1.0000
     1.0000   1.0000   1.0000   1.0000   1.0000   1.0000   1.0000   1.0000
     1.0000   1.0000   1.0000   1.0000   1.0000   1.0000   1.0000   1.0000
     1.0000   1.0000   1.0000   1.0000

          k = 0.1667 0.0962-0.2816 (  5756 PWs)   bands (ev):

   -13.1236 -13.1236 -12.9717 -12.9716  -2.3176  -2.3175  -2.2804  -2.2804
    -2.2509  -2.2509  -2.2505  -2.2504  -2.1796  -2.1796  -2.0794  -2.0794
    -1.9876  -1.9876  -1.9838  -1.9837  -1.9792  -1.9792  -1.8934  -1.8934
    -0.1432  -0.1432   0.2596   0.2596   1.4254   1.4254   1.6631   1.6631
     1.8921   1.8922   2.2437   2.2438

     occupation numbers 
     1.0000   1.0000   1.0000   1.0000   1.0000   1.0000   1.0000   1.0000
     1.0000   1.0000   1.0000   1.0000   1.0000   1.0000   1.0000   1.0000
     1.0000   1.0000   1.0000   1.0000   1.0000   1.0000   1.0000   1.0000
     1.0000   1.0000   1.0000   1.0000   1.0000   1.0000   1.0000   1.0000
     1.0000   1.0000   1.0000   1.0000

          k = 0.1667 0.1925 0.0000 (  5777 PWs)   bands (ev):

   -13.1794 -13.0588 -13.0032 -12.9501  -2.3495  -2.3102  -2.3068  -2.2844
    -2.2807  -2.2202  -2.2104  -2.1690  -2.1497  -2.0844  -2.0626  -2.0487
    -2.0198  -2.0191  -2.0117  -1.9988  -1.9515  -1.9369  -1.8782  -1.8427
    -0.6168  -0.1974   0.3003   0.8342   0.9565   1.3382   1.3971   1.8526
     1.9130   2.0410   2.1187   2.3662

     occupation numbers 
     1.0000   1.0000   1.0000   1.0000   1.0000   1.0000   1.0000   1.0000
     1.0000   1.0000   1.0000   1.0000   1.0000   1.0000   1.0000   1.0000
     1.0000   1.0000   1.0000   1.0000   1.0000   1.0000   1.0000   1.0000
     1.0000   1.0000   1.0000   1.0000   1.0000   1.0000   1.0000   1.0000
     1.0000   1.0000   1.0000   1.0000

          k = 0.1667 0.1925 0.0939 (  5772 PWs)   bands (ev):

   -13.1678 -13.0515 -13.0151 -12.9573  -2.3497  -2.3031  -2.3013  -2.2862
    -2.2783  -2.2254  -2.2073  -2.1760  -2.1541  -2.0909  -2.0701  -2.0615
    -2.0373  -2.0355  -2.0073  -1.9826  -1.9560  -1.9381  -1.9120  -1.8620
    -0.4794  -0.1834   0.2580   0.8575   0.9462   1.3785   1.4235   1.8584
     1.9250   1.9938   2.0849   2.3336

     occupation numbers 
     1.0000   1.0000   1.0000   1.0000   1.0000   1.0000   1.0000   1.0000
     1.0000   1.0000   1.0000   1.0000   1.0000   1.0000   1.0000   1.0000
     1.0000   1.0000   1.0000   1.0000   1.0000   1.0000   1.0000   1.0000
     1.0000   1.0000   1.0000   1.0000   1.0000   1.0000   1.0000   1.0000
     1.0000   1.0000   1.0000   1.0000

          k = 0.1667 0.1925 0.1877 (  5772 PWs)   bands (ev):

   -13.1358 -13.0477 -13.0314 -12.9770  -2.3400  -2.2965  -2.2940  -2.2843
    -2.2624  -2.2363  -2.2016  -2.1938  -2.1625  -2.1504  -2.1173  -2.1065
    -2.0163  -2.0162  -1.9971  -1.9722  -1.9676  -1.9544  -1.9397  -1.9031
    -0.1568  -0.1230   0.1370   0.5864   1.2286   1.5148   1.5179   1.7900
     1.8764   1.9088   2.0341   2.2451

     occupation numbers 
     1.0000   1.0000   1.0000   1.0000   1.0000   1.0000   1.0000   1.0000
     1.0000   1.0000   1.0000   1.0000   1.0000   1.0000   1.0000   1.0000
     1.0000   1.0000   1.0000   1.0000   1.0000   1.0000   1.0000   1.0000
     1.0000   1.0000   1.0000   1.0000   1.0000   1.0000   1.0000   1.0000
     1.0000   1.0000   1.0000   1.0000

          k = 0.1667 0.1925-0.2816 (  5772 PWs)   bands (ev):

   -13.0919 -13.0919 -13.0042 -13.0041  -2.3114  -2.3114  -2.2885  -2.2885
    -2.2429  -2.2429  -2.2057  -2.2057  -2.1811  -2.1811  -2.1301  -2.1301
    -1.9884  -1.9884  -1.9826  -1.9826  -1.9818  -1.9817  -1.9343  -1.9343
    -0.0079  -0.0078   0.2247   0.2247   1.5262   1.5262   1.7187   1.7187
     1.7258   1.7258   2.1284   2.1285

     occupation numbers 
     1.0000   1.0000   1.0000   1.0000   1.0000   1.0000   1.0000   1.0000
     1.0000   1.0000   1.0000   1.0000   1.0000   1.0000   1.0000   1.0000
     1.0000   1.0000   1.0000   1.0000   1.0000   1.0000   1.0000   1.0000
     1.0000   1.0000   1.0000   1.0000   1.0000   1.0000   1.0000   1.0000
     1.0000   1.0000   1.0000   1.0000

          k = 0.1667 0.2887 0.0000 (  5782 PWs)   bands (ev):

   -13.1212 -13.1211 -12.9750 -12.9750  -2.3194  -2.3194  -2.2960  -2.2960
    -2.2559  -2.2559  -2.1981  -2.1981  -2.1206  -2.1206  -2.0566  -2.0566
    -2.0257  -2.0257  -2.0048  -2.0048  -1.9492  -1.9492  -1.8586  -1.8586
    -0.4062  -0.4062   0.6162   0.6162   1.0200   1.0200   1.6804   1.6804
     2.0118   2.0118   2.2053   2.2054

     occupation numbers 
     1.0000   1.0000   1.0000   1.0000   1.0000   1.0000   1.0000   1.0000
     1.0000   1.0000   1.0000   1.0000   1.0000   1.0000   1.0000   1.0000
     1.0000   1.0000   1.0000   1.0000   1.0000   1.0000   1.0000   1.0000
     1.0000   1.0000   1.0000   1.0000   1.0000   1.0000   1.0000   1.0000
     1.0000   1.0000   1.0000   1.0000

          k = 0.1667 0.2887 0.0939 (  5780 PWs)   bands (ev):

   -13.1114 -13.1114 -12.9849 -12.9848  -2.3216  -2.3216  -2.2906  -2.2906
    -2.2493  -2.2493  -2.2028  -2.2028  -2.1287  -2.1286  -2.0609  -2.0609
    -2.0469  -2.0469  -1.9942  -1.9942  -1.9529  -1.9529  -1.8871  -1.8871
    -0.3183  -0.3182   0.5475   0.5475   1.1001   1.1001   1.6924   1.6925
     1.9921   1.9921   2.1648   2.1648

     occupation numbers 
     1.0000   1.0000   1.0000   1.0000   1.0000   1.0000   1.0000   1.0000
     1.0000   1.0000   1.0000   1.0000   1.0000   1.0000   1.0000   1.0000
     1.0000   1.0000   1.0000   1.0000   1.0000   1.0000   1.0000   1.0000
     1.0000   1.0000   1.0000   1.0000   1.0000   1.0000   1.0000   1.0000
     1.0000   1.0000   1.0000   1.0000

          k = 0.1667 0.2887 0.1877 (  5788 PWs)   bands (ev):

   -13.0848 -13.0847 -13.0117 -13.0116  -2.3179  -2.3178  -2.2835  -2.2835
    -2.2333  -2.2333  -2.2111  -2.2111  -2.1504  -2.1504  -2.1277  -2.1277
    -2.0204  -2.0204  -1.9845  -1.9845  -1.9614  -1.9614  -1.9360  -1.9360
    -0.1109  -0.1109   0.3681   0.3681   1.3177   1.3178   1.7383   1.7383
     1.8956   1.8956   2.0571   2.0571

     occupation numbers 
     1.0000   1.0000   1.0000   1.0000   1.0000   1.0000   1.0000   1.0000
     1.0000   1.0000   1.0000   1.0000   1.0000   1.0000   1.0000   1.0000
     1.0000   1.0000   1.0000   1.0000   1.0000   1.0000   1.0000   1.0000
     1.0000   1.0000   1.0000   1.0000   1.0000   1.0000   1.0000   1.0000
     1.0000   1.0000   1.0000   1.0000

          k = 0.1667 0.2887-0.2816 (  5752 PWs)   bands (ev):

   -13.0483 -13.0482 -13.0482 -13.0482  -2.2981  -2.2981  -2.2981  -2.2981
    -2.2145  -2.2145  -2.2145  -2.2145  -2.1665  -2.1665  -2.1665  -2.1665
    -1.9865  -1.9865  -1.9865  -1.9865  -1.9679  -1.9679  -1.9679  -1.9679
     0.1336   0.1337   0.1337   0.1337   1.5949   1.5949   1.5950   1.5950
     1.9230   1.9230   1.9231   1.9231

     occupation numbers 
     1.0000   1.0000   1.0000   1.0000   1.0000   1.0000   1.0000   1.0000
     1.0000   1.0000   1.0000   1.0000   1.0000   1.0000   1.0000   1.0000
     1.0000   1.0000   1.0000   1.0000   1.0000   1.0000   1.0000   1.0000
     1.0000   1.0000   1.0000   1.0000   1.0000   1.0000   1.0000   1.0000
     1.0000   1.0000   1.0000   1.0000

          k = 0.1667 0.0000 0.0000 (  5777 PWs)   bands (ev):

   -13.2352 -13.0329 -12.9853 -12.9354  -2.3753  -2.3272  -2.3201  -2.3022
    -2.2423  -2.2400  -2.2147  -2.1592  -2.1190  -2.0686  -2.0421  -2.0326
    -2.0191  -2.0086  -1.9816  -1.9811  -1.9519  -1.9055  -1.8778  -1.8562
    -0.8070  -0.2092   0.1668   0.7662   1.2140   1.4460   1.5197   1.7353
     1.8798   2.0794   2.2053   2.4658

     occupation numbers 
     1.0000   1.0000   1.0000   1.0000   1.0000   1.0000   1.0000   1.0000
     1.0000   1.0000   1.0000   1.0000   1.0000   1.0000   1.0000   1.0000
     1.0000   1.0000   1.0000   1.0000   1.0000   1.0000   1.0000   1.0000
     1.0000   1.0000   1.0000   1.0000   1.0000   1.0000   1.0000   1.0000
     1.0000   1.0000   1.0000   1.0000

          k = 0.1667 0.0000 0.0939 (  5775 PWs)   bands (ev):

   -13.2220 -13.0467 -12.9818 -12.9386  -2.3730  -2.3172  -2.3141  -2.2978
    -2.2485  -2.2435  -2.2208  -2.1885  -2.1080  -2.0816  -2.0635  -2.0310
    -2.0260  -2.0132  -1.9853  -1.9811  -1.9560  -1.9353  -1.8770  -1.8612
    -0.6351  -0.2378   0.0884   0.8776   1.2386   1.2869   1.5764   1.7694
     1.8273   2.0803   2.2089   2.4379

     occupation numbers 
     1.0000   1.0000   1.0000   1.0000   1.0000   1.0000   1.0000   1.0000
     1.0000   1.0000   1.0000   1.0000   1.0000   1.0000   1.0000   1.0000
     1.0000   1.0000   1.0000   1.0000   1.0000   1.0000   1.0000   1.0000
     1.0000   1.0000   1.0000   1.0000   1.0000   1.0000   1.0000   1.0000
     1.0000   1.0000   1.0000   1.0000

          k = 0.1667 0.0000 0.1877 (  5763 PWs)   bands (ev):

   -13.1855 -13.0843 -12.9723 -12.9474  -2.3567  -2.2985  -2.2972  -2.2878
    -2.2644  -2.2386  -2.2366  -2.2318  -2.1857  -2.1239  -2.0832  -2.0350
    -2.0086  -2.0008  -1.9818  -1.9795  -1.9677  -1.9628  -1.8754  -1.8699
    -0.2566  -0.2324  -0.0687   0.7842   1.1159   1.4743   1.5752   1.7442
     1.8632   2.0936   2.1854   2.3622

     occupation numbers 
     1.0000   1.0000   1.0000   1.0000   1.0000   1.0000   1.0000   1.0000
     1.0000   1.0000   1.0000   1.0000   1.0000   1.0000   1.0000   1.0000
     1.0000   1.0000   1.0000   1.0000   1.0000   1.0000   1.0000   1.0000
     1.0000   1.0000   1.0000   1.0000   1.0000   1.0000   1.0000   1.0000
     1.0000   1.0000   1.0000   1.0000

          k = 0.1667 0.0000-0.2816 (  5784 PWs)   bands (ev):

   -13.1352 -13.1351 -12.9597 -12.9596  -2.3129  -2.3129  -2.2764  -2.2764
    -2.2756  -2.2756  -2.2519  -2.2519  -2.1838  -2.1838  -2.0565  -2.0565
    -1.9867  -1.9867  -1.9836  -1.9836  -1.9785  -1.9785  -1.8741  -1.8741
    -0.2000  -0.1999   0.2662   0.2662   1.3709   1.3709   1.6631   1.6631
     1.9903   1.9903   2.2621   2.2622

     occupation numbers 
     1.0000   1.0000   1.0000   1.0000   1.0000   1.0000   1.0000   1.0000
     1.0000   1.0000   1.0000   1.0000   1.0000   1.0000   1.0000   1.0000
     1.0000   1.0000   1.0000   1.0000   1.0000   1.0000   1.0000   1.0000
     1.0000   1.0000   1.0000   1.0000   1.0000   1.0000   1.0000   1.0000
     1.0000   1.0000   1.0000   1.0000

          k = 0.3333 0.1925 0.0000 (  5751 PWs)   bands (ev):

   -13.0853 -13.0075 -12.9602 -12.9370  -2.3228  -2.3174  -2.3075  -2.2553
    -2.2496  -2.1816  -2.1215  -2.1051  -2.1045  -2.0849  -2.0807  -2.0473
    -2.0039  -2.0015  -1.9876  -1.9850  -1.9466  -1.9096  -1.8546  -1.8392
    -0.2844  -0.1516   0.1559   0.2888   0.7890   0.8575   1.2099   1.6524
     1.7078   1.8942   1.9214   2.2739

     occupation numbers 
     1.0000   1.0000   1.0000   1.0000   1.0000   1.0000   1.0000   1.0000
     1.0000   1.0000   1.0000   1.0000   1.0000   1.0000   1.0000   1.0000
     1.0000   1.0000   1.0000   1.0000   1.0000   1.0000   1.0000   1.0000
     1.0000   1.0000   1.0000   1.0000   1.0000   1.0000   1.0000   1.0000
     1.0000   1.0000   1.0000   1.0000

          k = 0.3333 0.1925 0.0939 (  5758 PWs)   bands (ev):

   -13.0769 -13.0026 -12.9685 -12.9416  -2.3270  -2.3134  -2.3018  -2.2559
    -2.2457  -2.1927  -2.1249  -2.1147  -2.1081  -2.0877  -2.0857  -2.0504
    -2.0074  -2.0065  -1.9832  -1.9785  -1.9505  -1.9085  -1.8803  -1.8494
    -0.2536  -0.1841   0.1057   0.2780   0.9083   0.9167   1.2657   1.6892
     1.7456   1.8706   1.8805   2.2356

     occupation numbers 
     1.0000   1.0000   1.0000   1.0000   1.0000   1.0000   1.0000   1.0000
     1.0000   1.0000   1.0000   1.0000   1.0000   1.0000   1.0000   1.0000
     1.0000   1.0000   1.0000   1.0000   1.0000   1.0000   1.0000   1.0000
     1.0000   1.0000   1.0000   1.0000   1.0000   1.0000   1.0000   1.0000
     1.0000   1.0000   1.0000   1.0000

          k = 0.3333 0.1925 0.1877 (  5759 PWs)   bands (ev):

   -13.0539 -12.9914 -12.9894 -12.9542  -2.3320  -2.3059  -2.2962  -2.2626
    -2.2186  -2.2106  -2.1426  -2.1295  -2.1289  -2.1040  -2.0908  -2.0646
    -1.9995  -1.9978  -1.9779  -1.9712  -1.9596  -1.9302  -1.9044  -1.8725
    -0.2016  -0.1573  -0.0207   0.1677   1.1612   1.1689   1.4286   1.6559
     1.7679   1.7811   1.8488   2.1314

     occupation numbers 
     1.0000   1.0000   1.0000   1.0000   1.0000   1.0000   1.0000   1.0000
     1.0000   1.0000   1.0000   1.0000   1.0000   1.0000   1.0000   1.0000
     1.0000   1.0000   1.0000   1.0000   1.0000   1.0000   1.0000   1.0000
     1.0000   1.0000   1.0000   1.0000   1.0000   1.0000   1.0000   1.0000
     1.0000   1.0000   1.0000   1.0000

          k = 0.3333 0.1925-0.2816 (  5752 PWs)   bands (ev):

   -13.0227 -13.0226 -12.9717 -12.9716  -2.3219  -2.3219  -2.2805  -2.2805
    -2.1809  -2.1809  -2.1798  -2.1797  -2.1235  -2.1235  -2.0793  -2.0793
    -1.9791  -1.9791  -1.9725  -1.9725  -1.9695  -1.9695  -1.8934  -1.8934
    -0.1425  -0.1424  -0.0045  -0.0044   1.4254   1.4255   1.5005   1.5006
     1.6621   1.6621   1.9899   1.9899

     occupation numbers 
     1.0000   1.0000   1.0000   1.0000   1.0000   1.0000   1.0000   1.0000
     1.0000   1.0000   1.0000   1.0000   1.0000   1.0000   1.0000   1.0000
     1.0000   1.0000   1.0000   1.0000   1.0000   1.0000   1.0000   1.0000
     1.0000   1.0000   1.0000   1.0000   1.0000   1.0000   1.0000   1.0000
     1.0000   1.0000   1.0000   1.0000

          k = 0.3333 0.2887 0.0000 (  5754 PWs)   bands (ev):

   -13.0480 -13.0479 -12.9470 -12.9470  -2.3124  -2.3124  -2.2825  -2.2825
    -2.2395  -2.2395  -2.1117  -2.1117  -2.0955  -2.0955  -2.0600  -2.0600
    -1.9968  -1.9968  -1.9788  -1.9788  -1.9387  -1.9387  -1.8476  -1.8476
    -0.2051  -0.2051   0.1771   0.1771   0.7590   0.7590   1.5293   1.5293
     1.7916   1.7917   2.1527   2.1528

     occupation numbers 
     1.0000   1.0000   1.0000   1.0000   1.0000   1.0000   1.0000   1.0000
     1.0000   1.0000   1.0000   1.0000   1.0000   1.0000   1.0000   1.0000
     1.0000   1.0000   1.0000   1.0000   1.0000   1.0000   1.0000   1.0000
     1.0000   1.0000   1.0000   1.0000   1.0000   1.0000   1.0000   1.0000
     1.0000   1.0000   1.0000   1.0000

          k = 0.3333 0.2887 0.0939 (  5750 PWs)   bands (ev):

   -13.0411 -13.0411 -12.9537 -12.9536  -2.3156  -2.3156  -2.2824  -2.2823
    -2.2342  -2.2342  -2.1173  -2.1173  -2.1022  -2.1022  -2.0626  -2.0625
    -2.0008  -2.0008  -1.9738  -1.9738  -1.9405  -1.9405  -1.8664  -1.8663
    -0.2218  -0.2218   0.1594   0.1595   0.8600   0.8601   1.5682   1.5682
     1.8025   1.8025   2.1104   2.1104

     occupation numbers 
     1.0000   1.0000   1.0000   1.0000   1.0000   1.0000   1.0000   1.0000
     1.0000   1.0000   1.0000   1.0000   1.0000   1.0000   1.0000   1.0000
     1.0000   1.0000   1.0000   1.0000   1.0000   1.0000   1.0000   1.0000
     1.0000   1.0000   1.0000   1.0000   1.0000   1.0000   1.0000   1.0000
     1.0000   1.0000   1.0000   1.0000

          k = 0.3333 0.2887 0.1877 (  5752 PWs)   bands (ev):

   -13.0225 -13.0224 -12.9720 -12.9719  -2.3193  -2.3193  -2.2902  -2.2902
    -2.2136  -2.2136  -2.1322  -2.1322  -2.1140  -2.1140  -2.0784  -2.0783
    -1.9930  -1.9930  -1.9682  -1.9682  -1.9435  -1.9435  -1.9063  -1.9063
    -0.1998  -0.1998   0.0461   0.0461   1.1550   1.1550   1.6627   1.6627
     1.7563   1.7564   1.9996   1.9996

     occupation numbers 
     1.0000   1.0000   1.0000   1.0000   1.0000   1.0000   1.0000   1.0000
     1.0000   1.0000   1.0000   1.0000   1.0000   1.0000   1.0000   1.0000
     1.0000   1.0000   1.0000   1.0000   1.0000   1.0000   1.0000   1.0000
     1.0000   1.0000   1.0000   1.0000   1.0000   1.0000   1.0000   1.0000
     1.0000   1.0000   1.0000   1.0000

          k = 0.3333 0.2887-0.2816 (  5748 PWs)   bands (ev):

   -12.9972 -12.9971 -12.9971 -12.9970  -2.3096  -2.3096  -2.3096  -2.3096
    -2.1736  -2.1736  -2.1735  -2.1735  -2.1006  -2.1006  -2.1005  -2.1005
    -1.9737  -1.9736  -1.9736  -1.9736  -1.9375  -1.9375  -1.9375  -1.9375
    -0.0998  -0.0998  -0.0998  -0.0998   1.4925   1.4926   1.4926   1.4926
     1.8505   1.8505   1.8506   1.8506

     occupation numbers 
     1.0000   1.0000   1.0000   1.0000   1.0000   1.0000   1.0000   1.0000
     1.0000   1.0000   1.0000   1.0000   1.0000   1.0000   1.0000   1.0000
     1.0000   1.0000   1.0000   1.0000   1.0000   1.0000   1.0000   1.0000
     1.0000   1.0000   1.0000   1.0000   1.0000   1.0000   1.0000   1.0000
     1.0000   1.0000   1.0000   1.0000

          k = 0.3333-0.0962 0.0000 (  5760 PWs)   bands (ev):

   -13.1117 -12.9719 -12.9709 -12.9358  -2.3418  -2.3207  -2.3055  -2.2586
    -2.2026  -2.1654  -2.1414  -2.1183  -2.0815  -2.0707  -2.0649  -2.0415
    -2.0170  -2.0142  -2.0048  -1.9992  -1.9483  -1.8737  -1.8577  -1.8369
    -0.3711  -0.0410   0.1401   0.4920   0.7268   0.9839   1.0811   1.4771
     1.6937   1.7042   1.9796   2.2511

     occupation numbers 
     1.0000   1.0000   1.0000   1.0000   1.0000   1.0000   1.0000   1.0000
     1.0000   1.0000   1.0000   1.0000   1.0000   1.0000   1.0000   1.0000
     1.0000   1.0000   1.0000   1.0000   1.0000   1.0000   1.0000   1.0000
     1.0000   1.0000   1.0000   1.0000   1.0000   1.0000   1.0000   1.0000
     1.0000   1.0000   1.0000   1.0000

          k = 0.3333-0.0962 0.0939 (  5764 PWs)   bands (ev):

   -13.1023 -12.9804 -12.9693 -12.9380  -2.3272  -2.3258  -2.3003  -2.2506
    -2.2145  -2.1689  -2.1645  -2.1265  -2.0890  -2.0772  -2.0642  -2.0409
    -2.0267  -2.0185  -1.9972  -1.9918  -1.9521  -1.8861  -1.8714  -1.8399
    -0.2977  -0.0821   0.0807   0.4520   0.7838   1.0390   1.2006   1.5421
     1.6324   1.7318   1.9563   2.2134

     occupation numbers 
     1.0000   1.0000   1.0000   1.0000   1.0000   1.0000   1.0000   1.0000
     1.0000   1.0000   1.0000   1.0000   1.0000   1.0000   1.0000   1.0000
     1.0000   1.0000   1.0000   1.0000   1.0000   1.0000   1.0000   1.0000
     1.0000   1.0000   1.0000   1.0000   1.0000   1.0000   1.0000   1.0000
     1.0000   1.0000   1.0000   1.0000

          k = 0.3333-0.0962 0.1877 (  5764 PWs)   bands (ev):

   -13.0765 -13.0062 -12.9623 -12.9442  -2.3259  -2.2985  -2.2877  -2.2320
    -2.2285  -2.2033  -2.1783  -2.1467  -2.1365  -2.1198  -2.0570  -2.0453
    -2.0151  -2.0063  -1.9886  -1.9834  -1.9610  -1.9359  -1.8653  -1.8474
    -0.1344  -0.1219  -0.0363   0.3044   0.9490   1.2475   1.4057   1.4726
     1.6647   1.7780   1.8707   2.1115

     occupation numbers 
     1.0000   1.0000   1.0000   1.0000   1.0000   1.0000   1.0000   1.0000
     1.0000   1.0000   1.0000   1.0000   1.0000   1.0000   1.0000   1.0000
     1.0000   1.0000   1.0000   1.0000   1.0000   1.0000   1.0000   1.0000
     1.0000   1.0000   1.0000   1.0000   1.0000   1.0000   1.0000   1.0000
     1.0000   1.0000   1.0000   1.0000

          k = 0.3333-0.0962-0.2816 (  5768 PWs)   bands (ev):

   -13.0414 -13.0413 -12.9531 -12.9530  -2.3118  -2.3118  -2.2484  -2.2484
[...]
    -2.0026  -2.0002  -1.9667  -1.9657  -1.9592  -1.9585  -1.9494  -1.9048
    -0.2930  -0.2839  -0.0503   0.8694   1.1449   1.6942   1.7461   2.0519
     2.1160   2.2454   2.3056   2.4327

     occupation numbers 
     1.0000   1.0000   1.0000   1.0000   1.0000   1.0000   1.0000   1.0000
     1.0000   1.0000   1.0000   1.0000   1.0000   1.0000   1.0000   1.0000
     1.0000   1.0000   1.0000   1.0000   1.0000   1.0000   1.0000   1.0000
     1.0000   1.0000   1.0000   1.0000   1.0000   1.0000   1.0000   1.0000
     1.0000   1.0000   1.0000   1.0000

          k = 0.0000 0.1925-0.0939 (  5771 PWs)   bands (ev):

   -13.2076 -13.0769 -13.0382 -12.9685  -2.3672  -2.3270  -2.3173  -2.3020
    -2.2865  -2.2451  -2.2407  -2.2102  -2.1249  -2.1142  -2.0879  -2.0625
    -2.0283  -2.0128  -2.0066  -1.9834  -1.9557  -1.9507  -1.9299  -1.8805
    -0.5946  -0.2541   0.2767   0.9157   1.1220   1.6514   1.7476   1.8803
     2.0598   2.1514   2.2377   2.4325

     occupation numbers 
     1.0000   1.0000   1.0000   1.0000   1.0000   1.0000   1.0000   1.0000
     1.0000   1.0000   1.0000   1.0000   1.0000   1.0000   1.0000   1.0000
     1.0000   1.0000   1.0000   1.0000   1.0000   1.0000   1.0000   1.0000
     1.0000   1.0000   1.0000   1.0000   1.0000   1.0000   1.0000   1.0000
     1.0000   1.0000   1.0000   1.0000

          k = 0.0000 0.1925-0.1877 (  5766 PWs)   bands (ev):

   -13.1723 -13.0745 -13.0539 -12.9913  -2.3533  -2.3320  -2.3060  -2.3058
    -2.2717  -2.2545  -2.2277  -2.2181  -2.1758  -2.1421  -2.1297  -2.1042
    -2.0114  -2.0005  -1.9995  -1.9781  -1.9675  -1.9619  -1.9597  -1.9304
    -0.2105  -0.1580   0.1666   0.7335   1.1603   1.7417   1.7674   1.8509
     2.0451   2.1335   2.1384   2.3535

     occupation numbers 
     1.0000   1.0000   1.0000   1.0000   1.0000   1.0000   1.0000   1.0000
     1.0000   1.0000   1.0000   1.0000   1.0000   1.0000   1.0000   1.0000
     1.0000   1.0000   1.0000   1.0000   1.0000   1.0000   1.0000   1.0000
     1.0000   1.0000   1.0000   1.0000   1.0000   1.0000   1.0000   1.0000
     1.0000   1.0000   1.0000   1.0000

          k =-0.1667 0.0962-0.0939 (  5771 PWs)   bands (ev):

   -13.2076 -13.0382 -13.0026 -12.9416  -2.3671  -2.3169  -2.3133  -2.2871
    -2.2560  -2.2404  -2.2106  -2.1924  -2.1080  -2.0855  -2.0625  -2.0506
    -2.0284  -2.0126  -2.0076  -1.9786  -1.9556  -1.9298  -1.9085  -1.8496
    -0.5946  -0.1851   0.1052   0.9076   1.1229   1.2673   1.6532   1.6891
     1.8718   2.0577   2.1520   2.4303

     occupation numbers 
     1.0000   1.0000   1.0000   1.0000   1.0000   1.0000   1.0000   1.0000
     1.0000   1.0000   1.0000   1.0000   1.0000   1.0000   1.0000   1.0000
     1.0000   1.0000   1.0000   1.0000   1.0000   1.0000   1.0000   1.0000
     1.0000   1.0000   1.0000   1.0000   1.0000   1.0000   1.0000   1.0000
     1.0000   1.0000   1.0000   1.0000

          k =-0.1667 0.0962-0.1877 (  5769 PWs)   bands (ev):

   -13.1723 -13.0745 -12.9894 -12.9541  -2.3532  -2.3055  -2.2961  -2.2722
    -2.2627  -2.2542  -2.2281  -2.2103  -2.1757  -2.1287  -2.0909  -2.0647
    -2.0114  -2.0003  -1.9980  -1.9713  -1.9674  -1.9619  -1.9044  -1.8726
    -0.2104  -0.2024  -0.0213   0.7339   1.1683   1.4300   1.6558   1.7435
     1.7822   2.0464   2.1363   2.3514

     occupation numbers 
     1.0000   1.0000   1.0000   1.0000   1.0000   1.0000   1.0000   1.0000
     1.0000   1.0000   1.0000   1.0000   1.0000   1.0000   1.0000   1.0000
     1.0000   1.0000   1.0000   1.0000   1.0000   1.0000   1.0000   1.0000
     1.0000   1.0000   1.0000   1.0000   1.0000   1.0000   1.0000   1.0000
     1.0000   1.0000   1.0000   1.0000

          k =-0.1667 0.1925-0.0939 (  5772 PWs)   bands (ev):

   -13.1678 -13.0515 -13.0151 -12.9573  -2.3497  -2.3031  -2.3013  -2.2862
    -2.2783  -2.2254  -2.2073  -2.1760  -2.1541  -2.0909  -2.0701  -2.0615
    -2.0373  -2.0355  -2.0073  -1.9826  -1.9560  -1.9381  -1.9120  -1.8620
    -0.4794  -0.1834   0.2580   0.8575   0.9462   1.3785   1.4235   1.8584
     1.9250   1.9938   2.0849   2.3336

     occupation numbers 
     1.0000   1.0000   1.0000   1.0000   1.0000   1.0000   1.0000   1.0000
     1.0000   1.0000   1.0000   1.0000   1.0000   1.0000   1.0000   1.0000
     1.0000   1.0000   1.0000   1.0000   1.0000   1.0000   1.0000   1.0000
     1.0000   1.0000   1.0000   1.0000   1.0000   1.0000   1.0000   1.0000
     1.0000   1.0000   1.0000   1.0000

          k =-0.1667 0.1925-0.1877 (  5772 PWs)   bands (ev):

   -13.1358 -13.0477 -13.0314 -12.9770  -2.3400  -2.2965  -2.2940  -2.2843
    -2.2624  -2.2363  -2.2016  -2.1938  -2.1625  -2.1504  -2.1173  -2.1065
    -2.0162  -2.0162  -1.9971  -1.9722  -1.9676  -1.9544  -1.9397  -1.9031
    -0.1568  -0.1230   0.1370   0.5864   1.2286   1.5148   1.5179   1.7900
     1.8764   1.9088   2.0341   2.2451

     occupation numbers 
     1.0000   1.0000   1.0000   1.0000   1.0000   1.0000   1.0000   1.0000
     1.0000   1.0000   1.0000   1.0000   1.0000   1.0000   1.0000   1.0000
     1.0000   1.0000   1.0000   1.0000   1.0000   1.0000   1.0000   1.0000
     1.0000   1.0000   1.0000   1.0000   1.0000   1.0000   1.0000   1.0000
     1.0000   1.0000   1.0000   1.0000

          k =-0.3333 0.1925-0.0939 (  5758 PWs)   bands (ev):

   -13.0769 -13.0026 -12.9685 -12.9416  -2.3270  -2.3134  -2.3018  -2.2559
    -2.2457  -2.1927  -2.1249  -2.1147  -2.1081  -2.0877  -2.0857  -2.0504
    -2.0074  -2.0065  -1.9832  -1.9785  -1.9505  -1.9085  -1.8803  -1.8494
    -0.2536  -0.1841   0.1058   0.2780   0.9083   0.9167   1.2657   1.6892
     1.7456   1.8706   1.8804   2.2356

     occupation numbers 
     1.0000   1.0000   1.0000   1.0000   1.0000   1.0000   1.0000   1.0000
     1.0000   1.0000   1.0000   1.0000   1.0000   1.0000   1.0000   1.0000
     1.0000   1.0000   1.0000   1.0000   1.0000   1.0000   1.0000   1.0000
     1.0000   1.0000   1.0000   1.0000   1.0000   1.0000   1.0000   1.0000
     1.0000   1.0000   1.0000   1.0000

          k =-0.3333 0.1925-0.1877 (  5759 PWs)   bands (ev):

   -13.0539 -12.9914 -12.9894 -12.9542  -2.3320  -2.3059  -2.2962  -2.2626
    -2.2186  -2.2106  -2.1426  -2.1295  -2.1289  -2.1040  -2.0908  -2.0646
    -1.9994  -1.9978  -1.9779  -1.9712  -1.9596  -1.9302  -1.9044  -1.8725
    -0.2016  -0.1573  -0.0207   0.1677   1.1612   1.1689   1.4286   1.6559
     1.7679   1.7811   1.8488   2.1314

     occupation numbers 
     1.0000   1.0000   1.0000   1.0000   1.0000   1.0000   1.0000   1.0000
     1.0000   1.0000   1.0000   1.0000   1.0000   1.0000   1.0000   1.0000
     1.0000   1.0000   1.0000   1.0000   1.0000   1.0000   1.0000   1.0000
     1.0000   1.0000   1.0000   1.0000   1.0000   1.0000   1.0000   1.0000
     1.0000   1.0000   1.0000   1.0000

          k =-0.3333-0.0962-0.0939 (  5764 PWs)   bands (ev):

   -13.1023 -12.9804 -12.9693 -12.9380  -2.3272  -2.3258  -2.3003  -2.2506
    -2.2145  -2.1689  -2.1645  -2.1265  -2.0890  -2.0772  -2.0642  -2.0409
    -2.0267  -2.0185  -1.9972  -1.9918  -1.9521  -1.8861  -1.8714  -1.8399
    -0.2977  -0.0820   0.0807   0.4520   0.7838   1.0390   1.2006   1.5421
     1.6324   1.7318   1.9563   2.2134

     occupation numbers 
     1.0000   1.0000   1.0000   1.0000   1.0000   1.0000   1.0000   1.0000
     1.0000   1.0000   1.0000   1.0000   1.0000   1.0000   1.0000   1.0000
     1.0000   1.0000   1.0000   1.0000   1.0000   1.0000   1.0000   1.0000
     1.0000   1.0000   1.0000   1.0000   1.0000   1.0000   1.0000   1.0000
     1.0000   1.0000   1.0000   1.0000

          k =-0.3333-0.0962-0.1877 (  5764 PWs)   bands (ev):

   -13.0765 -13.0062 -12.9623 -12.9442  -2.3260  -2.2985  -2.2877  -2.2320
    -2.2285  -2.2033  -2.1783  -2.1467  -2.1365  -2.1198  -2.0570  -2.0453
    -2.0151  -2.0063  -1.9886  -1.9834  -1.9610  -1.9359  -1.8653  -1.8474
    -0.1344  -0.1219  -0.0363   0.3044   0.9490   1.2475   1.4057   1.4726
     1.6647   1.7780   1.8707   2.1115

     occupation numbers 
     1.0000   1.0000   1.0000   1.0000   1.0000   1.0000   1.0000   1.0000
     1.0000   1.0000   1.0000   1.0000   1.0000   1.0000   1.0000   1.0000
     1.0000   1.0000   1.0000   1.0000   1.0000   1.0000   1.0000   1.0000
     1.0000   1.0000   1.0000   1.0000   1.0000   1.0000   1.0000   1.0000
     1.0000   1.0000   1.0000   1.0000

          k = 0.5000-0.1925-0.0939 (  5772 PWs)   bands (ev):

   -13.0015 -13.0015 -12.9421 -12.9420  -2.3188  -2.3188  -2.2538  -2.2538
    -2.2236  -2.2236  -2.1425  -2.1425  -2.0785  -2.0784  -2.0267  -2.0267
    -1.9653  -1.9653  -1.9598  -1.9598  -1.9108  -1.9108  -1.8709  -1.8709
    -0.3158  -0.3158   0.0755   0.0755   0.8543   0.8543   1.4946   1.4946
     1.6523   1.6524   2.0499   2.0499

     occupation numbers 
     1.0000   1.0000   1.0000   1.0000   1.0000   1.0000   1.0000   1.0000
     1.0000   1.0000   1.0000   1.0000   1.0000   1.0000   1.0000   1.0000
     1.0000   1.0000   1.0000   1.0000   1.0000   1.0000   1.0000   1.0000
     1.0000   1.0000   1.0000   1.0000   1.0000   1.0000   1.0000   1.0000
     1.0000   1.0000   1.0000   1.0000

          k = 0.5000-0.1925-0.1877 (  5750 PWs)   bands (ev):

   -12.9886 -12.9886 -12.9543 -12.9543  -2.3199  -2.3199  -2.2732  -2.2732
    -2.2158  -2.2158  -2.1166  -2.1166  -2.1116  -2.1115  -2.0320  -2.0320
    -1.9664  -1.9664  -1.9600  -1.9600  -1.9114  -1.9114  -1.8892  -1.8892
    -0.3217  -0.3217  -0.0901  -0.0901   1.1715   1.1715   1.6136   1.6136
     1.6675   1.6675   1.9349   1.9350

     occupation numbers 
     1.0000   1.0000   1.0000   1.0000   1.0000   1.0000   1.0000   1.0000
     1.0000   1.0000   1.0000   1.0000   1.0000   1.0000   1.0000   1.0000
     1.0000   1.0000   1.0000   1.0000   1.0000   1.0000   1.0000   1.0000
     1.0000   1.0000   1.0000   1.0000   1.0000   1.0000   1.0000   1.0000
     1.0000   1.0000   1.0000   1.0000

          k = 0.5000-0.0962-0.0939 (  5758 PWs)   bands (ev):

   -13.0026 -13.0026 -12.9416 -12.9415  -2.3136  -2.3136  -2.2561  -2.2561
    -2.1924  -2.1924  -2.1080  -2.1080  -2.0858  -2.0858  -2.0506  -2.0506
    -2.0076  -2.0076  -1.9785  -1.9784  -1.9082  -1.9082  -1.8494  -1.8494
    -0.1838  -0.1838   0.1065   0.1065   0.9077   0.9077   1.2657   1.2657
     1.6889   1.6889   1.8701   1.8701

     occupation numbers 
     1.0000   1.0000   1.0000   1.0000   1.0000   1.0000   1.0000   1.0000
     1.0000   1.0000   1.0000   1.0000   1.0000   1.0000   1.0000   1.0000
     1.0000   1.0000   1.0000   1.0000   1.0000   1.0000   1.0000   1.0000
     1.0000   1.0000   1.0000   1.0000   1.0000   1.0000   1.0000   1.0000
     1.0000   1.0000   1.0000   1.0000

          k = 0.5000-0.0962-0.1877 (  5762 PWs)   bands (ev):

   -12.9894 -12.9894 -12.9542 -12.9541  -2.2963  -2.2963  -2.2629  -2.2629
    -2.2104  -2.2104  -2.1289  -2.1289  -2.0908  -2.0908  -2.0647  -2.0646
    -1.9979  -1.9979  -1.9712  -1.9712  -1.9042  -1.9042  -1.8724  -1.8724
    -0.2013  -0.2013  -0.0201  -0.0201   1.1681   1.1681   1.4290   1.4290
     1.6551   1.6551   1.7811   1.7811

     occupation numbers 
     1.0000   1.0000   1.0000   1.0000   1.0000   1.0000   1.0000   1.0000
     1.0000   1.0000   1.0000   1.0000   1.0000   1.0000   1.0000   1.0000
     1.0000   1.0000   1.0000   1.0000   1.0000   1.0000   1.0000   1.0000
     1.0000   1.0000   1.0000   1.0000   1.0000   1.0000   1.0000   1.0000
     1.0000   1.0000   1.0000   1.0000

     highest occupied level (ev):     2.5497

!    total energy              =    -722.94916292 Ry
     estimated scf accuracy    <          9.1E-09 Ry

     The total energy is the sum of the following terms:
     one-electron contribution =    -390.58073781 Ry
     hartree contribution      =     266.37139771 Ry
     xc contribution           =    -217.78688496 Ry
     ewald contribution        =    -380.95293787 Ry

     convergence has been achieved in  41 iterations

     Forces acting on atoms (cartesian axes, Ry/au):

     atom    1 type  1   force =     0.00000000   -0.00004439    0.01793723
     atom    2 type  2   force =     0.00000000    0.00003238   -0.01795588
     atom    3 type  1   force =     0.00000000    0.00003910    0.01796584
     atom    4 type  2   force =     0.00000000   -0.00003475   -0.01795801
     atom    5 type  1   force =     0.00000000   -0.00002614    0.01794936
     atom    6 type  2   force =     0.00000000    0.00003318   -0.01795622
     atom    7 type  1   force =     0.00000000    0.00003739    0.01797598
     atom    8 type  2   force =     0.00000000   -0.00003677   -0.01795831
     The non-local contrib.  to forces
     atom    1 type  1   force =     0.00000000    0.00037980   -0.11156738
     atom    2 type  2   force =     0.00000000    0.00025030   -0.10626905
     atom    3 type  1   force =     0.00000000   -0.00038546   -0.11154731
     atom    4 type  2   force =     0.00000000   -0.00024582   -0.10626052
     atom    5 type  1   force =     0.00000000    0.00038566   -0.11156254
     atom    6 type  2   force =     0.00000000    0.00025208   -0.10626701
     atom    7 type  1   force =     0.00000000   -0.00038051   -0.11153813
     atom    8 type  2   force =     0.00000000   -0.00025211   -0.10626193
     The ionic contribution  to forces
     atom    1 type  1   force =    -0.00000000   -0.00000000   -0.88536659
     atom    2 type  2   force =     0.00000000    0.00000000    0.88536659
     atom    3 type  1   force =     0.00000000    0.00000000   -0.88536659
     atom    4 type  2   force =    -0.00000000   -0.00000000    0.88536659
     atom    5 type  1   force =    -0.00000000   -0.00000000   -0.88536659
     atom    6 type  2   force =     0.00000000    0.00000000    0.88536659
     atom    7 type  1   force =    -0.00000000    0.00000000   -0.88536659
     atom    8 type  2   force =    -0.00000000   -0.00000000    0.88536659
     The local contribution  to forces
     atom    1 type  1   force =    -0.00000000   -0.00039439    1.01022051
     atom    2 type  2   force =     0.00000000   -0.00022209   -0.79807032
     atom    3 type  1   force =     0.00000000    0.00040229    1.01016138
     atom    4 type  2   force =    -0.00000000    0.00020907   -0.79806825
     atom    5 type  1   force =    -0.00000000   -0.00040156    1.01020255
     atom    6 type  2   force =    -0.00000000   -0.00020618   -0.79806112
     atom    7 type  1   force =     0.00000000    0.00038841    1.01013970
     atom    8 type  2   force =    -0.00000000    0.00021119   -0.79807601
     The core correction contribution to forces
     atom    1 type  1   force =    -0.00000000   -0.00002389    0.00470613
     atom    2 type  2   force =     0.00000000   -0.00000270    0.00098938
     atom    3 type  1   force =    -0.00000000    0.00002388    0.00470744
     atom    4 type  2   force =     0.00000000    0.00000263    0.00098933
     atom    5 type  1   force =    -0.00000000   -0.00002470    0.00470650
     atom    6 type  2   force =    -0.00000000   -0.00000272    0.00098939
     atom    7 type  1   force =     0.00000000    0.00002458    0.00470769
     atom    8 type  2   force =    -0.00000000    0.00000271    0.00098933
     The Hubbard contrib.    to forces
     atom    1 type  1   force =     0.00000000    0.00000000    0.00000000
     atom    2 type  2   force =     0.00000000    0.00000000    0.00000000
     atom    3 type  1   force =     0.00000000    0.00000000    0.00000000
     atom    4 type  2   force =     0.00000000    0.00000000    0.00000000
     atom    5 type  1   force =     0.00000000    0.00000000    0.00000000
     atom    6 type  2   force =     0.00000000    0.00000000    0.00000000
     atom    7 type  1   force =     0.00000000    0.00000000    0.00000000
     atom    8 type  2   force =     0.00000000    0.00000000    0.00000000
     The SCF correction term to forces
     atom    1 type  1   force =     0.00000000   -0.00000418   -0.00006531
     atom    2 type  2   force =    -0.00000000    0.00000861    0.00001764
     atom    3 type  1   force =    -0.00000000    0.00000012    0.00000104
     atom    4 type  2   force =     0.00000000    0.00000110    0.00000496
     atom    5 type  1   force =     0.00000000    0.00001620   -0.00004044
     atom    6 type  2   force =    -0.00000000   -0.00000828    0.00000605
     atom    7 type  1   force =    -0.00000000    0.00000665    0.00002343
     atom    8 type  2   force =     0.00000000    0.00000318    0.00001384

     Total force =     0.050790     Total SCF correction =     0.000087

     init_run     :      6.73s CPU      7.07s WALL (       1 calls)
     electrons    :    495.57s CPU    522.15s WALL (       1 calls)
     forces       :      2.28s CPU      2.36s WALL (       1 calls)

     Called by init_run:
     wfcinit      :      4.40s CPU      4.65s WALL (       1 calls)
     wfcinit:atom :      0.08s CPU      0.08s WALL (      40 calls)
     wfcinit:wfcr :      3.93s CPU      4.18s WALL (      40 calls)
     potinit      :      1.01s CPU      1.02s WALL (       1 calls)
     hinit0       :      1.11s CPU      1.13s WALL (       1 calls)

     Called by electrons:
     c_bands      :    425.46s CPU    445.05s WALL (      41 calls)
     sum_band     :     60.72s CPU     65.85s WALL (      41 calls)
     v_of_rho     :      3.28s CPU      3.41s WALL (      42 calls)
     v_h          :      0.17s CPU      0.19s WALL (      42 calls)
     v_xc         :      3.18s CPU      3.30s WALL (      43 calls)
     newd         :      5.52s CPU      7.26s WALL (      42 calls)
     mix_rho      :      0.52s CPU      0.55s WALL (      41 calls)

     Called by c_bands:
     init_us_2    :      4.86s CPU      4.93s WALL (    3360 calls)
     init_us_2:cp :      4.85s CPU      4.92s WALL (    3360 calls)
     cegterg      :    395.68s CPU    415.17s WALL (    1640 calls)

     Called by sum_band:
     sum_band:wei :      0.01s CPU      0.01s WALL (      41 calls)
     sum_band:loo :     54.05s CPU     57.28s WALL (      41 calls)
     sum_band:buf :      0.35s CPU      0.36s WALL (    1640 calls)
     sum_band:ini :      2.30s CPU      2.33s WALL (    1640 calls)
     sum_band:cal :      6.16s CPU      6.32s WALL (    1640 calls)
     sum_band:bec :      0.12s CPU      0.12s WALL (    1640 calls)
     addusdens    :      6.07s CPU      7.88s WALL (      41 calls)
                                        0.00s GPU  (      41 calls)
     addusd:skk   :      0.04s CPU      0.04s WALL (      82 calls)
                                        0.00s GPU  (      82 calls)

     Called by *egterg:
     cdiaghg      :     33.13s CPU     33.21s WALL (    9471 calls)
     cegterg:over :     19.43s CPU     19.88s WALL (    7831 calls)
     cegterg:upda :     13.15s CPU     13.20s WALL (    7831 calls)
     cegterg:last :     23.31s CPU     23.34s WALL (    3941 calls)
     h_psi        :    277.94s CPU    296.86s WALL (    9511 calls)
     s_psi        :     22.48s CPU     22.54s WALL (    9511 calls)
     g_psi        :      1.76s CPU      1.77s WALL (    7831 calls)

     Called by h_psi:
     h_psi:calbec :     20.28s CPU     21.10s WALL (    9511 calls)
     vloc_psi     :    233.01s CPU    250.98s WALL (    9511 calls)
     add_vuspsi   :     23.52s CPU     23.64s WALL (    9511 calls)

     General routines
     calbec       :     27.00s CPU     28.00s WALL (   11311 calls)
     fft          :      1.83s CPU      2.02s WALL (     555 calls)
     ffts         :      0.26s CPU      0.27s WALL (      83 calls)
     fftw         :    230.86s CPU    249.09s WALL (  404850 calls)
     interpolate  :      0.37s CPU      0.39s WALL (      42 calls)

     Parallel routines

     PWSCF        :   8m24.93s CPU   8m51.94s WALL


   This run was terminated on:   1: 7:13  14Jul2025            

=------------------------------------------------------------------------------=
   JOB DONE.
=------------------------------------------------------------------------------=
Note: The following floating-point exceptions are signalling: IEEE_INVALID_FLAG
Note: The following floating-point exceptions are signalling: IEEE_INVALID_FLAG
