Authorization required, but no authorization protocol specified

Authorization required, but no authorization protocol specified

Authorization required, but no authorization protocol specified

Authorization required, but no authorization protocol specified

Authorization required, but no authorization protocol specified

Authorization required, but no authorization protocol specified

Authorization required, but no authorization protocol specified

Authorization required, but no authorization protocol specified

Authorization required, but no authorization protocol specified

Authorization required, but no authorization protocol specified


     Program PWSCF v.7.2 starts on 13Jul2025 at 20:55:48 

     This program is part of the open-source Quantum ESPRESSO suite
     for quantum simulation of materials; please cite
         "P. Giannozzi et al., J. Phys.:Condens. Matter 21 395502 (2009);
         "P. Giannozzi et al., J. Phys.:Condens. Matter 29 465901 (2017);
         "P. Giannozzi et al., J. Chem. Phys. 152 154105 (2020);
          URL http://www.quantum-espresso.org", 
     in publications or presentations arising from this work. More details at
     http://www.quantum-espresso.org/quote

     Parallel version (MPI), running on     8 processors

     MPI processes distributed on     1 nodes
     56815 MiB available memory on the printing compute node when the environment starts

     Reading input from /home/jvc/QEspresso7.2/ZnO_database/scripts/cell121.in/ZnO-3.47-1.45-121.in
Warning: card &CELL ignored
Warning: card / ignored
Warning: card &FCP ignored
Warning: card / ignored
Warning: card &RISM ignored
Warning: card / ignored

     Current dimensions of program PWSCF are:
     Max number of different atomic species (ntypx) = 10
     Max number of k-points (npk) =  40000
     Max angular momentum in pseudopotentials (lmaxx) =  4
     file Zn.upf: wavefunction(s)  3D renormalized
     Found identity + (  0.0000 -0.5000  0.0000) symmetry
     This is a supercell, fractional translations are disabled
     Message from routine setup:
     using ibrav=0 with symmetry is DISCOURAGED, use correct ibrav instead

     K-points division:     npool     =       2
     R & G space division:  proc/nbgrp/npool/nimage =       4
     Subspace diagonalization in iterative solution of the eigenvalue problem:
     a serial algorithm will be used


     Parallelization info
     --------------------
     sticks:   dense  smooth     PW     G-vecs:    dense   smooth      PW
     Min         591     294     93                23875     8432    1460
     Max         592     296     94                23876     8433    1461
     Sum        2365    1179    373                95501    33729    5843

     Using Slab Decomposition



     bravais-lattice index     =            0
     lattice parameter (alat)  =       6.5496  a.u.
     unit-cell volume          =     707.0408 (a.u.)^3
     number of atoms/cell      =            8
     number of atomic types    =            2
     number of electrons       =        72.00
     number of Kohn-Sham states=           36
     kinetic-energy cutoff     =      50.0000  Ry
     charge density cutoff     =     400.0000  Ry
     scf convergence threshold =      1.0E-08
     mixing beta               =       0.3000
     number of iterations used =            8  plain     mixing
     Exchange-correlation= PBE
                           (   1   4   3   4   0   0   0)

     celldm(1)=   6.549585  celldm(2)=   0.000000  celldm(3)=   0.000000
     celldm(4)=   0.000000  celldm(5)=   0.000000  celldm(6)=   0.000000

     crystal axes: (cart. coord. in units of alat)
               a(1) = (   1.000000   0.000000   0.000000 )  
               a(2) = (  -1.000000   1.732051   0.000000 )  
               a(3) = (   0.000000   0.000000   1.452923 )  

     reciprocal axes: (cart. coord. in units 2 pi/alat)
               b(1) = (  1.000000  0.577350 -0.000000 )  
               b(2) = (  0.000000  0.577350  0.000000 )  
               b(3) = (  0.000000 -0.000000  0.688268 )  


     PseudoPot. # 1 for Zn read from file:
     /home/jvc/QEspresso7.2/ZnO_database/pseudos/Zn.upf
     MD5 check sum: 7f56cabf9682ed8c977c2f7d0c5985c5
     Pseudo is Ultrasoft + core correction, Zval = 12.0
     Generated using &quot;atomic&quot; code by A. Dal Corso  v.6.2.2
     Using radial grid of 1201 points,  6 beta functions with: 
                l(1) =   0
                l(2) =   0
                l(3) =   1
                l(4) =   1
                l(5) =   2
                l(6) =   2
     Q(r) pseudized with 0 coefficients 


     PseudoPot. # 2 for O  read from file:
     /home/jvc/QEspresso7.2/ZnO_database/pseudos/O.upf
     MD5 check sum: 91400c9766925bcf19f520983a725ff0
     Pseudo is Ultrasoft + core correction, Zval =  6.0
     Generated using &quot;atomic&quot; code by A. Dal Corso  v.6.3MaX
     Using radial grid of 1095 points,  4 beta functions with: 
                l(1) =   0
                l(2) =   0
                l(3) =   1
                l(4) =   1
     Q(r) pseudized with 0 coefficients 


     atomic species   valence    mass     pseudopotential
        Zn            12.00    65.38000     Zn( 1.00)
        O              6.00    15.99900     O ( 1.00)

      2 Sym. Ops. (no inversion) found


                                    s                        frac. trans.

      isym =  1     identity                                     

 cryst.   s( 1) = (     1          0          0      )
                  (     0          1          0      )
                  (     0          0          1      )

 cart.    s( 1) = (  1.0000000  0.0000000  0.0000000 )
                  (  0.0000000  1.0000000  0.0000000 )
                  (  0.0000000  0.0000000  1.0000000 )


      isym =  2     inv. 180 deg rotation - cart. axis [1,0,0]   

 cryst.   s( 2) = (    -1          0          0      )
                  (     2          1          0      )
                  (     0          0          1      )

 cart.    s( 2) = ( -1.0000000  0.0000000  0.0000000 )
                  (  0.0000000  1.0000000  0.0000000 )
                  (  0.0000000  0.0000000  1.0000000 )


   Cartesian axes

     site n.     atom                  positions (alat units)
         1           Zn  tau(   1) = (   0.0000000   0.0000000   0.0000000  )
         2           O   tau(   2) = (   0.0000000   0.5773503   0.1338080  )
         3           Zn  tau(   3) = (   0.0000000   0.5773503   0.7264613  )
         4           O   tau(   4) = (   0.0000000   0.0000000   0.8602692  )
         5           Zn  tau(   5) = (  -0.5000000   0.8660254   0.0000000  )
         6           O   tau(   6) = (  -0.5000000   1.4433757   0.1338080  )
         7           Zn  tau(   7) = (  -0.5000000   1.4433757   0.7264613  )
         8           O   tau(   8) = (  -0.5000000   0.8660254   0.8602692  )

   Crystallographic axes

     site n.     atom                  positions (cryst. coord.)
         1           Zn  tau(   1) = (  0.0000000  0.0000000  0.0000000  )
         2           O   tau(   2) = (  0.3333333  0.3333333  0.0920957  )
         3           Zn  tau(   3) = (  0.3333333  0.3333333  0.5000000  )
         4           O   tau(   4) = (  0.0000000  0.0000000  0.5920957  )
         5           Zn  tau(   5) = (  0.0000000  0.5000000  0.0000000  )
         6           O   tau(   6) = (  0.3333333  0.8333333  0.0920957  )
         7           Zn  tau(   7) = (  0.3333333  0.8333333  0.5000000  )
         8           O   tau(   8) = (  0.0000000  0.5000000  0.5920957  )

     number of k points=    80
                       cart. coord. in units 2pi/alat
        k(    1) = (   0.0000000   0.0000000   0.0000000), wk =   0.0092593
        k(    2) = (   0.0000000   0.0000000   0.1147113), wk =   0.0185185
        k(    3) = (   0.0000000   0.0000000   0.2294226), wk =   0.0185185
        k(    4) = (   0.0000000   0.0000000  -0.3441340), wk =   0.0092593
        k(    5) = (   0.0000000   0.0962250   0.0000000), wk =   0.0185185
        k(    6) = (   0.0000000   0.0962250   0.1147113), wk =   0.0185185
        k(    7) = (   0.0000000   0.0962250   0.2294226), wk =   0.0185185
        k(    8) = (   0.0000000   0.0962250  -0.3441340), wk =   0.0185185
        k(    9) = (   0.0000000   0.1924501   0.0000000), wk =   0.0185185
        k(   10) = (   0.0000000   0.1924501   0.1147113), wk =   0.0185185
        k(   11) = (   0.0000000   0.1924501   0.2294226), wk =   0.0185185
        k(   12) = (   0.0000000   0.1924501  -0.3441340), wk =   0.0185185
        k(   13) = (   0.0000000  -0.2886751   0.0000000), wk =   0.0092593
        k(   14) = (   0.0000000  -0.2886751   0.1147113), wk =   0.0185185
        k(   15) = (   0.0000000  -0.2886751   0.2294226), wk =   0.0185185
        k(   16) = (   0.0000000  -0.2886751  -0.3441340), wk =   0.0092593
        k(   17) = (   0.1666667   0.0962250   0.0000000), wk =   0.0370370
        k(   18) = (   0.1666667   0.0962250   0.1147113), wk =   0.0370370
        k(   19) = (   0.1666667   0.0962250   0.2294226), wk =   0.0370370
        k(   20) = (   0.1666667   0.0962250  -0.3441340), wk =   0.0370370
        k(   21) = (   0.1666667   0.1924501   0.0000000), wk =   0.0370370
        k(   22) = (   0.1666667   0.1924501   0.1147113), wk =   0.0370370
        k(   23) = (   0.1666667   0.1924501   0.2294226), wk =   0.0370370
        k(   24) = (   0.1666667   0.1924501  -0.3441340), wk =   0.0370370
        k(   25) = (   0.1666667   0.2886751   0.0000000), wk =   0.0185185
        k(   26) = (   0.1666667   0.2886751   0.1147113), wk =   0.0370370
        k(   27) = (   0.1666667   0.2886751   0.2294226), wk =   0.0370370
        k(   28) = (   0.1666667   0.2886751  -0.3441340), wk =   0.0185185
        k(   29) = (   0.1666667   0.0000000   0.0000000), wk =   0.0185185
        k(   30) = (   0.1666667   0.0000000   0.1147113), wk =   0.0370370
        k(   31) = (   0.1666667   0.0000000   0.2294226), wk =   0.0370370
        k(   32) = (   0.1666667   0.0000000  -0.3441340), wk =   0.0185185
        k(   33) = (   0.3333333   0.1924501   0.0000000), wk =   0.0370370
        k(   34) = (   0.3333333   0.1924501   0.1147113), wk =   0.0370370
        k(   35) = (   0.3333333   0.1924501   0.2294226), wk =   0.0370370
        k(   36) = (   0.3333333   0.1924501  -0.3441340), wk =   0.0370370
        k(   37) = (   0.3333333   0.2886751   0.0000000), wk =   0.0185185
        k(   38) = (   0.3333333   0.2886751   0.1147113), wk =   0.0370370
        k(   39) = (   0.3333333   0.2886751   0.2294226), wk =   0.0370370
        k(   40) = (   0.3333333   0.2886751  -0.3441340), wk =   0.0185185
        k(   41) = (   0.3333333  -0.0962250   0.0000000), wk =   0.0370370
        k(   42) = (   0.3333333  -0.0962250   0.1147113), wk =   0.0370370
        k(   43) = (   0.3333333  -0.0962250   0.2294226), wk =   0.0370370
        k(   44) = (   0.3333333  -0.0962250  -0.3441340), wk =   0.0370370
        k(   45) = (   0.3333333  -0.0000000   0.0000000), wk =   0.0185185
        k(   46) = (   0.3333333  -0.0000000   0.1147113), wk =   0.0370370
        k(   47) = (   0.3333333  -0.0000000   0.2294226), wk =   0.0370370
        k(   48) = (   0.3333333  -0.0000000  -0.3441340), wk =   0.0185185
        k(   49) = (  -0.5000000  -0.2886751   0.0000000), wk =   0.0092593
        k(   50) = (  -0.5000000  -0.2886751   0.1147113), wk =   0.0185185
        k(   51) = (  -0.5000000  -0.2886751   0.2294226), wk =   0.0185185
        k(   52) = (  -0.5000000  -0.2886751  -0.3441340), wk =   0.0092593
        k(   53) = (  -0.5000000  -0.1924501   0.0000000), wk =   0.0185185
        k(   54) = (  -0.5000000  -0.1924501   0.1147113), wk =   0.0185185
        k(   55) = (  -0.5000000  -0.1924501   0.2294226), wk =   0.0185185
        k(   56) = (  -0.5000000  -0.1924501  -0.3441340), wk =   0.0185185
        k(   57) = (  -0.5000000  -0.0962250   0.0000000), wk =   0.0185185
        k(   58) = (  -0.5000000  -0.0962250   0.1147113), wk =   0.0185185
        k(   59) = (  -0.5000000  -0.0962250   0.2294226), wk =   0.0185185
        k(   60) = (  -0.5000000  -0.0962250  -0.3441340), wk =   0.0185185
        k(   61) = (  -0.5000000  -0.5773503   0.0000000), wk =   0.0092593
        k(   62) = (  -0.5000000  -0.5773503   0.1147113), wk =   0.0185185
        k(   63) = (  -0.5000000  -0.5773503   0.2294226), wk =   0.0185185
        k(   64) = (  -0.5000000  -0.5773503  -0.3441340), wk =   0.0092593
        k(   65) = (   0.0000000   0.0962250  -0.1147113), wk =   0.0185185
        k(   66) = (   0.0000000   0.0962250  -0.2294226), wk =   0.0185185
        k(   67) = (   0.0000000   0.1924501  -0.1147113), wk =   0.0185185
        k(   68) = (   0.0000000   0.1924501  -0.2294226), wk =   0.0185185
        k(   69) = (  -0.1666667   0.0962250  -0.1147113), wk =   0.0370370
        k(   70) = (  -0.1666667   0.0962250  -0.2294226), wk =   0.0370370
        k(   71) = (  -0.1666667   0.1924501  -0.1147113), wk =   0.0370370
        k(   72) = (  -0.1666667   0.1924501  -0.2294226), wk =   0.0370370
        k(   73) = (  -0.3333333   0.1924501  -0.1147113), wk =   0.0370370
        k(   74) = (  -0.3333333   0.1924501  -0.2294226), wk =   0.0370370
        k(   75) = (  -0.3333333  -0.0962250  -0.1147113), wk =   0.0370370
        k(   76) = (  -0.3333333  -0.0962250  -0.2294226), wk =   0.0370370
        k(   77) = (   0.5000000  -0.1924501  -0.1147113), wk =   0.0185185
        k(   78) = (   0.5000000  -0.1924501  -0.2294226), wk =   0.0185185
        k(   79) = (   0.5000000  -0.0962250  -0.1147113), wk =   0.0185185
        k(   80) = (   0.5000000  -0.0962250  -0.2294226), wk =   0.0185185

                       cryst. coord.
        k(    1) = (   0.0000000   0.0000000   0.0000000), wk =   0.0092593
        k(    2) = (   0.0000000   0.0000000   0.1666667), wk =   0.0185185
        k(    3) = (   0.0000000   0.0000000   0.3333333), wk =   0.0185185
        k(    4) = (   0.0000000   0.0000000  -0.5000000), wk =   0.0092593
        k(    5) = (   0.0000000   0.1666667   0.0000000), wk =   0.0185185
        k(    6) = (   0.0000000   0.1666667   0.1666667), wk =   0.0185185
        k(    7) = (   0.0000000   0.1666667   0.3333333), wk =   0.0185185
        k(    8) = (   0.0000000   0.1666667  -0.5000000), wk =   0.0185185
        k(    9) = (   0.0000000   0.3333333   0.0000000), wk =   0.0185185
        k(   10) = (   0.0000000   0.3333333   0.1666667), wk =   0.0185185
        k(   11) = (   0.0000000   0.3333333   0.3333333), wk =   0.0185185
        k(   12) = (   0.0000000   0.3333333  -0.5000000), wk =   0.0185185
        k(   13) = (   0.0000000  -0.5000000   0.0000000), wk =   0.0092593
        k(   14) = (   0.0000000  -0.5000000   0.1666667), wk =   0.0185185
        k(   15) = (   0.0000000  -0.5000000   0.3333333), wk =   0.0185185
        k(   16) = (   0.0000000  -0.5000000  -0.5000000), wk =   0.0092593
        k(   17) = (   0.1666667   0.0000000   0.0000000), wk =   0.0370370
        k(   18) = (   0.1666667   0.0000000   0.1666667), wk =   0.0370370
        k(   19) = (   0.1666667   0.0000000   0.3333333), wk =   0.0370370
        k(   20) = (   0.1666667   0.0000000  -0.5000000), wk =   0.0370370
        k(   21) = (   0.1666667   0.1666667   0.0000000), wk =   0.0370370
        k(   22) = (   0.1666667   0.1666667   0.1666667), wk =   0.0370370
        k(   23) = (   0.1666667   0.1666667   0.3333333), wk =   0.0370370
        k(   24) = (   0.1666667   0.1666667  -0.5000000), wk =   0.0370370
        k(   25) = (   0.1666667   0.3333333   0.0000000), wk =   0.0185185
        k(   26) = (   0.1666667   0.3333333   0.1666667), wk =   0.0370370
        k(   27) = (   0.1666667   0.3333333   0.3333333), wk =   0.0370370
        k(   28) = (   0.1666667   0.3333333  -0.5000000), wk =   0.0185185
        k(   29) = (   0.1666667  -0.1666667   0.0000000), wk =   0.0185185
        k(   30) = (   0.1666667  -0.1666667   0.1666667), wk =   0.0370370
        k(   31) = (   0.1666667  -0.1666667   0.3333333), wk =   0.0370370
        k(   32) = (   0.1666667  -0.1666667  -0.5000000), wk =   0.0185185
        k(   33) = (   0.3333333   0.0000000   0.0000000), wk =   0.0370370
        k(   34) = (   0.3333333   0.0000000   0.1666667), wk =   0.0370370
        k(   35) = (   0.3333333   0.0000000   0.3333333), wk =   0.0370370
        k(   36) = (   0.3333333   0.0000000  -0.5000000), wk =   0.0370370
        k(   37) = (   0.3333333   0.1666667   0.0000000), wk =   0.0185185
        k(   38) = (   0.3333333   0.1666667   0.1666667), wk =   0.0370370
        k(   39) = (   0.3333333   0.1666667   0.3333333), wk =   0.0370370
        k(   40) = (   0.3333333   0.1666667  -0.5000000), wk =   0.0185185
        k(   41) = (   0.3333333  -0.5000000   0.0000000), wk =   0.0370370
        k(   42) = (   0.3333333  -0.5000000   0.1666667), wk =   0.0370370
        k(   43) = (   0.3333333  -0.5000000   0.3333333), wk =   0.0370370
        k(   44) = (   0.3333333  -0.5000000  -0.5000000), wk =   0.0370370
        k(   45) = (   0.3333333  -0.3333333   0.0000000), wk =   0.0185185
        k(   46) = (   0.3333333  -0.3333333   0.1666667), wk =   0.0370370
        k(   47) = (   0.3333333  -0.3333333   0.3333333), wk =   0.0370370
        k(   48) = (   0.3333333  -0.3333333  -0.5000000), wk =   0.0185185
        k(   49) = (  -0.5000000   0.0000000   0.0000000), wk =   0.0092593
        k(   50) = (  -0.5000000   0.0000000   0.1666667), wk =   0.0185185
        k(   51) = (  -0.5000000   0.0000000   0.3333333), wk =   0.0185185
        k(   52) = (  -0.5000000   0.0000000  -0.5000000), wk =   0.0092593
        k(   53) = (  -0.5000000   0.1666667   0.0000000), wk =   0.0185185
        k(   54) = (  -0.5000000   0.1666667   0.1666667), wk =   0.0185185
        k(   55) = (  -0.5000000   0.1666667   0.3333333), wk =   0.0185185
        k(   56) = (  -0.5000000   0.1666667  -0.5000000), wk =   0.0185185
        k(   57) = (  -0.5000000   0.3333333   0.0000000), wk =   0.0185185
        k(   58) = (  -0.5000000   0.3333333   0.1666667), wk =   0.0185185
        k(   59) = (  -0.5000000   0.3333333   0.3333333), wk =   0.0185185
        k(   60) = (  -0.5000000   0.3333333  -0.5000000), wk =   0.0185185
        k(   61) = (  -0.5000000  -0.5000000   0.0000000), wk =   0.0092593
        k(   62) = (  -0.5000000  -0.5000000   0.1666667), wk =   0.0185185
        k(   63) = (  -0.5000000  -0.5000000   0.3333333), wk =   0.0185185
        k(   64) = (  -0.5000000  -0.5000000  -0.5000000), wk =   0.0092593
        k(   65) = (   0.0000000   0.1666667  -0.1666667), wk =   0.0185185
        k(   66) = (   0.0000000   0.1666667  -0.3333333), wk =   0.0185185
        k(   67) = (   0.0000000   0.3333333  -0.1666667), wk =   0.0185185
        k(   68) = (   0.0000000   0.3333333  -0.3333333), wk =   0.0185185
        k(   69) = (  -0.1666667   0.3333333  -0.1666667), wk =   0.0370370
        k(   70) = (  -0.1666667   0.3333333  -0.3333333), wk =   0.0370370
        k(   71) = (  -0.1666667   0.5000000  -0.1666667), wk =   0.0370370
        k(   72) = (  -0.1666667   0.5000000  -0.3333333), wk =   0.0370370
        k(   73) = (  -0.3333333   0.6666667  -0.1666667), wk =   0.0370370
        k(   74) = (  -0.3333333   0.6666667  -0.3333333), wk =   0.0370370
        k(   75) = (  -0.3333333   0.1666667  -0.1666667), wk =   0.0370370
        k(   76) = (  -0.3333333   0.1666667  -0.3333333), wk =   0.0370370
        k(   77) = (   0.5000000  -0.8333333  -0.1666667), wk =   0.0185185
        k(   78) = (   0.5000000  -0.8333333  -0.3333333), wk =   0.0185185
        k(   79) = (   0.5000000  -0.6666667  -0.1666667), wk =   0.0185185
        k(   80) = (   0.5000000  -0.6666667  -0.3333333), wk =   0.0185185

     Dense  grid:    95501 G-vectors     FFT dimensions: (  45,  90,  64)

     Smooth grid:    33729 G-vectors     FFT dimensions: (  30,  60,  45)

     Dynamical RAM for                 wfc:       0.58 MB

     Dynamical RAM for     wfc (w. buffer):      23.76 MB

     Dynamical RAM for           str. fact:       0.73 MB

     Dynamical RAM for           local pot:       0.00 MB

     Dynamical RAM for          nlocal pot:       1.67 MB

     Dynamical RAM for                qrad:       3.21 MB

     Dynamical RAM for          rho,v,vnew:       2.58 MB

     Dynamical RAM for               rhoin:       0.86 MB

     Dynamical RAM for            rho*nmix:       5.83 MB

     Dynamical RAM for           G-vectors:       1.43 MB

     Dynamical RAM for          h,s,v(r/c):       0.24 MB

     Dynamical RAM for          <psi|beta>:       0.06 MB

     Dynamical RAM for                 psi:       1.16 MB

     Dynamical RAM for                hpsi:       1.16 MB

     Dynamical RAM for                spsi:       1.16 MB

     Dynamical RAM for      wfcinit/wfcrot:       1.74 MB

     Dynamical RAM for           addusdens:      34.79 MB

     Dynamical RAM for          addusforce:      35.90 MB

     Estimated static dynamical RAM per process >      37.80 MB

     Estimated max dynamical RAM per process >      79.53 MB

     Estimated total dynamical RAM >     612.96 MB

     Check: negative core charge=   -0.000002

     Initial potential from superposition of free atoms

     starting charge      71.9851, renormalised to      72.0000
     Starting wfcs are   52 randomized atomic wfcs

     total cpu time spent up to now is        6.1 secs

     Self-consistent Calculation

     iteration #  1     ecut=    50.00 Ry     beta= 0.30
     Davidson diagonalization with overlap

---- Real-time Memory Report at c_bands before calling an iterative solver
            80 MiB given to the printing process from OS
             0 MiB allocation reported by mallinfo(arena+hblkhd)
         56417 MiB available memory on the node where the printing process lives
------------------
     ethr =  1.00E-02,  avg # of iterations =  1.9

     total cpu time spent up to now is       13.4 secs

     total energy              =    -722.90122499 Ry
     estimated scf accuracy    <       1.45719932 Ry

     iteration #  2     ecut=    50.00 Ry     beta= 0.30
     Davidson diagonalization with overlap

---- Real-time Memory Report at c_bands before calling an iterative solver
           111 MiB given to the printing process from OS
             0 MiB allocation reported by mallinfo(arena+hblkhd)
         56219 MiB available memory on the node where the printing process lives
------------------
     ethr =  2.02E-03,  avg # of iterations =  2.0

     total cpu time spent up to now is       22.4 secs

     total energy              =    -723.13291522 Ry
     estimated scf accuracy    <       0.16619591 Ry

     iteration #  3     ecut=    50.00 Ry     beta= 0.30
     Davidson diagonalization with overlap

---- Real-time Memory Report at c_bands before calling an iterative solver
           112 MiB given to the printing process from OS
             0 MiB allocation reported by mallinfo(arena+hblkhd)
         56230 MiB available memory on the node where the printing process lives
------------------
     ethr =  2.31E-04,  avg # of iterations =  6.8

     total cpu time spent up to now is       37.7 secs

     total energy              =    -723.18152121 Ry
     estimated scf accuracy    <       0.13560907 Ry

     iteration #  4     ecut=    50.00 Ry     beta= 0.30
     Davidson diagonalization with overlap

---- Real-time Memory Report at c_bands before calling an iterative solver
           112 MiB given to the printing process from OS
             0 MiB allocation reported by mallinfo(arena+hblkhd)
         56250 MiB available memory on the node where the printing process lives
------------------
     ethr =  1.88E-04,  avg # of iterations =  8.8

     total cpu time spent up to now is       57.1 secs

     total energy              =    -723.27369802 Ry
     estimated scf accuracy    <       0.53177084 Ry

     iteration #  5     ecut=    50.00 Ry     beta= 0.30
     Davidson diagonalization with overlap

---- Real-time Memory Report at c_bands before calling an iterative solver
           112 MiB given to the printing process from OS
             0 MiB allocation reported by mallinfo(arena+hblkhd)
         56257 MiB available memory on the node where the printing process lives
------------------
     ethr =  1.88E-04,  avg # of iterations =  2.0

     total cpu time spent up to now is       64.6 secs

     total energy              =    -723.02689526 Ry
     estimated scf accuracy    <       0.31277362 Ry

     iteration #  6     ecut=    50.00 Ry     beta= 0.30
     Davidson diagonalization with overlap

---- Real-time Memory Report at c_bands before calling an iterative solver
           112 MiB given to the printing process from OS
             0 MiB allocation reported by mallinfo(arena+hblkhd)
         56252 MiB available memory on the node where the printing process lives
------------------
     ethr =  1.88E-04,  avg # of iterations = 10.0

     total cpu time spent up to now is       84.8 secs

     total energy              =    -723.15436489 Ry
     estimated scf accuracy    <       1.28235483 Ry

     iteration #  7     ecut=    50.00 Ry     beta= 0.30
     Davidson diagonalization with overlap

---- Real-time Memory Report at c_bands before calling an iterative solver
           113 MiB given to the printing process from OS
             0 MiB allocation reported by mallinfo(arena+hblkhd)
         56261 MiB available memory on the node where the printing process lives
------------------
     ethr =  1.88E-04,  avg # of iterations =  5.5

     total cpu time spent up to now is       97.7 secs

     total energy              =    -723.24974890 Ry
     estimated scf accuracy    <       0.12631314 Ry

     iteration #  8     ecut=    50.00 Ry     beta= 0.30
     Davidson diagonalization with overlap

---- Real-time Memory Report at c_bands before calling an iterative solver
           113 MiB given to the printing process from OS
             0 MiB allocation reported by mallinfo(arena+hblkhd)
         56263 MiB available memory on the node where the printing process lives
------------------
     ethr =  1.75E-04,  avg # of iterations =  1.2

     total cpu time spent up to now is      104.7 secs

     total energy              =    -723.23432508 Ry
     estimated scf accuracy    <       0.07572254 Ry

     iteration #  9     ecut=    50.00 Ry     beta= 0.30
     Davidson diagonalization with overlap

---- Real-time Memory Report at c_bands before calling an iterative solver
           113 MiB given to the printing process from OS
             0 MiB allocation reported by mallinfo(arena+hblkhd)
         56257 MiB available memory on the node where the printing process lives
------------------
     ethr =  1.05E-04,  avg # of iterations =  2.4

     total cpu time spent up to now is      112.8 secs

     total energy              =    -723.23313024 Ry
     estimated scf accuracy    <       0.02563971 Ry

     iteration # 10     ecut=    50.00 Ry     beta= 0.30
     Davidson diagonalization with overlap

---- Real-time Memory Report at c_bands before calling an iterative solver
           113 MiB given to the printing process from OS
             0 MiB allocation reported by mallinfo(arena+hblkhd)
         56267 MiB available memory on the node where the printing process lives
------------------
     ethr =  3.56E-05,  avg # of iterations =  5.5

     total cpu time spent up to now is      125.0 secs

     total energy              =    -723.24594363 Ry
     estimated scf accuracy    <       0.00068825 Ry

     iteration # 11     ecut=    50.00 Ry     beta= 0.30
     Davidson diagonalization with overlap

---- Real-time Memory Report at c_bands before calling an iterative solver
           113 MiB given to the printing process from OS
             0 MiB allocation reported by mallinfo(arena+hblkhd)
         56269 MiB available memory on the node where the printing process lives
------------------
     ethr =  9.56E-07,  avg # of iterations =  7.0

     total cpu time spent up to now is      138.4 secs

     total energy              =    -723.24640127 Ry
     estimated scf accuracy    <       0.00083449 Ry

     iteration # 12     ecut=    50.00 Ry     beta= 0.30
     Davidson diagonalization with overlap

---- Real-time Memory Report at c_bands before calling an iterative solver
           113 MiB given to the printing process from OS
             0 MiB allocation reported by mallinfo(arena+hblkhd)
         56273 MiB available memory on the node where the printing process lives
------------------
     ethr =  9.56E-07,  avg # of iterations =  1.2

     total cpu time spent up to now is      145.3 secs

     total energy              =    -723.24696876 Ry
     estimated scf accuracy    <       0.00055642 Ry

     iteration # 13     ecut=    50.00 Ry     beta= 0.30
     Davidson diagonalization with overlap

---- Real-time Memory Report at c_bands before calling an iterative solver
           113 MiB given to the printing process from OS
             0 MiB allocation reported by mallinfo(arena+hblkhd)
         56274 MiB available memory on the node where the printing process lives
------------------
     ethr =  7.73E-07,  avg # of iterations =  4.8

     total cpu time spent up to now is      156.3 secs

     total energy              =    -723.24707578 Ry
     estimated scf accuracy    <       0.00278888 Ry

     iteration # 14     ecut=    50.00 Ry     beta= 0.30
     Davidson diagonalization with overlap

---- Real-time Memory Report at c_bands before calling an iterative solver
           113 MiB given to the printing process from OS
             0 MiB allocation reported by mallinfo(arena+hblkhd)
         56276 MiB available memory on the node where the printing process lives
------------------
     ethr =  7.73E-07,  avg # of iterations =  1.5

     total cpu time spent up to now is      163.4 secs

     total energy              =    -723.24675772 Ry
     estimated scf accuracy    <       0.00278681 Ry

     iteration # 15     ecut=    50.00 Ry     beta= 0.30
     Davidson diagonalization with overlap

---- Real-time Memory Report at c_bands before calling an iterative solver
           113 MiB given to the printing process from OS
             0 MiB allocation reported by mallinfo(arena+hblkhd)
         56282 MiB available memory on the node where the printing process lives
------------------
     ethr =  7.73E-07,  avg # of iterations =  1.0

     total cpu time spent up to now is      170.2 secs

     total energy              =    -723.24656969 Ry
     estimated scf accuracy    <       0.00214665 Ry

     iteration # 16     ecut=    50.00 Ry     beta= 0.30
     Davidson diagonalization with overlap

---- Real-time Memory Report at c_bands before calling an iterative solver
           113 MiB given to the printing process from OS
             0 MiB allocation reported by mallinfo(arena+hblkhd)
         56283 MiB available memory on the node where the printing process lives
------------------
     ethr =  7.73E-07,  avg # of iterations =  2.0

     total cpu time spent up to now is      177.9 secs

     total energy              =    -723.24634508 Ry
     estimated scf accuracy    <       0.00139940 Ry

     iteration # 17     ecut=    50.00 Ry     beta= 0.30
     Davidson diagonalization with overlap

---- Real-time Memory Report at c_bands before calling an iterative solver
           113 MiB given to the printing process from OS
             0 MiB allocation reported by mallinfo(arena+hblkhd)
         56286 MiB available memory on the node where the printing process lives
------------------
     ethr =  7.73E-07,  avg # of iterations =  2.0

     total cpu time spent up to now is      185.6 secs

     total energy              =    -723.24629960 Ry
     estimated scf accuracy    <       0.00076022 Ry

     iteration # 18     ecut=    50.00 Ry     beta= 0.30
     Davidson diagonalization with overlap

---- Real-time Memory Report at c_bands before calling an iterative solver
           113 MiB given to the printing process from OS
             0 MiB allocation reported by mallinfo(arena+hblkhd)
         56286 MiB available memory on the node where the printing process lives
------------------
     ethr =  7.73E-07,  avg # of iterations =  2.0

     total cpu time spent up to now is      193.3 secs

     total energy              =    -723.24607723 Ry
     estimated scf accuracy    <       0.00044711 Ry

     iteration # 19     ecut=    50.00 Ry     beta= 0.30
     Davidson diagonalization with overlap

---- Real-time Memory Report at c_bands before calling an iterative solver
           113 MiB given to the printing process from OS
             0 MiB allocation reported by mallinfo(arena+hblkhd)
         56287 MiB available memory on the node where the printing process lives
------------------
     ethr =  6.21E-07,  avg # of iterations =  6.6

     total cpu time spent up to now is      207.6 secs

     total energy              =    -723.24632285 Ry
     estimated scf accuracy    <       0.00027819 Ry

     iteration # 20     ecut=    50.00 Ry     beta= 0.30
     Davidson diagonalization with overlap

---- Real-time Memory Report at c_bands before calling an iterative solver
           113 MiB given to the printing process from OS
             0 MiB allocation reported by mallinfo(arena+hblkhd)
         56290 MiB available memory on the node where the printing process lives
------------------
     ethr =  3.86E-07,  avg # of iterations =  2.0

     total cpu time spent up to now is      215.1 secs

     total energy              =    -723.24628401 Ry
     estimated scf accuracy    <       0.00008979 Ry

     iteration # 21     ecut=    50.00 Ry     beta= 0.30
     Davidson diagonalization with overlap

---- Real-time Memory Report at c_bands before calling an iterative solver
           113 MiB given to the printing process from OS
             0 MiB allocation reported by mallinfo(arena+hblkhd)
         56290 MiB available memory on the node where the printing process lives
------------------
     ethr =  1.25E-07,  avg # of iterations =  6.4

     total cpu time spent up to now is      229.7 secs

     total energy              =    -723.24636271 Ry
     estimated scf accuracy    <       0.00008356 Ry

     iteration # 22     ecut=    50.00 Ry     beta= 0.30
     Davidson diagonalization with overlap

---- Real-time Memory Report at c_bands before calling an iterative solver
           113 MiB given to the printing process from OS
             0 MiB allocation reported by mallinfo(arena+hblkhd)
         56291 MiB available memory on the node where the printing process lives
------------------
     ethr =  1.16E-07,  avg # of iterations =  1.0

     total cpu time spent up to now is      236.5 secs

     total energy              =    -723.24637040 Ry
     estimated scf accuracy    <       0.00006571 Ry

     iteration # 23     ecut=    50.00 Ry     beta= 0.30
     Davidson diagonalization with overlap

---- Real-time Memory Report at c_bands before calling an iterative solver
           113 MiB given to the printing process from OS
             0 MiB allocation reported by mallinfo(arena+hblkhd)
         56293 MiB available memory on the node where the printing process lives
------------------
     ethr =  9.13E-08,  avg # of iterations =  1.0

     total cpu time spent up to now is      243.2 secs

     total energy              =    -723.24636224 Ry
     estimated scf accuracy    <       0.00008078 Ry

     iteration # 24     ecut=    50.00 Ry     beta= 0.30
     Davidson diagonalization with overlap

---- Real-time Memory Report at c_bands before calling an iterative solver
           113 MiB given to the printing process from OS
             0 MiB allocation reported by mallinfo(arena+hblkhd)
         56294 MiB available memory on the node where the printing process lives
------------------
     ethr =  9.13E-08,  avg # of iterations =  1.0

     total cpu time spent up to now is      250.0 secs

     total energy              =    -723.24635834 Ry
     estimated scf accuracy    <       0.00006578 Ry

     iteration # 25     ecut=    50.00 Ry     beta= 0.30
     Davidson diagonalization with overlap

---- Real-time Memory Report at c_bands before calling an iterative solver
           113 MiB given to the printing process from OS
             0 MiB allocation reported by mallinfo(arena+hblkhd)
         56294 MiB available memory on the node where the printing process lives
------------------
     ethr =  9.13E-08,  avg # of iterations =  1.0

     total cpu time spent up to now is      256.7 secs

     total energy              =    -723.24635681 Ry
     estimated scf accuracy    <       0.00005247 Ry

     iteration # 26     ecut=    50.00 Ry     beta= 0.30
     Davidson diagonalization with overlap

---- Real-time Memory Report at c_bands before calling an iterative solver
           113 MiB given to the printing process from OS
             0 MiB allocation reported by mallinfo(arena+hblkhd)
         56295 MiB available memory on the node where the printing process lives
------------------
     ethr =  7.29E-08,  avg # of iterations =  1.0

     total cpu time spent up to now is      263.5 secs

     total energy              =    -723.24634614 Ry
     estimated scf accuracy    <       0.00004772 Ry

     iteration # 27     ecut=    50.00 Ry     beta= 0.30
     Davidson diagonalization with overlap

---- Real-time Memory Report at c_bands before calling an iterative solver
           113 MiB given to the printing process from OS
             0 MiB allocation reported by mallinfo(arena+hblkhd)
         56296 MiB available memory on the node where the printing process lives
------------------
     ethr =  6.63E-08,  avg # of iterations =  1.3

     total cpu time spent up to now is      270.5 secs

     total energy              =    -723.24634806 Ry
     estimated scf accuracy    <       0.00002186 Ry

     iteration # 28     ecut=    50.00 Ry     beta= 0.30
     Davidson diagonalization with overlap

---- Real-time Memory Report at c_bands before calling an iterative solver
           113 MiB given to the printing process from OS
             0 MiB allocation reported by mallinfo(arena+hblkhd)
         56297 MiB available memory on the node where the printing process lives
------------------
     ethr =  3.04E-08,  avg # of iterations =  2.0

     total cpu time spent up to now is      278.1 secs

     total energy              =    -723.24634677 Ry
     estimated scf accuracy    <       0.00001689 Ry

     iteration # 29     ecut=    50.00 Ry     beta= 0.30
     Davidson diagonalization with overlap

---- Real-time Memory Report at c_bands before calling an iterative solver
           113 MiB given to the printing process from OS
             0 MiB allocation reported by mallinfo(arena+hblkhd)
         56297 MiB available memory on the node where the printing process lives
------------------
     ethr =  2.35E-08,  avg # of iterations =  2.0

     total cpu time spent up to now is      285.6 secs

     total energy              =    -723.24634292 Ry
     estimated scf accuracy    <       0.00001023 Ry

     iteration # 30     ecut=    50.00 Ry     beta= 0.30
     Davidson diagonalization with overlap

---- Real-time Memory Report at c_bands before calling an iterative solver
           113 MiB given to the printing process from OS
             0 MiB allocation reported by mallinfo(arena+hblkhd)
         56298 MiB available memory on the node where the printing process lives
------------------
     ethr =  1.42E-08,  avg # of iterations =  6.2

     total cpu time spent up to now is      299.1 secs

     total energy              =    -723.24634837 Ry
     estimated scf accuracy    <       0.00000328 Ry

     iteration # 31     ecut=    50.00 Ry     beta= 0.30
     Davidson diagonalization with overlap

---- Real-time Memory Report at c_bands before calling an iterative solver
           113 MiB given to the printing process from OS
             0 MiB allocation reported by mallinfo(arena+hblkhd)
         56299 MiB available memory on the node where the printing process lives
------------------
     ethr =  4.56E-09,  avg # of iterations =  2.0

     total cpu time spent up to now is      307.0 secs

     total energy              =    -723.24634810 Ry
     estimated scf accuracy    <       0.00000090 Ry

     iteration # 32     ecut=    50.00 Ry     beta= 0.30
     Davidson diagonalization with overlap

---- Real-time Memory Report at c_bands before calling an iterative solver
           113 MiB given to the printing process from OS
             0 MiB allocation reported by mallinfo(arena+hblkhd)
         56299 MiB available memory on the node where the printing process lives
------------------
     ethr =  1.25E-09,  avg # of iterations =  6.9

     total cpu time spent up to now is      322.9 secs

     total energy              =    -723.24634904 Ry
     estimated scf accuracy    <       0.00000136 Ry

     iteration # 33     ecut=    50.00 Ry     beta= 0.30
     Davidson diagonalization with overlap

---- Real-time Memory Report at c_bands before calling an iterative solver
           113 MiB given to the printing process from OS
             0 MiB allocation reported by mallinfo(arena+hblkhd)
         56300 MiB available memory on the node where the printing process lives
------------------
     ethr =  1.25E-09,  avg # of iterations =  1.0

     total cpu time spent up to now is      329.6 secs

     total energy              =    -723.24634859 Ry
     estimated scf accuracy    <       0.00000105 Ry

     iteration # 34     ecut=    50.00 Ry     beta= 0.30
     Davidson diagonalization with overlap

---- Real-time Memory Report at c_bands before calling an iterative solver
           113 MiB given to the printing process from OS
             0 MiB allocation reported by mallinfo(arena+hblkhd)
         56300 MiB available memory on the node where the printing process lives
------------------
     ethr =  1.25E-09,  avg # of iterations =  2.9

     total cpu time spent up to now is      338.2 secs

     total energy              =    -723.24634870 Ry
     estimated scf accuracy    <       0.00000022 Ry

     iteration # 35     ecut=    50.00 Ry     beta= 0.30
     Davidson diagonalization with overlap

---- Real-time Memory Report at c_bands before calling an iterative solver
           113 MiB given to the printing process from OS
             0 MiB allocation reported by mallinfo(arena+hblkhd)
         56300 MiB available memory on the node where the printing process lives
------------------
     ethr =  3.06E-10,  avg # of iterations =  5.7

     total cpu time spent up to now is      351.0 secs

     total energy              =    -723.24634882 Ry
     estimated scf accuracy    <       0.00000005 Ry

     iteration # 36     ecut=    50.00 Ry     beta= 0.30
     Davidson diagonalization with overlap

---- Real-time Memory Report at c_bands before calling an iterative solver
           113 MiB given to the printing process from OS
             0 MiB allocation reported by mallinfo(arena+hblkhd)
         56300 MiB available memory on the node where the printing process lives
------------------
     ethr =  7.48E-11,  avg # of iterations =  4.5

     total cpu time spent up to now is      362.2 secs

     total energy              =    -723.24634881 Ry
     estimated scf accuracy    <       0.00000007 Ry

     iteration # 37     ecut=    50.00 Ry     beta= 0.30
     Davidson diagonalization with overlap

---- Real-time Memory Report at c_bands before calling an iterative solver
           113 MiB given to the printing process from OS
             0 MiB allocation reported by mallinfo(arena+hblkhd)
         56301 MiB available memory on the node where the printing process lives
------------------
     ethr =  7.48E-11,  avg # of iterations =  5.5

     total cpu time spent up to now is      373.1 secs

     End of self-consistent calculation

          k = 0.0000 0.0000 0.0000 (  4227 PWs)   bands (ev):

   -11.4225 -10.8886 -10.7042 -10.6619   0.5591   0.6087   0.6089   0.7060
     0.7061   0.7775   0.9143   0.9221   1.1495   1.2308   1.3424   1.3725
     1.4822   1.4822   1.5909   1.5949   1.7041   1.7042   1.7461   1.7699
     1.9853   2.4200   2.5786   3.5021   3.7220   4.8709   5.0205   5.0979
     5.0982   5.7699   5.8252   5.8256

     occupation numbers 
     1.0000   1.0000   1.0000   1.0000   1.0000   1.0000   1.0000   1.0000
     1.0000   1.0000   1.0000   1.0000   1.0000   1.0000   1.0000   1.0000
     1.0000   1.0000   1.0000   1.0000   1.0000   1.0000   1.0000   1.0000
     1.0000   1.0000   1.0000   1.0000   1.0000   1.0000   1.0000   1.0000
     1.0000   1.0000   1.0000   1.0000

          k = 0.0000 0.0000 0.1147 (  4247 PWs)   bands (ev):

   -11.3754 -10.8697 -10.7530 -10.6730   0.5116   0.6049   0.6051   0.6790
     0.6892   0.6893   0.8612   0.9291   1.0276   1.0821   1.2033   1.3005
     1.5061   1.5061   1.6012   1.6377   1.6980   1.6981   1.7253   1.7696
     2.3633   2.4506   2.5216   3.8250   3.8507   4.9432   5.0396   5.1503
     5.1506   5.2113   5.7808   5.7812

     occupation numbers 
     1.0000   1.0000   1.0000   1.0000   1.0000   1.0000   1.0000   1.0000
     1.0000   1.0000   1.0000   1.0000   1.0000   1.0000   1.0000   1.0000
     1.0000   1.0000   1.0000   1.0000   1.0000   1.0000   1.0000   1.0000
     1.0000   1.0000   1.0000   1.0000   1.0000   1.0000   1.0000   1.0000
     1.0000   1.0000   1.0000   1.0000

          k = 0.0000 0.0000 0.2294 (  4222 PWs)   bands (ev):

   -11.2457 -10.8860 -10.8205 -10.7066   0.4074   0.4695   0.6033   0.6034
     0.6523   0.6525   0.7303   0.7307   0.9733   1.0407   1.1314   1.1649
     1.5651   1.5651   1.6183   1.6751   1.6752   1.6831   1.6991   1.7619
     2.3375   2.4343   3.1651   4.0882   4.5198   4.5222   4.7272   5.2458
     5.2914   5.2917   5.6560   5.6564

     occupation numbers 
     1.0000   1.0000   1.0000   1.0000   1.0000   1.0000   1.0000   1.0000
     1.0000   1.0000   1.0000   1.0000   1.0000   1.0000   1.0000   1.0000
     1.0000   1.0000   1.0000   1.0000   1.0000   1.0000   1.0000   1.0000
     1.0000   1.0000   1.0000   1.0000   1.0000   1.0000   1.0000   1.0000
     1.0000   1.0000   1.0000   1.0000

          k = 0.0000 0.0000-0.3441 (  4202 PWs)   bands (ev):

   -11.0668 -11.0667 -10.7597 -10.7596   0.3613   0.3613   0.6183   0.6183
     0.6184   0.6185   0.6479   0.6479   1.0452   1.0452   1.0704   1.0705
     1.6289   1.6289   1.6289   1.6290   1.6457   1.6457   1.7397   1.7397
     2.3715   2.3715   3.8590   3.8590   4.4186   4.4187   5.0793   5.0793
     5.4777   5.4778   5.4780   5.4781

     occupation numbers 
     1.0000   1.0000   1.0000   1.0000   1.0000   1.0000   1.0000   1.0000
     1.0000   1.0000   1.0000   1.0000   1.0000   1.0000   1.0000   1.0000
     1.0000   1.0000   1.0000   1.0000   1.0000   1.0000   1.0000   1.0000
     1.0000   1.0000   1.0000   1.0000   1.0000   1.0000   1.0000   1.0000
     1.0000   1.0000   1.0000   1.0000

          k = 0.0000 0.0962 0.0000 (  4213 PWs)   bands (ev):

   -11.3934 -10.9401 -10.6960 -10.6503   0.5303   0.5839   0.6323   0.7086
     0.7339   0.7640   0.9003   0.9398   1.1323   1.1851   1.3038   1.3746
     1.4725   1.4788   1.5195   1.5693   1.7080   1.7444   1.7994   1.8512
     1.9912   2.3794   2.8303   3.4540   3.8241   4.8724   4.9806   5.0074
     5.0799   5.3386   5.7334   5.7773

     occupation numbers 
     1.0000   1.0000   1.0000   1.0000   1.0000   1.0000   1.0000   1.0000
     1.0000   1.0000   1.0000   1.0000   1.0000   1.0000   1.0000   1.0000
     1.0000   1.0000   1.0000   1.0000   1.0000   1.0000   1.0000   1.0000
     1.0000   1.0000   1.0000   1.0000   1.0000   1.0000   1.0000   1.0000
     1.0000   1.0000   1.0000   1.0000

          k = 0.0000 0.0962 0.1147 (  4226 PWs)   bands (ev):

   -11.3474 -10.9173 -10.7430 -10.6659   0.4876   0.5758   0.6289   0.6771
     0.6843   0.7169   0.8807   0.9125   1.0293   1.0546   1.1587   1.2747
     1.5002   1.5032   1.5715   1.5781   1.7012   1.7248   1.7253   1.8289
     2.3727   2.4836   2.7921   3.7792   3.9219   4.9084   5.0030   5.0044
     5.0629   5.1322   5.7301   5.7474

     occupation numbers 
     1.0000   1.0000   1.0000   1.0000   1.0000   1.0000   1.0000   1.0000
     1.0000   1.0000   1.0000   1.0000   1.0000   1.0000   1.0000   1.0000
     1.0000   1.0000   1.0000   1.0000   1.0000   1.0000   1.0000   1.0000
     1.0000   1.0000   1.0000   1.0000   1.0000   1.0000   1.0000   1.0000
     1.0000   1.0000   1.0000   1.0000

          k = 0.0000 0.0962 0.2294 (  4239 PWs)   bands (ev):

   -11.2210 -10.8716 -10.8573 -10.7117   0.3940   0.4756   0.5553   0.6062
     0.6279   0.6785   0.7654   0.7733   0.9505   0.9962   1.0919   1.1156
     1.5622   1.5651   1.6030   1.6576   1.6760   1.6835   1.6878   1.7866
     2.4301   2.6617   3.1790   4.1742   4.4030   4.4673   4.7939   5.1260
     5.2117   5.2888   5.5976   5.6090

     occupation numbers 
     1.0000   1.0000   1.0000   1.0000   1.0000   1.0000   1.0000   1.0000
     1.0000   1.0000   1.0000   1.0000   1.0000   1.0000   1.0000   1.0000
     1.0000   1.0000   1.0000   1.0000   1.0000   1.0000   1.0000   1.0000
     1.0000   1.0000   1.0000   1.0000   1.0000   1.0000   1.0000   1.0000
     1.0000   1.0000   1.0000   1.0000

          k = 0.0000 0.0962-0.3441 (  4228 PWs)   bands (ev):

   -11.0469 -11.0468 -10.7810 -10.7809   0.3598   0.3599   0.5425   0.5425
     0.6437   0.6437   0.7140   0.7140   1.0138   1.0139   1.0190   1.0191
     1.6274   1.6274   1.6351   1.6351   1.6397   1.6398   1.7308   1.7308
     2.5341   2.5341   3.8233   3.8234   4.4938   4.4939   5.0654   5.0655
     5.3724   5.3725   5.4087   5.4088

     occupation numbers 
     1.0000   1.0000   1.0000   1.0000   1.0000   1.0000   1.0000   1.0000
     1.0000   1.0000   1.0000   1.0000   1.0000   1.0000   1.0000   1.0000
     1.0000   1.0000   1.0000   1.0000   1.0000   1.0000   1.0000   1.0000
     1.0000   1.0000   1.0000   1.0000   1.0000   1.0000   1.0000   1.0000
     1.0000   1.0000   1.0000   1.0000

          k = 0.0000 0.1925 0.0000 (  4216 PWs)   bands (ev):

   -11.3111 -11.0566 -10.6753 -10.6418   0.4871   0.5297   0.6964   0.7166
     0.7442   0.8125   0.8552   0.9839   1.0695   1.0948   1.2629   1.3709
     1.4007   1.4477   1.4750   1.5196   1.7178   1.7384   1.9055   1.9225
     2.0923   2.5077   3.0966   3.6390   4.0887   4.2907   4.7219   4.7628
     5.2120   5.2377   5.6230   5.6404

     occupation numbers 
     1.0000   1.0000   1.0000   1.0000   1.0000   1.0000   1.0000   1.0000
     1.0000   1.0000   1.0000   1.0000   1.0000   1.0000   1.0000   1.0000
     1.0000   1.0000   1.0000   1.0000   1.0000   1.0000   1.0000   1.0000
     1.0000   1.0000   1.0000   1.0000   1.0000   1.0000   1.0000   1.0000
     1.0000   1.0000   1.0000   1.0000

          k = 0.0000 0.1925 0.1147 (  4226 PWs)   bands (ev):

   -11.2684 -11.0264 -10.7173 -10.6666   0.4551   0.5142   0.6723   0.6746
     0.6942   0.7945   0.8617   0.9231   1.0113   1.0447   1.0462   1.1906
     1.4871   1.4987   1.4990   1.5351   1.7085   1.7227   1.7823   1.8531
     2.5783   2.6069   3.2155   3.7539   4.1749   4.3287   4.5753   4.8261
     5.1675   5.3250   5.5863   5.6575

     occupation numbers 
     1.0000   1.0000   1.0000   1.0000   1.0000   1.0000   1.0000   1.0000
     1.0000   1.0000   1.0000   1.0000   1.0000   1.0000   1.0000   1.0000
     1.0000   1.0000   1.0000   1.0000   1.0000   1.0000   1.0000   1.0000
     1.0000   1.0000   1.0000   1.0000   1.0000   1.0000   1.0000   1.0000
     1.0000   1.0000   1.0000   1.0000

          k = 0.0000 0.1925 0.2294 (  4221 PWs)   bands (ev):

   -11.1516 -10.9453 -10.8329 -10.7370   0.3834   0.4741   0.4856   0.5460
     0.6962   0.7537   0.8170   0.8383   0.8848   0.9233   0.9904   1.0109
     1.5578   1.5695   1.5759   1.6105   1.6782   1.6825   1.7205   1.7872
     2.7524   3.0996   3.1868   4.0679   4.3856   4.4016   4.7587   4.9719
     4.9956   5.3730   5.4347   5.5258

     occupation numbers 
     1.0000   1.0000   1.0000   1.0000   1.0000   1.0000   1.0000   1.0000
     1.0000   1.0000   1.0000   1.0000   1.0000   1.0000   1.0000   1.0000
     1.0000   1.0000   1.0000   1.0000   1.0000   1.0000   1.0000   1.0000
     1.0000   1.0000   1.0000   1.0000   1.0000   1.0000   1.0000   1.0000
     1.0000   1.0000   1.0000   1.0000

          k = 0.0000 0.1925-0.3441 (  4240 PWs)   bands (ev):

   -10.9920 -10.9920 -10.8386 -10.8385   0.3652   0.3652   0.4580   0.4580
     0.7156   0.7156   0.7811   0.7811   0.9257   0.9257   0.9294   0.9294
     1.6248   1.6248   1.6293   1.6293   1.6533   1.6534   1.7089   1.7089
     2.9173   2.9174   3.6728   3.6728   4.6942   4.6942   5.0397   5.0397
     5.1711   5.1711   5.2196   5.2197

     occupation numbers 
     1.0000   1.0000   1.0000   1.0000   1.0000   1.0000   1.0000   1.0000
     1.0000   1.0000   1.0000   1.0000   1.0000   1.0000   1.0000   1.0000
     1.0000   1.0000   1.0000   1.0000   1.0000   1.0000   1.0000   1.0000
     1.0000   1.0000   1.0000   1.0000   1.0000   1.0000   1.0000   1.0000
     1.0000   1.0000   1.0000   1.0000

          k = 0.0000-0.2887 0.0000 (  4226 PWs)   bands (ev):

   -11.1910 -11.1909 -10.6527 -10.6526   0.4862   0.4862   0.7287   0.7287
     0.7807   0.7807   0.9315   0.9315   1.0415   1.0415   1.2830   1.2830
     1.4166   1.4166   1.4849   1.4849   1.7290   1.7290   1.9253   1.9253
     2.3493   2.3493   3.6118   3.6118   4.1430   4.1430   4.4302   4.4302
     5.4437   5.4438   5.4440   5.4440

     occupation numbers 
     1.0000   1.0000   1.0000   1.0000   1.0000   1.0000   1.0000   1.0000
     1.0000   1.0000   1.0000   1.0000   1.0000   1.0000   1.0000   1.0000
     1.0000   1.0000   1.0000   1.0000   1.0000   1.0000   1.0000   1.0000
     1.0000   1.0000   1.0000   1.0000   1.0000   1.0000   1.0000   1.0000
     1.0000   1.0000   1.0000   1.0000

          k = 0.0000-0.2887 0.1147 (  4226 PWs)   bands (ev):

   -11.1537 -11.1536 -10.6870 -10.6869   0.4633   0.4633   0.6698   0.6699
     0.7815   0.7816   0.9116   0.9116   0.9694   0.9694   1.0965   1.0965
     1.4796   1.4796   1.5062   1.5063   1.7165   1.7166   1.8315   1.8315
     2.6848   2.6848   3.7082   3.7082   4.0814   4.0815   4.5042   4.5042
     5.3814   5.3815   5.5139   5.5139

     occupation numbers 
     1.0000   1.0000   1.0000   1.0000   1.0000   1.0000   1.0000   1.0000
     1.0000   1.0000   1.0000   1.0000   1.0000   1.0000   1.0000   1.0000
     1.0000   1.0000   1.0000   1.0000   1.0000   1.0000   1.0000   1.0000
     1.0000   1.0000   1.0000   1.0000   1.0000   1.0000   1.0000   1.0000
     1.0000   1.0000   1.0000   1.0000

          k = 0.0000-0.2887 0.2294 (  4218 PWs)   bands (ev):

   -11.0524 -11.0524 -10.7824 -10.7823   0.4090   0.4090   0.5052   0.5052
     0.7909   0.7910   0.8654   0.8654   0.8658   0.8658   0.9141   0.9141
     1.5599   1.5599   1.5830   1.5830   1.6803   1.6803   1.7590   1.7590
     3.0709   3.0709   3.5969   3.5969   4.4510   4.4510   4.7012   4.7013
     5.2069   5.2069   5.4517   5.4518

     occupation numbers 
     1.0000   1.0000   1.0000   1.0000   1.0000   1.0000   1.0000   1.0000
     1.0000   1.0000   1.0000   1.0000   1.0000   1.0000   1.0000   1.0000
     1.0000   1.0000   1.0000   1.0000   1.0000   1.0000   1.0000   1.0000
     1.0000   1.0000   1.0000   1.0000   1.0000   1.0000   1.0000   1.0000
     1.0000   1.0000   1.0000   1.0000

          k = 0.0000-0.2887-0.3441 (  4252 PWs)   bands (ev):

   -10.9160 -10.9159 -10.9159 -10.9158   0.3954   0.3954   0.3954   0.3954
     0.8192   0.8192   0.8192   0.8192   0.8463   0.8463   0.8464   0.8464
     1.6243   1.6243   1.6243   1.6243   1.6804   1.6804   1.6804   1.6804
     3.3484   3.3484   3.3484   3.3484   4.9595   4.9596   4.9596   4.9597
     5.0521   5.0521   5.0521   5.0521

     occupation numbers 
     1.0000   1.0000   1.0000   1.0000   1.0000   1.0000   1.0000   1.0000
     1.0000   1.0000   1.0000   1.0000   1.0000   1.0000   1.0000   1.0000
     1.0000   1.0000   1.0000   1.0000   1.0000   1.0000   1.0000   1.0000
     1.0000   1.0000   1.0000   1.0000   1.0000   1.0000   1.0000   1.0000
     1.0000   1.0000   1.0000   1.0000

          k = 0.1667 0.0962 0.0000 (  4227 PWs)   bands (ev):

   -11.3111 -10.8942 -10.6753 -10.6581   0.5298   0.6376   0.6962   0.7167
     0.8124   0.8263   0.9301   0.9840   1.1002   1.2629   1.2824   1.4198
     1.4477   1.4564   1.4750   1.5751   1.7177   1.7484   1.8686   1.9225
     2.0923   2.3866   2.8184   3.2322   3.6869   4.2909   4.7030   4.7220
     4.7626   4.8719   5.6230   5.6402

     occupation numbers 
     1.0000   1.0000   1.0000   1.0000   1.0000   1.0000   1.0000   1.0000
     1.0000   1.0000   1.0000   1.0000   1.0000   1.0000   1.0000   1.0000
     1.0000   1.0000   1.0000   1.0000   1.0000   1.0000   1.0000   1.0000
     1.0000   1.0000   1.0000   1.0000   1.0000   1.0000   1.0000   1.0000
     1.0000   1.0000   1.0000   1.0000

          k = 0.1667 0.0962 0.1147 (  4220 PWs)   bands (ev):

   -11.2684 -10.8747 -10.7173 -10.6699   0.5143   0.5956   0.6746   0.6941
     0.7741   0.7944   0.9091   0.9231   1.0309   1.0447   1.2266   1.2668
     1.4871   1.4990   1.5388   1.5993   1.7085   1.7365   1.7823   1.8587
     2.3922   2.5783   2.7840   3.3212   4.0057   4.3289   4.5754   4.6147
     4.8259   5.0473   5.5860   5.6575

     occupation numbers 
     1.0000   1.0000   1.0000   1.0000   1.0000   1.0000   1.0000   1.0000
     1.0000   1.0000   1.0000   1.0000   1.0000   1.0000   1.0000   1.0000
     1.0000   1.0000   1.0000   1.0000   1.0000   1.0000   1.0000   1.0000
     1.0000   1.0000   1.0000   1.0000   1.0000   1.0000   1.0000   1.0000
     1.0000   1.0000   1.0000   1.0000

          k = 0.1667 0.0962 0.2294 (  4224 PWs)   bands (ev):

   -11.1516 -10.8329 -10.8240 -10.7053   0.4742   0.4957   0.5461   0.5742
     0.6961   0.7536   0.8170   0.8383   0.9268   0.9937   1.0774   1.1445
     1.5578   1.5695   1.6000   1.6169   1.6782   1.7205   1.7434   1.8289
     2.4547   2.6684   3.1868   3.6024   4.0679   4.3290   4.6771   4.7589
     4.9954   5.2872   5.4345   5.5259

     occupation numbers 
     1.0000   1.0000   1.0000   1.0000   1.0000   1.0000   1.0000   1.0000
     1.0000   1.0000   1.0000   1.0000   1.0000   1.0000   1.0000   1.0000
     1.0000   1.0000   1.0000   1.0000   1.0000   1.0000   1.0000   1.0000
     1.0000   1.0000   1.0000   1.0000   1.0000   1.0000   1.0000   1.0000
     1.0000   1.0000   1.0000   1.0000

          k = 0.1667 0.0962-0.3441 (  4220 PWs)   bands (ev):

   -10.9920 -10.9920 -10.7608 -10.7607   0.4547   0.4547   0.4581   0.4581
     0.7154   0.7155   0.7811   0.7811   0.9747   0.9748   1.0492   1.0492
     1.6176   1.6176   1.6248   1.6248   1.6534   1.6534   1.7861   1.7861
     2.5531   2.5531   3.6729   3.6729   3.9758   3.9759   5.1713   5.1713
     5.1804   5.1804   5.2194   5.2195

     occupation numbers 
     1.0000   1.0000   1.0000   1.0000   1.0000   1.0000   1.0000   1.0000
     1.0000   1.0000   1.0000   1.0000   1.0000   1.0000   1.0000   1.0000
     1.0000   1.0000   1.0000   1.0000   1.0000   1.0000   1.0000   1.0000
     1.0000   1.0000   1.0000   1.0000   1.0000   1.0000   1.0000   1.0000
     1.0000   1.0000   1.0000   1.0000

          k = 0.1667 0.1925 0.0000 (  4227 PWs)   bands (ev):

   -11.2363 -11.0037 -10.6599 -10.6419   0.5095   0.5793   0.7239   0.7470
     0.7559   0.8737   0.8897   1.0270   1.0325   1.2023   1.2658   1.3372
     1.4225   1.4314   1.4753   1.5353   1.7247   1.7421   1.9157   1.9294
     2.2573   2.5194   3.1443   3.5041   3.7084   3.9358   4.2149   4.5991
     4.9256   5.1180   5.4737   5.5192

     occupation numbers 
     1.0000   1.0000   1.0000   1.0000   1.0000   1.0000   1.0000   1.0000
     1.0000   1.0000   1.0000   1.0000   1.0000   1.0000   1.0000   1.0000
     1.0000   1.0000   1.0000   1.0000   1.0000   1.0000   1.0000   1.0000
     1.0000   1.0000   1.0000   1.0000   1.0000   1.0000   1.0000   1.0000
     1.0000   1.0000   1.0000   1.0000

          k = 0.1667 0.1925 0.1147 (  4226 PWs)   bands (ev):

   -11.1969 -10.9766 -10.6972 -10.6629   0.4898   0.5442   0.6701   0.7036
     0.7470   0.8503   0.8848   0.9653   0.9765   1.0697   1.1382   1.1711
     1.4817   1.5000   1.5006   1.5618   1.7138   1.7276   1.8177   1.8715
     2.5973   2.6568   3.1446   3.7096   3.8375   3.9892   4.1981   4.6085
     4.8395   5.2603   5.4112   5.5826

     occupation numbers 
     1.0000   1.0000   1.0000   1.0000   1.0000   1.0000   1.0000   1.0000
     1.0000   1.0000   1.0000   1.0000   1.0000   1.0000   1.0000   1.0000
     1.0000   1.0000   1.0000   1.0000   1.0000   1.0000   1.0000   1.0000
     1.0000   1.0000   1.0000   1.0000   1.0000   1.0000   1.0000   1.0000
     1.0000   1.0000   1.0000   1.0000

          k = 0.1667 0.1925 0.2294 (  4234 PWs)   bands (ev):

   -11.0895 -10.9044 -10.8005 -10.7227   0.4400   0.4588   0.5191   0.5364
     0.7492   0.7973   0.8686   0.8771   0.8841   0.9210   0.9823   1.0691
     1.5576   1.5770   1.5936   1.6065   1.6800   1.7023   1.7466   1.8084
     2.7239   3.0211   3.1442   3.7863   3.9289   4.4653   4.5613   4.6513
     4.7607   5.2397   5.3871   5.5006

     occupation numbers 
     1.0000   1.0000   1.0000   1.0000   1.0000   1.0000   1.0000   1.0000
     1.0000   1.0000   1.0000   1.0000   1.0000   1.0000   1.0000   1.0000
     1.0000   1.0000   1.0000   1.0000   1.0000   1.0000   1.0000   1.0000
     1.0000   1.0000   1.0000   1.0000   1.0000   1.0000   1.0000   1.0000
     1.0000   1.0000   1.0000   1.0000

          k = 0.1667 0.1925-0.3441 (  4238 PWs)   bands (ev):

   -10.9440 -10.9439 -10.8105 -10.8104   0.4213   0.4213   0.4249   0.4249
     0.7621   0.7621   0.8340   0.8340   0.8831   0.8831   0.9925   0.9925
     1.6229   1.6229   1.6279   1.6279   1.6719   1.6719   1.7375   1.7375
     2.8663   2.8663   3.4947   3.4947   4.2538   4.2539   4.9844   4.9845
     5.1241   5.1241   5.1446   5.1446

     occupation numbers 
     1.0000   1.0000   1.0000   1.0000   1.0000   1.0000   1.0000   1.0000
     1.0000   1.0000   1.0000   1.0000   1.0000   1.0000   1.0000   1.0000
     1.0000   1.0000   1.0000   1.0000   1.0000   1.0000   1.0000   1.0000
     1.0000   1.0000   1.0000   1.0000   1.0000   1.0000   1.0000   1.0000
     1.0000   1.0000   1.0000   1.0000

          k = 0.1667 0.2887 0.0000 (  4222 PWs)   bands (ev):

   -11.1269 -11.1268 -10.6449 -10.6449   0.5228   0.5228   0.7337   0.7337
     0.8186   0.8186   0.9452   0.9453   1.1061   1.1061   1.2918   1.2918
     1.4217   1.4217   1.4893   1.4893   1.7334   1.7334   1.9223   1.9223
     2.4657   2.4658   3.6150   3.6150   3.6443   3.6443   4.2088   4.2088
     5.2042   5.2042   5.3499   5.3499

     occupation numbers 
     1.0000   1.0000   1.0000   1.0000   1.0000   1.0000   1.0000   1.0000
     1.0000   1.0000   1.0000   1.0000   1.0000   1.0000   1.0000   1.0000
     1.0000   1.0000   1.0000   1.0000   1.0000   1.0000   1.0000   1.0000
     1.0000   1.0000   1.0000   1.0000   1.0000   1.0000   1.0000   1.0000
     1.0000   1.0000   1.0000   1.0000

          k = 0.1667 0.2887 0.1147 (  4218 PWs)   bands (ev):

   -11.0928 -11.0927 -10.6749 -10.6748   0.4971   0.4971   0.6762   0.6762
     0.8183   0.8183   0.9057   0.9057   1.0495   1.0495   1.1082   1.1082
     1.4840   1.4840   1.5181   1.5181   1.7203   1.7204   1.8507   1.8507
     2.7130   2.7130   3.5888   3.5888   3.8508   3.8508   4.2105   4.2105
     5.1303   5.1304   5.4510   5.4511

     occupation numbers 
     1.0000   1.0000   1.0000   1.0000   1.0000   1.0000   1.0000   1.0000
     1.0000   1.0000   1.0000   1.0000   1.0000   1.0000   1.0000   1.0000
     1.0000   1.0000   1.0000   1.0000   1.0000   1.0000   1.0000   1.0000
     1.0000   1.0000   1.0000   1.0000   1.0000   1.0000   1.0000   1.0000
     1.0000   1.0000   1.0000   1.0000

          k = 0.1667 0.2887 0.2294 (  4226 PWs)   bands (ev):

   -11.0007 -11.0006 -10.7588 -10.7587   0.4328   0.4328   0.5127   0.5127
     0.8189   0.8189   0.8353   0.8353   0.9328   0.9328   0.9688   0.9688
     1.5682   1.5683   1.5910   1.5910   1.6856   1.6856   1.7793   1.7793
     2.9942   2.9942   3.4155   3.4155   4.3612   4.3613   4.4590   4.4590
     4.9313   4.9314   5.4618   5.4618

     occupation numbers 
     1.0000   1.0000   1.0000   1.0000   1.0000   1.0000   1.0000   1.0000
     1.0000   1.0000   1.0000   1.0000   1.0000   1.0000   1.0000   1.0000
     1.0000   1.0000   1.0000   1.0000   1.0000   1.0000   1.0000   1.0000
     1.0000   1.0000   1.0000   1.0000   1.0000   1.0000   1.0000   1.0000
     1.0000   1.0000   1.0000   1.0000

          k = 0.1667 0.2887-0.3441 (  4228 PWs)   bands (ev):

   -10.8777 -10.8777 -10.8776 -10.8776   0.4075   0.4075   0.4075   0.4075
     0.8117   0.8117   0.8117   0.8117   0.9148   0.9148   0.9148   0.9148
     1.6237   1.6238   1.6238   1.6238   1.7008   1.7009   1.7009   1.7009
     3.2098   3.2098   3.2098   3.2098   4.6301   4.6302   4.6302   4.6303
     5.1137   5.1137   5.1138   5.1138

     occupation numbers 
     1.0000   1.0000   1.0000   1.0000   1.0000   1.0000   1.0000   1.0000
     1.0000   1.0000   1.0000   1.0000   1.0000   1.0000   1.0000   1.0000
     1.0000   1.0000   1.0000   1.0000   1.0000   1.0000   1.0000   1.0000
     1.0000   1.0000   1.0000   1.0000   1.0000   1.0000   1.0000   1.0000
     1.0000   1.0000   1.0000   1.0000

          k = 0.1667 0.0000 0.0000 (  4219 PWs)   bands (ev):

   -11.3376 -10.8427 -10.6815 -10.6752   0.5488   0.6553   0.6717   0.7170
     0.7838   0.8800   0.9508   0.9711   1.1169   1.2698   1.3207   1.4346
     1.4556   1.4751   1.5562   1.5718   1.7147   1.7479   1.7617   1.9064
     2.0423   2.4150   2.6418   3.0324   3.8293   4.5263   4.5917   4.6910
     4.7577   4.9808   5.6610   5.6679

     occupation numbers 
     1.0000   1.0000   1.0000   1.0000   1.0000   1.0000   1.0000   1.0000
     1.0000   1.0000   1.0000   1.0000   1.0000   1.0000   1.0000   1.0000
     1.0000   1.0000   1.0000   1.0000   1.0000   1.0000   1.0000   1.0000
     1.0000   1.0000   1.0000   1.0000   1.0000   1.0000   1.0000   1.0000
     1.0000   1.0000   1.0000   1.0000

          k = 0.1667 0.0000 0.1147 (  4223 PWs)   bands (ev):

   -11.2939 -10.8275 -10.7252 -10.6822   0.5356   0.6127   0.6610   0.6880
     0.7651   0.8391   0.8926   0.9123   1.0380   1.0562   1.2735   1.3137
     1.4908   1.4993   1.5882   1.5980   1.7063   1.7664   1.7696   1.7728
     2.3762   2.5482   2.5798   3.1670   4.1385   4.5155   4.5646   4.6153
     4.9252   4.9346   5.6154   5.6934

     occupation numbers 
     1.0000   1.0000   1.0000   1.0000   1.0000   1.0000   1.0000   1.0000
     1.0000   1.0000   1.0000   1.0000   1.0000   1.0000   1.0000   1.0000
     1.0000   1.0000   1.0000   1.0000   1.0000   1.0000   1.0000   1.0000
     1.0000   1.0000   1.0000   1.0000   1.0000   1.0000   1.0000   1.0000
     1.0000   1.0000   1.0000   1.0000

          k = 0.1667 0.0000 0.2294 (  4224 PWs)   bands (ev):

   -11.1739 -10.8451 -10.7887 -10.7045   0.5002   0.5113   0.5589   0.5934
     0.6742   0.7231   0.8095   0.8179   0.9394   1.0341   1.1569   1.1599
     1.5586   1.5677   1.6007   1.6015   1.6775   1.7108   1.8028   1.8065
     2.3696   2.4848   3.1911   3.4824   4.1792   4.2494   4.7449   4.8733
     5.0499   5.2285   5.4688   5.5595

     occupation numbers 
     1.0000   1.0000   1.0000   1.0000   1.0000   1.0000   1.0000   1.0000
     1.0000   1.0000   1.0000   1.0000   1.0000   1.0000   1.0000   1.0000
     1.0000   1.0000   1.0000   1.0000   1.0000   1.0000   1.0000   1.0000
     1.0000   1.0000   1.0000   1.0000   1.0000   1.0000   1.0000   1.0000
     1.0000   1.0000   1.0000   1.0000

          k = 0.1667 0.0000-0.3441 (  4234 PWs)   bands (ev):

   -11.0095 -11.0094 -10.7425 -10.7424   0.4684   0.4684   0.4811   0.4812
     0.6881   0.6881   0.7661   0.7661   1.0192   1.0192   1.0795   1.0795
     1.6010   1.6010   1.6250   1.6251   1.6478   1.6478   1.8179   1.8179
     2.4145   2.4145   3.7310   3.7310   3.8742   3.8743   5.1953   5.1954
     5.2259   5.2259   5.2720   5.2721

     occupation numbers 
     1.0000   1.0000   1.0000   1.0000   1.0000   1.0000   1.0000   1.0000
     1.0000   1.0000   1.0000   1.0000   1.0000   1.0000   1.0000   1.0000
     1.0000   1.0000   1.0000   1.0000   1.0000   1.0000   1.0000   1.0000
     1.0000   1.0000   1.0000   1.0000   1.0000   1.0000   1.0000   1.0000
     1.0000   1.0000   1.0000   1.0000

          k = 0.3333 0.1925 0.0000 (  4217 PWs)   bands (ev):

   -11.0566 -10.8942 -10.6581 -10.6418   0.4871   0.6376   0.7442   0.8262
     0.8551   0.9302   1.0694   1.0949   1.1001   1.2823   1.3709   1.4008
     1.4198   1.4565   1.5196   1.5751   1.7384   1.7484   1.8687   1.9055
     2.3867   2.5078   2.8184   3.0967   3.2322   3.6391   3.6869   4.0884
     4.7029   4.8719   5.2120   5.2374

     occupation numbers 
     1.0000   1.0000   1.0000   1.0000   1.0000   1.0000   1.0000   1.0000
     1.0000   1.0000   1.0000   1.0000   1.0000   1.0000   1.0000   1.0000
     1.0000   1.0000   1.0000   1.0000   1.0000   1.0000   1.0000   1.0000
     1.0000   1.0000   1.0000   1.0000   1.0000   1.0000   1.0000   1.0000
     1.0000   1.0000   1.0000   1.0000

          k = 0.3333 0.1925 0.1147 (  4218 PWs)   bands (ev):

   -11.0264 -10.8747 -10.6699 -10.6666   0.4552   0.5957   0.6723   0.7741
     0.8615   0.9090   1.0113   1.0309   1.0461   1.1907   1.2265   1.2668
     1.4987   1.5351   1.5388   1.5993   1.7227   1.7365   1.8532   1.8588
     2.3922   2.6070   2.7841   3.2156   3.3212   3.7539   4.0057   4.1747
     4.6145   5.0474   5.1673   5.3250

     occupation numbers 
     1.0000   1.0000   1.0000   1.0000   1.0000   1.0000   1.0000   1.0000
     1.0000   1.0000   1.0000   1.0000   1.0000   1.0000   1.0000   1.0000
     1.0000   1.0000   1.0000   1.0000   1.0000   1.0000   1.0000   1.0000
     1.0000   1.0000   1.0000   1.0000   1.0000   1.0000   1.0000   1.0000
     1.0000   1.0000   1.0000   1.0000

          k = 0.3333 0.1925 0.2294 (  4219 PWs)   bands (ev):

   -10.9453 -10.8240 -10.7370 -10.7053   0.3835   0.4856   0.4957   0.5742
     0.8846   0.9233   0.9267   0.9903   0.9937   1.0110   1.0773   1.1445
     1.5759   1.6000   1.6105   1.6169   1.6825   1.7434   1.7873   1.8289
     2.4548   2.6685   2.7525   3.0998   3.6023   4.3289   4.3857   4.4014
     4.6771   4.9716   5.2872   5.3730

     occupation numbers 
     1.0000   1.0000   1.0000   1.0000   1.0000   1.0000   1.0000   1.0000
     1.0000   1.0000   1.0000   1.0000   1.0000   1.0000   1.0000   1.0000
     1.0000   1.0000   1.0000   1.0000   1.0000   1.0000   1.0000   1.0000
     1.0000   1.0000   1.0000   1.0000   1.0000   1.0000   1.0000   1.0000
     1.0000   1.0000   1.0000   1.0000

          k = 0.3333 0.1925-0.3441 (  4208 PWs)   bands (ev):

   -10.8386 -10.8385 -10.7608 -10.7607   0.3652   0.3652   0.4547   0.4547
     0.9257   0.9257   0.9293   0.9293   0.9747   0.9747   1.0492   1.0492
     1.6176   1.6176   1.6293   1.6293   1.7089   1.7089   1.7861   1.7861
     2.5532   2.5532   2.9174   2.9174   3.9757   3.9758   4.6939   4.6940
     5.0398   5.0398   5.1804   5.1805

     occupation numbers 
     1.0000   1.0000   1.0000   1.0000   1.0000   1.0000   1.0000   1.0000
     1.0000   1.0000   1.0000   1.0000   1.0000   1.0000   1.0000   1.0000
     1.0000   1.0000   1.0000   1.0000   1.0000   1.0000   1.0000   1.0000
     1.0000   1.0000   1.0000   1.0000   1.0000   1.0000   1.0000   1.0000
     1.0000   1.0000   1.0000   1.0000

          k = 0.3333 0.2887 0.0000 (  4210 PWs)   bands (ev):

   -10.9808 -10.9807 -10.6444 -10.6444   0.5347   0.5347   0.7781   0.7781
     0.8753   0.8753   1.0816   1.0816   1.1823   1.1824   1.3851   1.3851
     1.4390   1.4390   1.5501   1.5502   1.7429   1.7429   1.8926   1.8926
     2.4512   2.4512   2.9824   2.9824   3.4873   3.4873   3.8092   3.8092
     5.0335   5.0335   5.0764   5.0764

     occupation numbers 
     1.0000   1.0000   1.0000   1.0000   1.0000   1.0000   1.0000   1.0000
     1.0000   1.0000   1.0000   1.0000   1.0000   1.0000   1.0000   1.0000
     1.0000   1.0000   1.0000   1.0000   1.0000   1.0000   1.0000   1.0000
     1.0000   1.0000   1.0000   1.0000   1.0000   1.0000   1.0000   1.0000
     1.0000   1.0000   1.0000   1.0000

          k = 0.3333 0.2887 0.1147 (  4216 PWs)   bands (ev):

   -10.9553 -10.9552 -10.6635 -10.6634   0.4968   0.4968   0.7002   0.7002
     0.8837   0.8837   1.0185   1.0185   1.1362   1.1362   1.2328   1.2328
     1.5197   1.5197   1.5686   1.5686   1.7264   1.7264   1.8562   1.8563
     2.4810   2.4810   2.9969   2.9969   3.7138   3.7138   3.9410   3.9410
     4.9598   4.9598   5.2127   5.2128

     occupation numbers 
     1.0000   1.0000   1.0000   1.0000   1.0000   1.0000   1.0000   1.0000
     1.0000   1.0000   1.0000   1.0000   1.0000   1.0000   1.0000   1.0000
     1.0000   1.0000   1.0000   1.0000   1.0000   1.0000   1.0000   1.0000
     1.0000   1.0000   1.0000   1.0000   1.0000   1.0000   1.0000   1.0000
     1.0000   1.0000   1.0000   1.0000

          k = 0.3333 0.2887 0.2294 (  4210 PWs)   bands (ev):

   -10.8873 -10.8873 -10.7183 -10.7183   0.4115   0.4115   0.5034   0.5035
     0.9085   0.9085   0.9645   0.9645   1.0363   1.0363   1.0807   1.0807
     1.5932   1.5932   1.6258   1.6258   1.6943   1.6943   1.7992   1.7993
     2.5765   2.5765   2.8632   2.8632   4.0839   4.0839   4.4929   4.4929
     4.7446   4.7446   5.3433   5.3433

     occupation numbers 
     1.0000   1.0000   1.0000   1.0000   1.0000   1.0000   1.0000   1.0000
     1.0000   1.0000   1.0000   1.0000   1.0000   1.0000   1.0000   1.0000
     1.0000   1.0000   1.0000   1.0000   1.0000   1.0000   1.0000   1.0000
     1.0000   1.0000   1.0000   1.0000   1.0000   1.0000   1.0000   1.0000
     1.0000   1.0000   1.0000   1.0000

          k = 0.3333 0.2887-0.3441 (  4212 PWs)   bands (ev):

   -10.7996 -10.7996 -10.7995 -10.7995   0.3835   0.3835   0.3835   0.3835
     0.9469   0.9469   0.9469   0.9469   1.0009   1.0009   1.0009   1.0009
     1.6326   1.6326   1.6326   1.6326   1.7316   1.7316   1.7316   1.7316
     2.7096   2.7096   2.7096   2.7096   4.4205   4.4205   4.4205   4.4206
     5.1010   5.1010   5.1010   5.1011

     occupation numbers 
     1.0000   1.0000   1.0000   1.0000   1.0000   1.0000   1.0000   1.0000
     1.0000   1.0000   1.0000   1.0000   1.0000   1.0000   1.0000   1.0000
     1.0000   1.0000   1.0000   1.0000   1.0000   1.0000   1.0000   1.0000
     1.0000   1.0000   1.0000   1.0000   1.0000   1.0000   1.0000   1.0000
     1.0000   1.0000   1.0000   1.0000

          k = 0.3333-0.0962 0.0000 (  4216 PWs)   bands (ev):

   -11.1084 -10.8102 -10.6888 -10.6436   0.5001   0.7454   0.7461   0.8198
     0.8397   0.9535   0.9879   1.0999   1.2922   1.3176   1.3573   1.4094
     1.4708   1.4858   1.4999   1.5721   1.7348   1.7397   1.8027   1.9176
     2.4080   2.4854   2.5625   2.7829   3.3329   3.7837   3.9592   4.1634
     4.3848   4.6046   5.2471   5.3119

     occupation numbers 
     1.0000   1.0000   1.0000   1.0000   1.0000   1.0000   1.0000   1.0000
     1.0000   1.0000   1.0000   1.0000   1.0000   1.0000   1.0000   1.0000
     1.0000   1.0000   1.0000   1.0000   1.0000   1.0000   1.0000   1.0000
     1.0000   1.0000   1.0000   1.0000   1.0000   1.0000   1.0000   1.0000
     1.0000   1.0000   1.0000   1.0000

          k = 0.3333-0.0962 0.1147 (  4223 PWs)   bands (ev):

   -11.0753 -10.7980 -10.6926 -10.6723   0.4724   0.6799   0.7143   0.8155
     0.8237   0.9054   0.9502   1.0369   1.1374   1.1631   1.2912   1.3117
     1.4852   1.5226   1.5467   1.5869   1.7209   1.7601   1.8458   1.8513
     2.4081   2.6043   2.6899   2.8101   3.4372   3.8439   4.2139   4.2232
     4.3269   4.8216   5.1732   5.4152

     occupation numbers 
     1.0000   1.0000   1.0000   1.0000   1.0000   1.0000   1.0000   1.0000
     1.0000   1.0000   1.0000   1.0000   1.0000   1.0000   1.0000   1.0000
     1.0000   1.0000   1.0000   1.0000   1.0000   1.0000   1.0000   1.0000
     1.0000   1.0000   1.0000   1.0000   1.0000   1.0000   1.0000   1.0000
     1.0000   1.0000   1.0000   1.0000

          k = 0.3333-0.0962 0.2294 (  4204 PWs)   bands (ev):

   -10.9860 -10.7674 -10.7527 -10.7063   0.4072   0.5031   0.6040   0.6572
     0.8327   0.8846   0.9047   0.9390   0.9783   1.0619   1.1370   1.1794
     1.5541   1.5694   1.5813   1.5960   1.6841   1.7811   1.8241   1.8780
     2.4289   2.5458   2.9207   3.1200   3.3189   3.9644   4.3478   4.4845
     4.8521   4.9752   5.1792   5.4310

     occupation numbers 
     1.0000   1.0000   1.0000   1.0000   1.0000   1.0000   1.0000   1.0000
     1.0000   1.0000   1.0000   1.0000   1.0000   1.0000   1.0000   1.0000
     1.0000   1.0000   1.0000   1.0000   1.0000   1.0000   1.0000   1.0000
     1.0000   1.0000   1.0000   1.0000   1.0000   1.0000   1.0000   1.0000
     1.0000   1.0000   1.0000   1.0000

          k = 0.3333-0.0962-0.3441 (  4216 PWs)   bands (ev):

   -10.8672 -10.8671 -10.7326 -10.7325   0.3883   0.3883   0.5463   0.5463
     0.8490   0.8490   0.9176   0.9177   0.9856   0.9856   1.0988   1.0988
     1.5664   1.5664   1.6257   1.6257   1.7016   1.7016   1.8676   1.8676
     2.4790   2.4790   3.1184   3.1184   3.5502   3.5502   4.6835   4.6836
     5.0833   5.0833   5.2329   5.2329

     occupation numbers 
     1.0000   1.0000   1.0000   1.0000   1.0000   1.0000   1.0000   1.0000
     1.0000   1.0000   1.0000   1.0000   1.0000   1.0000   1.0000   1.0000
     1.0000   1.0000   1.0000   1.0000   1.0000   1.0000   1.0000   1.0000
     1.0000   1.0000   1.0000   1.0000   1.0000   1.0000   1.0000   1.0000
     1.0000   1.0000   1.0000   1.0000

          k = 0.3333-0.0000 0.0000 (  4223 PWs)   bands (ev):

   -11.1268 -10.7398 -10.7397 -10.6449   0.5229   0.7337   0.7871   0.8185
     0.8927   0.8927   0.9452   1.1061   1.2918   1.3846   1.4217   1.4817
     1.4817   1.4894   1.5765   1.5769   1.7173   1.7173   1.7334   1.9223
     2.2517   2.4658   2.5783   2.5783   3.6151   3.6444   4.2086   4.2476
     4.2902   4.2903   5.2040   5.3499

     occupation numbers 
     1.0000   1.0000   1.0000   1.0000   1.0000   1.0000   1.0000   1.0000
     1.0000   1.0000   1.0000   1.0000   1.0000   1.0000   1.0000   1.0000
     1.0000   1.0000   1.0000   1.0000   1.0000   1.0000   1.0000   1.0000
     1.0000   1.0000   1.0000   1.0000   1.0000   1.0000   1.0000   1.0000
     1.0000   1.0000   1.0000   1.0000

          k = 0.3333-0.0000 0.1147 (  4221 PWs)   bands (ev):

   -11.0927 -10.7355 -10.7354 -10.6748   0.4972   0.6762   0.8069   0.8183
     0.8330   0.8330   0.9057   1.0494   1.1082   1.3187   1.3228   1.3228
     1.4840   1.5181   1.5196   1.5701   1.7204   1.8113   1.8113   1.8507
     2.4586   2.5333   2.5334   2.7130   3.5889   3.8509   4.1287   4.2103
     4.5539   4.5540   5.1302   5.4511

     occupation numbers 
     1.0000   1.0000   1.0000   1.0000   1.0000   1.0000   1.0000   1.0000
     1.0000   1.0000   1.0000   1.0000   1.0000   1.0000   1.0000   1.0000
     1.0000   1.0000   1.0000   1.0000   1.0000   1.0000   1.0000   1.0000
     1.0000   1.0000   1.0000   1.0000   1.0000   1.0000   1.0000   1.0000
     1.0000   1.0000   1.0000   1.0000

          k = 0.3333-0.0000 0.2294 (  4204 PWs)   bands (ev):

   -11.0006 -10.7587 -10.7267 -10.7266   0.4328   0.5127   0.6775   0.6775
     0.8188   0.8353   0.8696   0.9328   0.9687   1.1426   1.1753   1.1753
     1.5081   1.5521   1.5683   1.5910   1.6856   1.7793   1.8883   1.8883
     2.4841   2.4841   2.8817   2.9942   3.4156   3.8062   4.3611   4.4591
     4.9312   5.0283   5.0283   5.4618

     occupation numbers 
[...]
     1.5622   1.5651   1.6030   1.6577   1.6760   1.6835   1.6878   1.7866
     2.4301   2.6617   3.1790   4.1742   4.4030   4.4673   4.7939   5.1260
     5.2117   5.2888   5.5976   5.6090

     occupation numbers 
     1.0000   1.0000   1.0000   1.0000   1.0000   1.0000   1.0000   1.0000
     1.0000   1.0000   1.0000   1.0000   1.0000   1.0000   1.0000   1.0000
     1.0000   1.0000   1.0000   1.0000   1.0000   1.0000   1.0000   1.0000
     1.0000   1.0000   1.0000   1.0000   1.0000   1.0000   1.0000   1.0000
     1.0000   1.0000   1.0000   1.0000

          k = 0.0000 0.1925-0.1147 (  4226 PWs)   bands (ev):

   -11.2684 -11.0264 -10.7173 -10.6666   0.4551   0.5142   0.6723   0.6746
     0.6942   0.7945   0.8617   0.9231   1.0113   1.0447   1.0462   1.1906
     1.4871   1.4987   1.4990   1.5351   1.7085   1.7227   1.7823   1.8531
     2.5783   2.6069   3.2155   3.7539   4.1749   4.3287   4.5752   4.8261
     5.1675   5.3250   5.5863   5.6575

     occupation numbers 
     1.0000   1.0000   1.0000   1.0000   1.0000   1.0000   1.0000   1.0000
     1.0000   1.0000   1.0000   1.0000   1.0000   1.0000   1.0000   1.0000
     1.0000   1.0000   1.0000   1.0000   1.0000   1.0000   1.0000   1.0000
     1.0000   1.0000   1.0000   1.0000   1.0000   1.0000   1.0000   1.0000
     1.0000   1.0000   1.0000   1.0000

          k = 0.0000 0.1925-0.2294 (  4221 PWs)   bands (ev):

   -11.1516 -10.9453 -10.8329 -10.7370   0.3834   0.4741   0.4856   0.5460
     0.6962   0.7537   0.8170   0.8383   0.8848   0.9233   0.9904   1.0109
     1.5578   1.5695   1.5759   1.6105   1.6782   1.6825   1.7205   1.7872
     2.7524   3.0996   3.1868   4.0679   4.3857   4.4016   4.7587   4.9719
     4.9956   5.3730   5.4347   5.5258

     occupation numbers 
     1.0000   1.0000   1.0000   1.0000   1.0000   1.0000   1.0000   1.0000
     1.0000   1.0000   1.0000   1.0000   1.0000   1.0000   1.0000   1.0000
     1.0000   1.0000   1.0000   1.0000   1.0000   1.0000   1.0000   1.0000
     1.0000   1.0000   1.0000   1.0000   1.0000   1.0000   1.0000   1.0000
     1.0000   1.0000   1.0000   1.0000

          k =-0.1667 0.0962-0.1147 (  4220 PWs)   bands (ev):

   -11.2684 -10.8747 -10.7173 -10.6699   0.5143   0.5956   0.6746   0.6941
     0.7741   0.7944   0.9091   0.9231   1.0309   1.0447   1.2266   1.2668
     1.4871   1.4990   1.5388   1.5993   1.7085   1.7365   1.7823   1.8587
     2.3922   2.5783   2.7840   3.3212   4.0057   4.3288   4.5754   4.6147
     4.8259   5.0474   5.5860   5.6575

     occupation numbers 
     1.0000   1.0000   1.0000   1.0000   1.0000   1.0000   1.0000   1.0000
     1.0000   1.0000   1.0000   1.0000   1.0000   1.0000   1.0000   1.0000
     1.0000   1.0000   1.0000   1.0000   1.0000   1.0000   1.0000   1.0000
     1.0000   1.0000   1.0000   1.0000   1.0000   1.0000   1.0000   1.0000
     1.0000   1.0000   1.0000   1.0000

          k =-0.1667 0.0962-0.2294 (  4224 PWs)   bands (ev):

   -11.1516 -10.8329 -10.8240 -10.7053   0.4742   0.4957   0.5461   0.5742
     0.6961   0.7536   0.8170   0.8383   0.9268   0.9937   1.0774   1.1445
     1.5578   1.5695   1.6000   1.6169   1.6782   1.7205   1.7434   1.8289
     2.4547   2.6684   3.1868   3.6024   4.0679   4.3290   4.6771   4.7589
     4.9954   5.2872   5.4345   5.5259

     occupation numbers 
     1.0000   1.0000   1.0000   1.0000   1.0000   1.0000   1.0000   1.0000
     1.0000   1.0000   1.0000   1.0000   1.0000   1.0000   1.0000   1.0000
     1.0000   1.0000   1.0000   1.0000   1.0000   1.0000   1.0000   1.0000
     1.0000   1.0000   1.0000   1.0000   1.0000   1.0000   1.0000   1.0000
     1.0000   1.0000   1.0000   1.0000

          k =-0.1667 0.1925-0.1147 (  4226 PWs)   bands (ev):

   -11.1969 -10.9766 -10.6972 -10.6629   0.4898   0.5442   0.6701   0.7036
     0.7470   0.8503   0.8848   0.9653   0.9765   1.0697   1.1382   1.1711
     1.4817   1.5000   1.5006   1.5618   1.7138   1.7276   1.8177   1.8715
     2.5973   2.6568   3.1446   3.7096   3.8375   3.9891   4.1981   4.6085
     4.8395   5.2603   5.4112   5.5826

     occupation numbers 
     1.0000   1.0000   1.0000   1.0000   1.0000   1.0000   1.0000   1.0000
     1.0000   1.0000   1.0000   1.0000   1.0000   1.0000   1.0000   1.0000
     1.0000   1.0000   1.0000   1.0000   1.0000   1.0000   1.0000   1.0000
     1.0000   1.0000   1.0000   1.0000   1.0000   1.0000   1.0000   1.0000
     1.0000   1.0000   1.0000   1.0000

          k =-0.1667 0.1925-0.2294 (  4234 PWs)   bands (ev):

   -11.0895 -10.9044 -10.8005 -10.7227   0.4400   0.4588   0.5191   0.5364
     0.7492   0.7973   0.8686   0.8771   0.8841   0.9210   0.9823   1.0691
     1.5576   1.5770   1.5936   1.6065   1.6800   1.7023   1.7466   1.8084
     2.7239   3.0211   3.1442   3.7863   3.9289   4.4653   4.5614   4.6512
     4.7607   5.2397   5.3871   5.5006

     occupation numbers 
     1.0000   1.0000   1.0000   1.0000   1.0000   1.0000   1.0000   1.0000
     1.0000   1.0000   1.0000   1.0000   1.0000   1.0000   1.0000   1.0000
     1.0000   1.0000   1.0000   1.0000   1.0000   1.0000   1.0000   1.0000
     1.0000   1.0000   1.0000   1.0000   1.0000   1.0000   1.0000   1.0000
     1.0000   1.0000   1.0000   1.0000

          k =-0.3333 0.1925-0.1147 (  4218 PWs)   bands (ev):

   -11.0264 -10.8747 -10.6699 -10.6666   0.4552   0.5957   0.6723   0.7741
     0.8616   0.9090   1.0113   1.0309   1.0461   1.1907   1.2265   1.2668
     1.4987   1.5351   1.5388   1.5993   1.7227   1.7365   1.8532   1.8588
     2.3922   2.6070   2.7841   3.2156   3.3212   3.7540   4.0057   4.1747
     4.6145   5.0474   5.1673   5.3250

     occupation numbers 
     1.0000   1.0000   1.0000   1.0000   1.0000   1.0000   1.0000   1.0000
     1.0000   1.0000   1.0000   1.0000   1.0000   1.0000   1.0000   1.0000
     1.0000   1.0000   1.0000   1.0000   1.0000   1.0000   1.0000   1.0000
     1.0000   1.0000   1.0000   1.0000   1.0000   1.0000   1.0000   1.0000
     1.0000   1.0000   1.0000   1.0000

          k =-0.3333 0.1925-0.2294 (  4219 PWs)   bands (ev):

   -10.9453 -10.8240 -10.7370 -10.7053   0.3835   0.4856   0.4957   0.5742
     0.8846   0.9233   0.9267   0.9903   0.9937   1.0110   1.0773   1.1445
     1.5759   1.6000   1.6105   1.6169   1.6825   1.7434   1.7873   1.8289
     2.4548   2.6685   2.7525   3.0997   3.6023   4.3289   4.3857   4.4014
     4.6771   4.9716   5.2872   5.3730

     occupation numbers 
     1.0000   1.0000   1.0000   1.0000   1.0000   1.0000   1.0000   1.0000
     1.0000   1.0000   1.0000   1.0000   1.0000   1.0000   1.0000   1.0000
     1.0000   1.0000   1.0000   1.0000   1.0000   1.0000   1.0000   1.0000
     1.0000   1.0000   1.0000   1.0000   1.0000   1.0000   1.0000   1.0000
     1.0000   1.0000   1.0000   1.0000

          k =-0.3333-0.0962-0.1147 (  4223 PWs)   bands (ev):

   -11.0753 -10.7980 -10.6926 -10.6723   0.4724   0.6799   0.7143   0.8155
     0.8237   0.9054   0.9502   1.0369   1.1374   1.1631   1.2912   1.3117
     1.4852   1.5226   1.5467   1.5869   1.7209   1.7601   1.8458   1.8513
     2.4081   2.6043   2.6899   2.8101   3.4373   3.8438   4.2139   4.2232
     4.3269   4.8216   5.1732   5.4152

     occupation numbers 
     1.0000   1.0000   1.0000   1.0000   1.0000   1.0000   1.0000   1.0000
     1.0000   1.0000   1.0000   1.0000   1.0000   1.0000   1.0000   1.0000
     1.0000   1.0000   1.0000   1.0000   1.0000   1.0000   1.0000   1.0000
     1.0000   1.0000   1.0000   1.0000   1.0000   1.0000   1.0000   1.0000
     1.0000   1.0000   1.0000   1.0000

          k =-0.3333-0.0962-0.2294 (  4204 PWs)   bands (ev):

   -10.9860 -10.7674 -10.7527 -10.7063   0.4072   0.5031   0.6040   0.6572
     0.8327   0.8846   0.9047   0.9390   0.9783   1.0619   1.1370   1.1794
     1.5541   1.5694   1.5813   1.5960   1.6841   1.7811   1.8241   1.8780
     2.4289   2.5458   2.9206   3.1200   3.3189   3.9644   4.3478   4.4844
     4.8521   4.9752   5.1792   5.4310

     occupation numbers 
     1.0000   1.0000   1.0000   1.0000   1.0000   1.0000   1.0000   1.0000
     1.0000   1.0000   1.0000   1.0000   1.0000   1.0000   1.0000   1.0000
     1.0000   1.0000   1.0000   1.0000   1.0000   1.0000   1.0000   1.0000
     1.0000   1.0000   1.0000   1.0000   1.0000   1.0000   1.0000   1.0000
     1.0000   1.0000   1.0000   1.0000

          k = 0.5000-0.1925-0.1147 (  4222 PWs)   bands (ev):

   -10.8714 -10.8714 -10.6720 -10.6720   0.5324   0.5324   0.7233   0.7233
     0.9148   0.9148   1.0559   1.0559   1.2162   1.2162   1.2973   1.2973
     1.5845   1.5845   1.6141   1.6142   1.7319   1.7319   1.7983   1.7983
     2.3482   2.3482   2.6251   2.6251   3.5979   3.5979   3.9700   3.9700
     4.8262   4.8263   5.0494   5.0494

     occupation numbers 
     1.0000   1.0000   1.0000   1.0000   1.0000   1.0000   1.0000   1.0000
     1.0000   1.0000   1.0000   1.0000   1.0000   1.0000   1.0000   1.0000
     1.0000   1.0000   1.0000   1.0000   1.0000   1.0000   1.0000   1.0000
     1.0000   1.0000   1.0000   1.0000   1.0000   1.0000   1.0000   1.0000
     1.0000   1.0000   1.0000   1.0000

          k = 0.5000-0.1925-0.2294 (  4218 PWs)   bands (ev):

   -10.8217 -10.8217 -10.7062 -10.7062   0.4315   0.4315   0.5055   0.5055
     0.9589   0.9589   1.0222   1.0222   1.1278   1.1278   1.1501   1.1501
     1.6121   1.6121   1.6471   1.6471   1.7257   1.7257   1.7852   1.7852
     2.3599   2.3599   2.5151   2.5151   3.9109   3.9109   4.5753   4.5753
     4.6149   4.6149   5.2650   5.2650

     occupation numbers 
     1.0000   1.0000   1.0000   1.0000   1.0000   1.0000   1.0000   1.0000
     1.0000   1.0000   1.0000   1.0000   1.0000   1.0000   1.0000   1.0000
     1.0000   1.0000   1.0000   1.0000   1.0000   1.0000   1.0000   1.0000
     1.0000   1.0000   1.0000   1.0000   1.0000   1.0000   1.0000   1.0000
     1.0000   1.0000   1.0000   1.0000

          k = 0.5000-0.0962-0.1147 (  4212 PWs)   bands (ev):

   -10.8747 -10.8747 -10.6699 -10.6699   0.5957   0.5957   0.7741   0.7741
     0.9090   0.9090   1.0308   1.0309   1.2265   1.2265   1.2668   1.2668
     1.5388   1.5388   1.5993   1.5993   1.7365   1.7365   1.8588   1.8588
     2.3922   2.3923   2.7841   2.7841   3.3211   3.3211   4.0057   4.0057
     4.6145   4.6145   5.0473   5.0473

     occupation numbers 
     1.0000   1.0000   1.0000   1.0000   1.0000   1.0000   1.0000   1.0000
     1.0000   1.0000   1.0000   1.0000   1.0000   1.0000   1.0000   1.0000
     1.0000   1.0000   1.0000   1.0000   1.0000   1.0000   1.0000   1.0000
     1.0000   1.0000   1.0000   1.0000   1.0000   1.0000   1.0000   1.0000
     1.0000   1.0000   1.0000   1.0000

          k = 0.5000-0.0962-0.2294 (  4222 PWs)   bands (ev):

   -10.8240 -10.8240 -10.7053 -10.7053   0.4957   0.4957   0.5742   0.5742
     0.9267   0.9267   0.9937   0.9937   1.0774   1.0774   1.1444   1.1444
     1.6000   1.6000   1.6169   1.6170   1.7435   1.7435   1.8289   1.8289
     2.4548   2.4548   2.6685   2.6685   3.6022   3.6022   4.3288   4.3289
     4.6772   4.6772   5.2872   5.2872

     occupation numbers 
     1.0000   1.0000   1.0000   1.0000   1.0000   1.0000   1.0000   1.0000
     1.0000   1.0000   1.0000   1.0000   1.0000   1.0000   1.0000   1.0000
     1.0000   1.0000   1.0000   1.0000   1.0000   1.0000   1.0000   1.0000
     1.0000   1.0000   1.0000   1.0000   1.0000   1.0000   1.0000   1.0000
     1.0000   1.0000   1.0000   1.0000

     highest occupied level (ev):     5.8256

!    total energy              =    -723.24634882 Ry
     estimated scf accuracy    <          9.5E-09 Ry

     The total energy is the sum of the following terms:
     one-electron contribution =    -324.79129382 Ry
     hartree contribution      =     242.20820963 Ry
     xc contribution           =    -218.79317546 Ry
     ewald contribution        =    -421.87008917 Ry

     convergence has been achieved in  37 iterations

     Forces acting on atoms (cartesian axes, Ry/au):

     atom    1 type  1   force =     0.00000000    0.00003932   -0.00331190
     atom    2 type  2   force =     0.00000000    0.00000815    0.00330906
     atom    3 type  1   force =     0.00000000   -0.00000127   -0.00330931
     atom    4 type  2   force =     0.00000000   -0.00000415    0.00331295
     atom    5 type  1   force =     0.00000000   -0.00004406   -0.00332442
     atom    6 type  2   force =     0.00000000    0.00000947    0.00331072
     atom    7 type  1   force =     0.00000000    0.00000366   -0.00330018
     atom    8 type  2   force =     0.00000000   -0.00001112    0.00331308
     The non-local contrib.  to forces
     atom    1 type  1   force =     0.00000000   -0.00000107    0.14512288
     atom    2 type  2   force =     0.00000000    0.00020079    0.12256578
     atom    3 type  1   force =     0.00000000    0.00000026    0.14513109
     atom    4 type  2   force =     0.00000000   -0.00019222    0.12257346
     atom    5 type  1   force =     0.00000000   -0.00001163    0.14512078
     atom    6 type  2   force =     0.00000000    0.00019214    0.12256661
     atom    7 type  1   force =     0.00000000    0.00001086    0.14512397
     atom    8 type  2   force =     0.00000000   -0.00019934    0.12257195
     The ionic contribution  to forces
     atom    1 type  1   force =     0.00000000   -0.00000000    0.93885739
     atom    2 type  2   force =    -0.00000000    0.00000000   -0.93885739
     atom    3 type  1   force =    -0.00000000    0.00000000    0.93885739
     atom    4 type  2   force =     0.00000000   -0.00000000   -0.93885739
     atom    5 type  1   force =     0.00000000   -0.00000000    0.93885739
     atom    6 type  2   force =    -0.00000000    0.00000000   -0.93885739
     atom    7 type  1   force =    -0.00000000    0.00000000    0.93885739
     atom    8 type  2   force =     0.00000000   -0.00000000   -0.93885739
     The local contribution  to forces
     atom    1 type  1   force =     0.00000000   -0.00001552   -1.07826707
     atom    2 type  2   force =    -0.00000000   -0.00018227    0.82063828
     atom    3 type  1   force =     0.00000000   -0.00000236   -1.07829011
     atom    4 type  2   force =     0.00000000    0.00017703    0.82062334
     atom    5 type  1   force =     0.00000000    0.00003371   -1.07825570
     atom    6 type  2   force =     0.00000000   -0.00020708    0.82062581
     atom    7 type  1   force =    -0.00000000   -0.00001369   -1.07828488
     atom    8 type  2   force =    -0.00000000    0.00020127    0.82062118
     The core correction contribution to forces
     atom    1 type  1   force =     0.00000000   -0.00000677   -0.00902532
     atom    2 type  2   force =     0.00000000   -0.00000228   -0.00101877
     atom    3 type  1   force =    -0.00000000    0.00000675   -0.00902444
     atom    4 type  2   force =     0.00000000    0.00000215   -0.00101892
     atom    5 type  1   force =    -0.00000000   -0.00000642   -0.00902547
     atom    6 type  2   force =    -0.00000000   -0.00000223   -0.00101881
     atom    7 type  1   force =     0.00000000    0.00000636   -0.00902441
     atom    8 type  2   force =    -0.00000000    0.00000229   -0.00101890
     The Hubbard contrib.    to forces
     atom    1 type  1   force =     0.00000000    0.00000000    0.00000000
     atom    2 type  2   force =     0.00000000    0.00000000    0.00000000
     atom    3 type  1   force =     0.00000000    0.00000000    0.00000000
     atom    4 type  2   force =     0.00000000    0.00000000    0.00000000
     atom    5 type  1   force =     0.00000000    0.00000000    0.00000000
     atom    6 type  2   force =     0.00000000    0.00000000    0.00000000
     atom    7 type  1   force =     0.00000000    0.00000000    0.00000000
     atom    8 type  2   force =     0.00000000    0.00000000    0.00000000
     The SCF correction term to forces
     atom    1 type  1   force =    -0.00000000    0.00006280    0.00000663
     atom    2 type  2   force =     0.00000000   -0.00000798   -0.00001242
     atom    3 type  1   force =     0.00000000   -0.00000581    0.00002318
     atom    4 type  2   force =    -0.00000000    0.00000901   -0.00000113
     atom    5 type  1   force =    -0.00000000   -0.00005961   -0.00001501
     atom    6 type  2   force =     0.00000000    0.00002676    0.00000092
     atom    7 type  1   force =     0.00000000    0.00000024    0.00003417
     atom    8 type  2   force =    -0.00000000   -0.00001522    0.00000267

     Total force =     0.009366     Total SCF correction =     0.000104

     init_run     :      5.45s CPU      5.75s WALL (       1 calls)
     electrons    :    349.28s CPU    367.00s WALL (       1 calls)
     forces       :      1.56s CPU      1.58s WALL (       1 calls)

     Called by init_run:
     wfcinit      :      3.59s CPU      3.81s WALL (       1 calls)
     wfcinit:atom :      0.06s CPU      0.06s WALL (      40 calls)
     wfcinit:wfcr :      3.24s CPU      3.46s WALL (      40 calls)
     potinit      :      0.65s CPU      0.66s WALL (       1 calls)
     hinit0       :      1.07s CPU      1.08s WALL (       1 calls)

     Called by electrons:
     c_bands      :    299.56s CPU    314.45s WALL (      37 calls)
     sum_band     :     43.23s CPU     45.91s WALL (      37 calls)
     v_of_rho     :      2.31s CPU      2.40s WALL (      38 calls)
     v_h          :      0.11s CPU      0.12s WALL (      38 calls)
     v_xc         :      2.26s CPU      2.34s WALL (      39 calls)
     newd         :      3.80s CPU      3.86s WALL (      38 calls)
     mix_rho      :      0.33s CPU      0.36s WALL (      37 calls)

     Called by c_bands:
     init_us_2    :      3.21s CPU      3.26s WALL (    3040 calls)
     init_us_2:cp :      3.20s CPU      3.25s WALL (    3040 calls)
     cegterg      :    278.68s CPU    293.51s WALL (    1480 calls)

     Called by sum_band:
     sum_band:wei :      0.00s CPU      0.00s WALL (      37 calls)
     sum_band:loo :     38.12s CPU     40.67s WALL (      37 calls)
     sum_band:buf :      0.24s CPU      0.25s WALL (    1480 calls)
     sum_band:ini :      1.52s CPU      1.54s WALL (    1480 calls)
     sum_band:cal :      4.10s CPU      4.25s WALL (    1480 calls)
     sum_band:bec :      0.10s CPU      0.11s WALL (    1480 calls)
     addusdens    :      4.27s CPU      4.33s WALL (      37 calls)
                                        0.00s GPU  (      37 calls)
     addusd:skk   :      0.03s CPU      0.03s WALL (      74 calls)
                                        0.00s GPU  (      74 calls)

     Called by *egterg:
     cdiaghg      :     22.99s CPU     23.03s WALL (    6742 calls)
     cegterg:over :     11.90s CPU     12.22s WALL (    5262 calls)
     cegterg:upda :      7.55s CPU      7.58s WALL (    5262 calls)
     cegterg:last :     15.53s CPU     15.56s WALL (    3645 calls)
     h_psi        :    203.11s CPU    217.61s WALL (    6782 calls)
     s_psi        :     14.02s CPU     14.06s WALL (    6782 calls)
     g_psi        :      1.15s CPU      1.15s WALL (    5262 calls)

     Called by h_psi:
     h_psi:calbec :     12.82s CPU     13.41s WALL (    6782 calls)
     vloc_psi     :    175.10s CPU    188.94s WALL (    6782 calls)
     add_vuspsi   :     14.36s CPU     14.43s WALL (    6782 calls)

     General routines
     calbec       :     17.33s CPU     18.09s WALL (    8422 calls)
     fft          :      1.37s CPU      1.50s WALL (     503 calls)
     ffts         :      0.21s CPU      0.21s WALL (      75 calls)
     fftw         :    176.66s CPU    191.02s WALL (  361160 calls)
     interpolate  :      0.28s CPU      0.29s WALL (      38 calls)

     Parallel routines

     PWSCF        :   5m56.69s CPU   6m14.74s WALL


   This run was terminated on:  21: 2: 3  13Jul2025            

=------------------------------------------------------------------------------=
   JOB DONE.
=------------------------------------------------------------------------------=
Note: The following floating-point exceptions are signalling: IEEE_INVALID_FLAG
Note: The following floating-point exceptions are signalling: IEEE_INVALID_FLAG
