Authorization required, but no authorization protocol specified

Authorization required, but no authorization protocol specified

Authorization required, but no authorization protocol specified

Authorization required, but no authorization protocol specified

Authorization required, but no authorization protocol specified

Authorization required, but no authorization protocol specified

Authorization required, but no authorization protocol specified

Authorization required, but no authorization protocol specified

Authorization required, but no authorization protocol specified

Authorization required, but no authorization protocol specified


     Program PWSCF v.7.2 starts on 13Jul2025 at 23:51:13 

     This program is part of the open-source Quantum ESPRESSO suite
     for quantum simulation of materials; please cite
         "P. Giannozzi et al., J. Phys.:Condens. Matter 21 395502 (2009);
         "P. Giannozzi et al., J. Phys.:Condens. Matter 29 465901 (2017);
         "P. Giannozzi et al., J. Chem. Phys. 152 154105 (2020);
          URL http://www.quantum-espresso.org", 
     in publications or presentations arising from this work. More details at
     http://www.quantum-espresso.org/quote

     Parallel version (MPI), running on     8 processors

     MPI processes distributed on     1 nodes
     56769 MiB available memory on the printing compute node when the environment starts

     Reading input from /home/jvc/QEspresso7.2/ZnO_database/scripts/cell121.in/ZnO-3.60-1.45-121.in
Warning: card &CELL ignored
Warning: card / ignored
Warning: card &FCP ignored
Warning: card / ignored
Warning: card &RISM ignored
Warning: card / ignored

     Current dimensions of program PWSCF are:
     Max number of different atomic species (ntypx) = 10
     Max number of k-points (npk) =  40000
     Max angular momentum in pseudopotentials (lmaxx) =  4
     file Zn.upf: wavefunction(s)  3D renormalized
     Found identity + (  0.0000 -0.5000  0.0000) symmetry
     This is a supercell, fractional translations are disabled
     Message from routine setup:
     using ibrav=0 with symmetry is DISCOURAGED, use correct ibrav instead

     K-points division:     npool     =       2
     R & G space division:  proc/nbgrp/npool/nimage =       4
     Subspace diagonalization in iterative solution of the eigenvalue problem:
     a serial algorithm will be used


     Parallelization info
     --------------------
     sticks:   dense  smooth     PW     G-vecs:    dense   smooth      PW
     Min         638     319     97                26701     9427    1603
     Max         640     320     98                26702     9430    1606
     Sum        2557    1279    389               106807    37715    6417

     Using Slab Decomposition



     bravais-lattice index     =            0
     lattice parameter (alat)  =       6.7967  a.u.
     unit-cell volume          =     790.1416 (a.u.)^3
     number of atoms/cell      =            8
     number of atomic types    =            2
     number of electrons       =        72.00
     number of Kohn-Sham states=           36
     kinetic-energy cutoff     =      50.0000  Ry
     charge density cutoff     =     400.0000  Ry
     scf convergence threshold =      1.0E-08
     mixing beta               =       0.3000
     number of iterations used =            8  plain     mixing
     Exchange-correlation= PBE
                           (   1   4   3   4   0   0   0)

     celldm(1)=   6.796739  celldm(2)=   0.000000  celldm(3)=   0.000000
     celldm(4)=   0.000000  celldm(5)=   0.000000  celldm(6)=   0.000000

     crystal axes: (cart. coord. in units of alat)
               a(1) = (   1.000000   0.000000   0.000000 )  
               a(2) = (  -1.000000   1.732051   0.000000 )  
               a(3) = (   0.000000   0.000000   1.452923 )  

     reciprocal axes: (cart. coord. in units 2 pi/alat)
               b(1) = (  1.000000  0.577350 -0.000000 )  
               b(2) = (  0.000000  0.577350  0.000000 )  
               b(3) = (  0.000000 -0.000000  0.688268 )  


     PseudoPot. # 1 for Zn read from file:
     /home/jvc/QEspresso7.2/ZnO_database/pseudos/Zn.upf
     MD5 check sum: 7f56cabf9682ed8c977c2f7d0c5985c5
     Pseudo is Ultrasoft + core correction, Zval = 12.0
     Generated using &quot;atomic&quot; code by A. Dal Corso  v.6.2.2
     Using radial grid of 1201 points,  6 beta functions with: 
                l(1) =   0
                l(2) =   0
                l(3) =   1
                l(4) =   1
                l(5) =   2
                l(6) =   2
     Q(r) pseudized with 0 coefficients 


     PseudoPot. # 2 for O  read from file:
     /home/jvc/QEspresso7.2/ZnO_database/pseudos/O.upf
     MD5 check sum: 91400c9766925bcf19f520983a725ff0
     Pseudo is Ultrasoft + core correction, Zval =  6.0
     Generated using &quot;atomic&quot; code by A. Dal Corso  v.6.3MaX
     Using radial grid of 1095 points,  4 beta functions with: 
                l(1) =   0
                l(2) =   0
                l(3) =   1
                l(4) =   1
     Q(r) pseudized with 0 coefficients 


     atomic species   valence    mass     pseudopotential
        Zn            12.00    65.38000     Zn( 1.00)
        O              6.00    15.99900     O ( 1.00)

      2 Sym. Ops. (no inversion) found


                                    s                        frac. trans.

      isym =  1     identity                                     

 cryst.   s( 1) = (     1          0          0      )
                  (     0          1          0      )
                  (     0          0          1      )

 cart.    s( 1) = (  1.0000000  0.0000000  0.0000000 )
                  (  0.0000000  1.0000000  0.0000000 )
                  (  0.0000000  0.0000000  1.0000000 )


      isym =  2     inv. 180 deg rotation - cart. axis [1,0,0]   

 cryst.   s( 2) = (    -1          0          0      )
                  (     2          1          0      )
                  (     0          0          1      )

 cart.    s( 2) = ( -1.0000000  0.0000000  0.0000000 )
                  (  0.0000000  1.0000000  0.0000000 )
                  (  0.0000000  0.0000000  1.0000000 )


   Cartesian axes

     site n.     atom                  positions (alat units)
         1           Zn  tau(   1) = (   0.0000000   0.0000000   0.0000000  )
         2           O   tau(   2) = (   0.0000000   0.5773503   0.1338080  )
         3           Zn  tau(   3) = (   0.0000000   0.5773503   0.7264613  )
         4           O   tau(   4) = (   0.0000000   0.0000000   0.8602692  )
         5           Zn  tau(   5) = (  -0.5000000   0.8660254   0.0000000  )
         6           O   tau(   6) = (  -0.5000000   1.4433757   0.1338080  )
         7           Zn  tau(   7) = (  -0.5000000   1.4433757   0.7264613  )
         8           O   tau(   8) = (  -0.5000000   0.8660254   0.8602692  )

   Crystallographic axes

     site n.     atom                  positions (cryst. coord.)
         1           Zn  tau(   1) = (  0.0000000  0.0000000  0.0000000  )
         2           O   tau(   2) = (  0.3333333  0.3333333  0.0920957  )
         3           Zn  tau(   3) = (  0.3333333  0.3333333  0.5000000  )
         4           O   tau(   4) = (  0.0000000  0.0000000  0.5920957  )
         5           Zn  tau(   5) = (  0.0000000  0.5000000  0.0000000  )
         6           O   tau(   6) = (  0.3333333  0.8333333  0.0920957  )
         7           Zn  tau(   7) = (  0.3333333  0.8333333  0.5000000  )
         8           O   tau(   8) = (  0.0000000  0.5000000  0.5920957  )

     number of k points=    80
                       cart. coord. in units 2pi/alat
        k(    1) = (   0.0000000   0.0000000   0.0000000), wk =   0.0092593
        k(    2) = (   0.0000000   0.0000000   0.1147113), wk =   0.0185185
        k(    3) = (   0.0000000   0.0000000   0.2294226), wk =   0.0185185
        k(    4) = (   0.0000000   0.0000000  -0.3441340), wk =   0.0092593
        k(    5) = (   0.0000000   0.0962250   0.0000000), wk =   0.0185185
        k(    6) = (   0.0000000   0.0962250   0.1147113), wk =   0.0185185
        k(    7) = (   0.0000000   0.0962250   0.2294226), wk =   0.0185185
        k(    8) = (   0.0000000   0.0962250  -0.3441340), wk =   0.0185185
        k(    9) = (   0.0000000   0.1924501   0.0000000), wk =   0.0185185
        k(   10) = (   0.0000000   0.1924501   0.1147113), wk =   0.0185185
        k(   11) = (   0.0000000   0.1924501   0.2294226), wk =   0.0185185
        k(   12) = (   0.0000000   0.1924501  -0.3441340), wk =   0.0185185
        k(   13) = (   0.0000000  -0.2886751   0.0000000), wk =   0.0092593
        k(   14) = (   0.0000000  -0.2886751   0.1147113), wk =   0.0185185
        k(   15) = (   0.0000000  -0.2886751   0.2294226), wk =   0.0185185
        k(   16) = (   0.0000000  -0.2886751  -0.3441340), wk =   0.0092593
        k(   17) = (   0.1666667   0.0962250   0.0000000), wk =   0.0370370
        k(   18) = (   0.1666667   0.0962250   0.1147113), wk =   0.0370370
        k(   19) = (   0.1666667   0.0962250   0.2294226), wk =   0.0370370
        k(   20) = (   0.1666667   0.0962250  -0.3441340), wk =   0.0370370
        k(   21) = (   0.1666667   0.1924501   0.0000000), wk =   0.0370370
        k(   22) = (   0.1666667   0.1924501   0.1147113), wk =   0.0370370
        k(   23) = (   0.1666667   0.1924501   0.2294226), wk =   0.0370370
        k(   24) = (   0.1666667   0.1924501  -0.3441340), wk =   0.0370370
        k(   25) = (   0.1666667   0.2886751   0.0000000), wk =   0.0185185
        k(   26) = (   0.1666667   0.2886751   0.1147113), wk =   0.0370370
        k(   27) = (   0.1666667   0.2886751   0.2294226), wk =   0.0370370
        k(   28) = (   0.1666667   0.2886751  -0.3441340), wk =   0.0185185
        k(   29) = (   0.1666667   0.0000000   0.0000000), wk =   0.0185185
        k(   30) = (   0.1666667   0.0000000   0.1147113), wk =   0.0370370
        k(   31) = (   0.1666667   0.0000000   0.2294226), wk =   0.0370370
        k(   32) = (   0.1666667   0.0000000  -0.3441340), wk =   0.0185185
        k(   33) = (   0.3333333   0.1924501   0.0000000), wk =   0.0370370
        k(   34) = (   0.3333333   0.1924501   0.1147113), wk =   0.0370370
        k(   35) = (   0.3333333   0.1924501   0.2294226), wk =   0.0370370
        k(   36) = (   0.3333333   0.1924501  -0.3441340), wk =   0.0370370
        k(   37) = (   0.3333333   0.2886751   0.0000000), wk =   0.0185185
        k(   38) = (   0.3333333   0.2886751   0.1147113), wk =   0.0370370
        k(   39) = (   0.3333333   0.2886751   0.2294226), wk =   0.0370370
        k(   40) = (   0.3333333   0.2886751  -0.3441340), wk =   0.0185185
        k(   41) = (   0.3333333  -0.0962250   0.0000000), wk =   0.0370370
        k(   42) = (   0.3333333  -0.0962250   0.1147113), wk =   0.0370370
        k(   43) = (   0.3333333  -0.0962250   0.2294226), wk =   0.0370370
        k(   44) = (   0.3333333  -0.0962250  -0.3441340), wk =   0.0370370
        k(   45) = (   0.3333333  -0.0000000   0.0000000), wk =   0.0185185
        k(   46) = (   0.3333333  -0.0000000   0.1147113), wk =   0.0370370
        k(   47) = (   0.3333333  -0.0000000   0.2294226), wk =   0.0370370
        k(   48) = (   0.3333333  -0.0000000  -0.3441340), wk =   0.0185185
        k(   49) = (  -0.5000000  -0.2886751   0.0000000), wk =   0.0092593
        k(   50) = (  -0.5000000  -0.2886751   0.1147113), wk =   0.0185185
        k(   51) = (  -0.5000000  -0.2886751   0.2294226), wk =   0.0185185
        k(   52) = (  -0.5000000  -0.2886751  -0.3441340), wk =   0.0092593
        k(   53) = (  -0.5000000  -0.1924501   0.0000000), wk =   0.0185185
        k(   54) = (  -0.5000000  -0.1924501   0.1147113), wk =   0.0185185
        k(   55) = (  -0.5000000  -0.1924501   0.2294226), wk =   0.0185185
        k(   56) = (  -0.5000000  -0.1924501  -0.3441340), wk =   0.0185185
        k(   57) = (  -0.5000000  -0.0962250   0.0000000), wk =   0.0185185
        k(   58) = (  -0.5000000  -0.0962250   0.1147113), wk =   0.0185185
        k(   59) = (  -0.5000000  -0.0962250   0.2294226), wk =   0.0185185
        k(   60) = (  -0.5000000  -0.0962250  -0.3441340), wk =   0.0185185
        k(   61) = (  -0.5000000  -0.5773503   0.0000000), wk =   0.0092593
        k(   62) = (  -0.5000000  -0.5773503   0.1147113), wk =   0.0185185
        k(   63) = (  -0.5000000  -0.5773503   0.2294226), wk =   0.0185185
        k(   64) = (  -0.5000000  -0.5773503  -0.3441340), wk =   0.0092593
        k(   65) = (   0.0000000   0.0962250  -0.1147113), wk =   0.0185185
        k(   66) = (   0.0000000   0.0962250  -0.2294226), wk =   0.0185185
        k(   67) = (   0.0000000   0.1924501  -0.1147113), wk =   0.0185185
        k(   68) = (   0.0000000   0.1924501  -0.2294226), wk =   0.0185185
        k(   69) = (  -0.1666667   0.0962250  -0.1147113), wk =   0.0370370
        k(   70) = (  -0.1666667   0.0962250  -0.2294226), wk =   0.0370370
        k(   71) = (  -0.1666667   0.1924501  -0.1147113), wk =   0.0370370
        k(   72) = (  -0.1666667   0.1924501  -0.2294226), wk =   0.0370370
        k(   73) = (  -0.3333333   0.1924501  -0.1147113), wk =   0.0370370
        k(   74) = (  -0.3333333   0.1924501  -0.2294226), wk =   0.0370370
        k(   75) = (  -0.3333333  -0.0962250  -0.1147113), wk =   0.0370370
        k(   76) = (  -0.3333333  -0.0962250  -0.2294226), wk =   0.0370370
        k(   77) = (   0.5000000  -0.1924501  -0.1147113), wk =   0.0185185
        k(   78) = (   0.5000000  -0.1924501  -0.2294226), wk =   0.0185185
        k(   79) = (   0.5000000  -0.0962250  -0.1147113), wk =   0.0185185
        k(   80) = (   0.5000000  -0.0962250  -0.2294226), wk =   0.0185185

                       cryst. coord.
        k(    1) = (   0.0000000   0.0000000   0.0000000), wk =   0.0092593
        k(    2) = (   0.0000000   0.0000000   0.1666667), wk =   0.0185185
        k(    3) = (   0.0000000   0.0000000   0.3333333), wk =   0.0185185
        k(    4) = (   0.0000000   0.0000000  -0.5000000), wk =   0.0092593
        k(    5) = (   0.0000000   0.1666667   0.0000000), wk =   0.0185185
        k(    6) = (   0.0000000   0.1666667   0.1666667), wk =   0.0185185
        k(    7) = (   0.0000000   0.1666667   0.3333333), wk =   0.0185185
        k(    8) = (   0.0000000   0.1666667  -0.5000000), wk =   0.0185185
        k(    9) = (   0.0000000   0.3333333   0.0000000), wk =   0.0185185
        k(   10) = (   0.0000000   0.3333333   0.1666667), wk =   0.0185185
        k(   11) = (   0.0000000   0.3333333   0.3333333), wk =   0.0185185
        k(   12) = (   0.0000000   0.3333333  -0.5000000), wk =   0.0185185
        k(   13) = (   0.0000000  -0.5000000   0.0000000), wk =   0.0092593
        k(   14) = (   0.0000000  -0.5000000   0.1666667), wk =   0.0185185
        k(   15) = (   0.0000000  -0.5000000   0.3333333), wk =   0.0185185
        k(   16) = (   0.0000000  -0.5000000  -0.5000000), wk =   0.0092593
        k(   17) = (   0.1666667   0.0000000   0.0000000), wk =   0.0370370
        k(   18) = (   0.1666667   0.0000000   0.1666667), wk =   0.0370370
        k(   19) = (   0.1666667   0.0000000   0.3333333), wk =   0.0370370
        k(   20) = (   0.1666667   0.0000000  -0.5000000), wk =   0.0370370
        k(   21) = (   0.1666667   0.1666667   0.0000000), wk =   0.0370370
        k(   22) = (   0.1666667   0.1666667   0.1666667), wk =   0.0370370
        k(   23) = (   0.1666667   0.1666667   0.3333333), wk =   0.0370370
        k(   24) = (   0.1666667   0.1666667  -0.5000000), wk =   0.0370370
        k(   25) = (   0.1666667   0.3333333   0.0000000), wk =   0.0185185
        k(   26) = (   0.1666667   0.3333333   0.1666667), wk =   0.0370370
        k(   27) = (   0.1666667   0.3333333   0.3333333), wk =   0.0370370
        k(   28) = (   0.1666667   0.3333333  -0.5000000), wk =   0.0185185
        k(   29) = (   0.1666667  -0.1666667   0.0000000), wk =   0.0185185
        k(   30) = (   0.1666667  -0.1666667   0.1666667), wk =   0.0370370
        k(   31) = (   0.1666667  -0.1666667   0.3333333), wk =   0.0370370
        k(   32) = (   0.1666667  -0.1666667  -0.5000000), wk =   0.0185185
        k(   33) = (   0.3333333   0.0000000   0.0000000), wk =   0.0370370
        k(   34) = (   0.3333333   0.0000000   0.1666667), wk =   0.0370370
        k(   35) = (   0.3333333   0.0000000   0.3333333), wk =   0.0370370
        k(   36) = (   0.3333333   0.0000000  -0.5000000), wk =   0.0370370
        k(   37) = (   0.3333333   0.1666667   0.0000000), wk =   0.0185185
        k(   38) = (   0.3333333   0.1666667   0.1666667), wk =   0.0370370
        k(   39) = (   0.3333333   0.1666667   0.3333333), wk =   0.0370370
        k(   40) = (   0.3333333   0.1666667  -0.5000000), wk =   0.0185185
        k(   41) = (   0.3333333  -0.5000000   0.0000000), wk =   0.0370370
        k(   42) = (   0.3333333  -0.5000000   0.1666667), wk =   0.0370370
        k(   43) = (   0.3333333  -0.5000000   0.3333333), wk =   0.0370370
        k(   44) = (   0.3333333  -0.5000000  -0.5000000), wk =   0.0370370
        k(   45) = (   0.3333333  -0.3333333   0.0000000), wk =   0.0185185
        k(   46) = (   0.3333333  -0.3333333   0.1666667), wk =   0.0370370
        k(   47) = (   0.3333333  -0.3333333   0.3333333), wk =   0.0370370
        k(   48) = (   0.3333333  -0.3333333  -0.5000000), wk =   0.0185185
        k(   49) = (  -0.5000000   0.0000000   0.0000000), wk =   0.0092593
        k(   50) = (  -0.5000000   0.0000000   0.1666667), wk =   0.0185185
        k(   51) = (  -0.5000000   0.0000000   0.3333333), wk =   0.0185185
        k(   52) = (  -0.5000000   0.0000000  -0.5000000), wk =   0.0092593
        k(   53) = (  -0.5000000   0.1666667   0.0000000), wk =   0.0185185
        k(   54) = (  -0.5000000   0.1666667   0.1666667), wk =   0.0185185
        k(   55) = (  -0.5000000   0.1666667   0.3333333), wk =   0.0185185
        k(   56) = (  -0.5000000   0.1666667  -0.5000000), wk =   0.0185185
        k(   57) = (  -0.5000000   0.3333333   0.0000000), wk =   0.0185185
        k(   58) = (  -0.5000000   0.3333333   0.1666667), wk =   0.0185185
        k(   59) = (  -0.5000000   0.3333333   0.3333333), wk =   0.0185185
        k(   60) = (  -0.5000000   0.3333333  -0.5000000), wk =   0.0185185
        k(   61) = (  -0.5000000  -0.5000000   0.0000000), wk =   0.0092593
        k(   62) = (  -0.5000000  -0.5000000   0.1666667), wk =   0.0185185
        k(   63) = (  -0.5000000  -0.5000000   0.3333333), wk =   0.0185185
        k(   64) = (  -0.5000000  -0.5000000  -0.5000000), wk =   0.0092593
        k(   65) = (   0.0000000   0.1666667  -0.1666667), wk =   0.0185185
        k(   66) = (   0.0000000   0.1666667  -0.3333333), wk =   0.0185185
        k(   67) = (   0.0000000   0.3333333  -0.1666667), wk =   0.0185185
        k(   68) = (   0.0000000   0.3333333  -0.3333333), wk =   0.0185185
        k(   69) = (  -0.1666667   0.3333333  -0.1666667), wk =   0.0370370
        k(   70) = (  -0.1666667   0.3333333  -0.3333333), wk =   0.0370370
        k(   71) = (  -0.1666667   0.5000000  -0.1666667), wk =   0.0370370
        k(   72) = (  -0.1666667   0.5000000  -0.3333333), wk =   0.0370370
        k(   73) = (  -0.3333333   0.6666667  -0.1666667), wk =   0.0370370
        k(   74) = (  -0.3333333   0.6666667  -0.3333333), wk =   0.0370370
        k(   75) = (  -0.3333333   0.1666667  -0.1666667), wk =   0.0370370
        k(   76) = (  -0.3333333   0.1666667  -0.3333333), wk =   0.0370370
        k(   77) = (   0.5000000  -0.8333333  -0.1666667), wk =   0.0185185
        k(   78) = (   0.5000000  -0.8333333  -0.3333333), wk =   0.0185185
        k(   79) = (   0.5000000  -0.6666667  -0.1666667), wk =   0.0185185
        k(   80) = (   0.5000000  -0.6666667  -0.3333333), wk =   0.0185185

     Dense  grid:   106807 G-vectors     FFT dimensions: (  45,  90,  64)

     Smooth grid:    37715 G-vectors     FFT dimensions: (  32,  64,  45)

     Dynamical RAM for                 wfc:       0.65 MB

     Dynamical RAM for     wfc (w. buffer):      26.55 MB

     Dynamical RAM for           str. fact:       0.81 MB

     Dynamical RAM for           local pot:       0.00 MB

     Dynamical RAM for          nlocal pot:       1.87 MB

     Dynamical RAM for                qrad:       3.21 MB

     Dynamical RAM for          rho,v,vnew:       2.71 MB

     Dynamical RAM for               rhoin:       0.90 MB

     Dynamical RAM for            rho*nmix:       6.52 MB

     Dynamical RAM for           G-vectors:       1.60 MB

     Dynamical RAM for          h,s,v(r/c):       0.24 MB

     Dynamical RAM for          <psi|beta>:       0.06 MB

     Dynamical RAM for                 psi:       1.30 MB

     Dynamical RAM for                hpsi:       1.30 MB

     Dynamical RAM for                spsi:       1.30 MB

     Dynamical RAM for      wfcinit/wfcrot:       1.93 MB

     Dynamical RAM for           addusdens:      38.91 MB

     Dynamical RAM for          addusforce:      40.15 MB

     Estimated static dynamical RAM per process >      41.35 MB

     Estimated max dynamical RAM per process >      88.02 MB

     Estimated total dynamical RAM >     678.08 MB

     Check: negative core charge=   -0.000002

     Initial potential from superposition of free atoms

     starting charge      71.9851, renormalised to      72.0000
     Starting wfcs are   52 randomized atomic wfcs

     total cpu time spent up to now is        6.0 secs

     Self-consistent Calculation

     iteration #  1     ecut=    50.00 Ry     beta= 0.30
     Davidson diagonalization with overlap

---- Real-time Memory Report at c_bands before calling an iterative solver
            86 MiB given to the printing process from OS
             0 MiB allocation reported by mallinfo(arena+hblkhd)
         56400 MiB available memory on the node where the printing process lives
------------------
     ethr =  1.00E-02,  avg # of iterations =  1.4

     total cpu time spent up to now is       13.1 secs

     total energy              =    -722.80118825 Ry
     estimated scf accuracy    <       1.56881318 Ry

     iteration #  2     ecut=    50.00 Ry     beta= 0.30
     Davidson diagonalization with overlap

---- Real-time Memory Report at c_bands before calling an iterative solver
           125 MiB given to the printing process from OS
             0 MiB allocation reported by mallinfo(arena+hblkhd)
         56101 MiB available memory on the node where the printing process lives
------------------
     ethr =  2.18E-03,  avg # of iterations =  2.2

     total cpu time spent up to now is       21.8 secs

     total energy              =    -723.04750610 Ry
     estimated scf accuracy    <       0.17244332 Ry

     iteration #  3     ecut=    50.00 Ry     beta= 0.30
     Davidson diagonalization with overlap

---- Real-time Memory Report at c_bands before calling an iterative solver
           127 MiB given to the printing process from OS
             0 MiB allocation reported by mallinfo(arena+hblkhd)
         56124 MiB available memory on the node where the printing process lives
------------------
     ethr =  2.40E-04,  avg # of iterations =  6.2

     total cpu time spent up to now is       35.9 secs

     total energy              =    -723.06790441 Ry
     estimated scf accuracy    <       0.21281411 Ry

     iteration #  4     ecut=    50.00 Ry     beta= 0.30
     Davidson diagonalization with overlap

---- Real-time Memory Report at c_bands before calling an iterative solver
           127 MiB given to the printing process from OS
             0 MiB allocation reported by mallinfo(arena+hblkhd)
         56112 MiB available memory on the node where the printing process lives
------------------
     ethr =  2.40E-04,  avg # of iterations =  9.7

     total cpu time spent up to now is       56.5 secs

     total energy              =    -723.24205673 Ry
     estimated scf accuracy    <       0.88626825 Ry

     iteration #  5     ecut=    50.00 Ry     beta= 0.30
     Davidson diagonalization with overlap

---- Real-time Memory Report at c_bands before calling an iterative solver
           128 MiB given to the printing process from OS
             0 MiB allocation reported by mallinfo(arena+hblkhd)
         56162 MiB available memory on the node where the printing process lives
------------------
     ethr =  2.40E-04,  avg # of iterations =  2.0

     total cpu time spent up to now is       64.1 secs

     total energy              =    -722.84827334 Ry
     estimated scf accuracy    <       0.57038540 Ry

     iteration #  6     ecut=    50.00 Ry     beta= 0.30
     Davidson diagonalization with overlap

---- Real-time Memory Report at c_bands before calling an iterative solver
           128 MiB given to the printing process from OS
             0 MiB allocation reported by mallinfo(arena+hblkhd)
         56104 MiB available memory on the node where the printing process lives
------------------
     ethr =  2.40E-04,  avg # of iterations =  9.5

     total cpu time spent up to now is       81.1 secs

     total energy              =    -723.14938388 Ry
     estimated scf accuracy    <       0.91824378 Ry

     iteration #  7     ecut=    50.00 Ry     beta= 0.30
     Davidson diagonalization with overlap

---- Real-time Memory Report at c_bands before calling an iterative solver
           128 MiB given to the printing process from OS
             0 MiB allocation reported by mallinfo(arena+hblkhd)
         56135 MiB available memory on the node where the printing process lives
------------------
     ethr =  2.40E-04,  avg # of iterations =  5.2

     total cpu time spent up to now is       91.5 secs

     total energy              =    -723.18989496 Ry
     estimated scf accuracy    <       0.26282228 Ry

     iteration #  8     ecut=    50.00 Ry     beta= 0.30
     Davidson diagonalization with overlap

---- Real-time Memory Report at c_bands before calling an iterative solver
           128 MiB given to the printing process from OS
             0 MiB allocation reported by mallinfo(arena+hblkhd)
         56143 MiB available memory on the node where the printing process lives
------------------
     ethr =  2.40E-04,  avg # of iterations =  1.9

     total cpu time spent up to now is       98.9 secs

     total energy              =    -723.19768905 Ry
     estimated scf accuracy    <       0.22420348 Ry

     iteration #  9     ecut=    50.00 Ry     beta= 0.30
     Davidson diagonalization with overlap

---- Real-time Memory Report at c_bands before calling an iterative solver
           129 MiB given to the printing process from OS
             0 MiB allocation reported by mallinfo(arena+hblkhd)
         56133 MiB available memory on the node where the printing process lives
------------------
     ethr =  2.40E-04,  avg # of iterations =  1.7

     total cpu time spent up to now is      106.3 secs

     total energy              =    -723.19922384 Ry
     estimated scf accuracy    <       0.19859744 Ry

     iteration # 10     ecut=    50.00 Ry     beta= 0.30
     Davidson diagonalization with overlap

---- Real-time Memory Report at c_bands before calling an iterative solver
           129 MiB given to the printing process from OS
             0 MiB allocation reported by mallinfo(arena+hblkhd)
         56122 MiB available memory on the node where the printing process lives
------------------
     ethr =  2.40E-04,  avg # of iterations =  1.3

     total cpu time spent up to now is      113.3 secs

     total energy              =    -723.18119988 Ry
     estimated scf accuracy    <       0.17309020 Ry

     iteration # 11     ecut=    50.00 Ry     beta= 0.30
     Davidson diagonalization with overlap

---- Real-time Memory Report at c_bands before calling an iterative solver
           129 MiB given to the printing process from OS
             0 MiB allocation reported by mallinfo(arena+hblkhd)
         56143 MiB available memory on the node where the printing process lives
------------------
     ethr =  2.40E-04,  avg # of iterations =  1.7

     total cpu time spent up to now is      120.5 secs

     total energy              =    -723.16134982 Ry
     estimated scf accuracy    <       0.11670367 Ry

     iteration # 12     ecut=    50.00 Ry     beta= 0.30
     Davidson diagonalization with overlap

---- Real-time Memory Report at c_bands before calling an iterative solver
           129 MiB given to the printing process from OS
             0 MiB allocation reported by mallinfo(arena+hblkhd)
         56153 MiB available memory on the node where the printing process lives
------------------
     ethr =  1.62E-04,  avg # of iterations =  3.1

     total cpu time spent up to now is      129.0 secs

     total energy              =    -723.17390343 Ry
     estimated scf accuracy    <       0.03896664 Ry

     iteration # 13     ecut=    50.00 Ry     beta= 0.30
     Davidson diagonalization with overlap

---- Real-time Memory Report at c_bands before calling an iterative solver
           129 MiB given to the printing process from OS
             0 MiB allocation reported by mallinfo(arena+hblkhd)
         56142 MiB available memory on the node where the printing process lives
------------------
     ethr =  5.41E-05,  avg # of iterations =  5.2

     total cpu time spent up to now is      138.2 secs

     total energy              =    -723.17365527 Ry
     estimated scf accuracy    <       0.02250651 Ry

     iteration # 14     ecut=    50.00 Ry     beta= 0.30
     Davidson diagonalization with overlap

---- Real-time Memory Report at c_bands before calling an iterative solver
           129 MiB given to the printing process from OS
             0 MiB allocation reported by mallinfo(arena+hblkhd)
         56159 MiB available memory on the node where the printing process lives
------------------
     ethr =  3.13E-05,  avg # of iterations =  4.5

     total cpu time spent up to now is      147.4 secs

     total energy              =    -723.17593491 Ry
     estimated scf accuracy    <       0.00554091 Ry

     iteration # 15     ecut=    50.00 Ry     beta= 0.30
     Davidson diagonalization with overlap

---- Real-time Memory Report at c_bands before calling an iterative solver
           129 MiB given to the printing process from OS
             0 MiB allocation reported by mallinfo(arena+hblkhd)
         56162 MiB available memory on the node where the printing process lives
------------------
     ethr =  7.70E-06,  avg # of iterations =  5.5

     total cpu time spent up to now is      158.3 secs

     total energy              =    -723.17763962 Ry
     estimated scf accuracy    <       0.00035573 Ry

     iteration # 16     ecut=    50.00 Ry     beta= 0.30
     Davidson diagonalization with overlap

---- Real-time Memory Report at c_bands before calling an iterative solver
           129 MiB given to the printing process from OS
             0 MiB allocation reported by mallinfo(arena+hblkhd)
         56158 MiB available memory on the node where the printing process lives
------------------
     ethr =  4.94E-07,  avg # of iterations =  6.6

     total cpu time spent up to now is      170.8 secs

     total energy              =    -723.17785141 Ry
     estimated scf accuracy    <       0.00004484 Ry

     iteration # 17     ecut=    50.00 Ry     beta= 0.30
     Davidson diagonalization with overlap

---- Real-time Memory Report at c_bands before calling an iterative solver
           129 MiB given to the printing process from OS
             0 MiB allocation reported by mallinfo(arena+hblkhd)
         56170 MiB available memory on the node where the printing process lives
------------------
     ethr =  6.23E-08,  avg # of iterations =  5.4

     total cpu time spent up to now is      181.5 secs

     total energy              =    -723.17810568 Ry
     estimated scf accuracy    <       0.00001653 Ry

     iteration # 18     ecut=    50.00 Ry     beta= 0.30
     Davidson diagonalization with overlap

---- Real-time Memory Report at c_bands before calling an iterative solver
           129 MiB given to the printing process from OS
             0 MiB allocation reported by mallinfo(arena+hblkhd)
         56173 MiB available memory on the node where the printing process lives
------------------
     c_bands:  1 eigenvalues not converged
     c_bands:  1 eigenvalues not converged
     ethr =  2.30E-08,  avg # of iterations = 15.2

     total cpu time spent up to now is      212.3 secs

     total energy              =    -723.17862545 Ry
     estimated scf accuracy    <       0.00331638 Ry

     iteration # 19     ecut=    50.00 Ry     beta= 0.30
     Davidson diagonalization with overlap

---- Real-time Memory Report at c_bands before calling an iterative solver
           129 MiB given to the printing process from OS
             0 MiB allocation reported by mallinfo(arena+hblkhd)
         56178 MiB available memory on the node where the printing process lives
------------------
     ethr =  2.30E-08,  avg # of iterations =  1.2

     total cpu time spent up to now is      219.2 secs

     total energy              =    -723.17802091 Ry
     estimated scf accuracy    <       0.00330081 Ry

     iteration # 20     ecut=    50.00 Ry     beta= 0.30
     Davidson diagonalization with overlap

---- Real-time Memory Report at c_bands before calling an iterative solver
           129 MiB given to the printing process from OS
             0 MiB allocation reported by mallinfo(arena+hblkhd)
         56175 MiB available memory on the node where the printing process lives
------------------
     ethr =  2.30E-08,  avg # of iterations = 11.8

     total cpu time spent up to now is      242.7 secs

     total energy              =    -723.17808916 Ry
     estimated scf accuracy    <       0.00114308 Ry

     iteration # 21     ecut=    50.00 Ry     beta= 0.30
     Davidson diagonalization with overlap

---- Real-time Memory Report at c_bands before calling an iterative solver
           129 MiB given to the printing process from OS
             0 MiB allocation reported by mallinfo(arena+hblkhd)
         56186 MiB available memory on the node where the printing process lives
------------------
     ethr =  2.30E-08,  avg # of iterations =  1.8

     total cpu time spent up to now is      250.0 secs

     total energy              =    -723.17793750 Ry
     estimated scf accuracy    <       0.00106793 Ry

     iteration # 22     ecut=    50.00 Ry     beta= 0.30
     Davidson diagonalization with overlap

---- Real-time Memory Report at c_bands before calling an iterative solver
           129 MiB given to the printing process from OS
             0 MiB allocation reported by mallinfo(arena+hblkhd)
         56159 MiB available memory on the node where the printing process lives
------------------
     ethr =  2.30E-08,  avg # of iterations =  7.9

     total cpu time spent up to now is      266.2 secs

     total energy              =    -723.17800547 Ry
     estimated scf accuracy    <       0.00046361 Ry

     iteration # 23     ecut=    50.00 Ry     beta= 0.30
     Davidson diagonalization with overlap

---- Real-time Memory Report at c_bands before calling an iterative solver
           129 MiB given to the printing process from OS
             0 MiB allocation reported by mallinfo(arena+hblkhd)
         56171 MiB available memory on the node where the printing process lives
------------------
     ethr =  2.30E-08,  avg # of iterations =  2.0

     total cpu time spent up to now is      273.7 secs

     total energy              =    -723.17816384 Ry
     estimated scf accuracy    <       0.00054691 Ry

     iteration # 24     ecut=    50.00 Ry     beta= 0.30
     Davidson diagonalization with overlap

---- Real-time Memory Report at c_bands before calling an iterative solver
           129 MiB given to the printing process from OS
             0 MiB allocation reported by mallinfo(arena+hblkhd)
         56173 MiB available memory on the node where the printing process lives
------------------
     ethr =  2.30E-08,  avg # of iterations =  9.3

     total cpu time spent up to now is      293.1 secs

     total energy              =    -723.17784014 Ry
     estimated scf accuracy    <       0.00145712 Ry

     iteration # 25     ecut=    50.00 Ry     beta= 0.30
     Davidson diagonalization with overlap

---- Real-time Memory Report at c_bands before calling an iterative solver
           129 MiB given to the printing process from OS
             0 MiB allocation reported by mallinfo(arena+hblkhd)
         56177 MiB available memory on the node where the printing process lives
------------------
     ethr =  2.30E-08,  avg # of iterations = 11.3

     total cpu time spent up to now is      315.9 secs

     total energy              =    -723.17787295 Ry
     estimated scf accuracy    <       0.00027150 Ry

     iteration # 26     ecut=    50.00 Ry     beta= 0.30
     Davidson diagonalization with overlap

---- Real-time Memory Report at c_bands before calling an iterative solver
           129 MiB given to the printing process from OS
             0 MiB allocation reported by mallinfo(arena+hblkhd)
         56184 MiB available memory on the node where the printing process lives
------------------
     ethr =  2.30E-08,  avg # of iterations =  6.0

     total cpu time spent up to now is      328.0 secs

     total energy              =    -723.17785800 Ry
     estimated scf accuracy    <       0.00009901 Ry

     iteration # 27     ecut=    50.00 Ry     beta= 0.30
     Davidson diagonalization with overlap

---- Real-time Memory Report at c_bands before calling an iterative solver
           129 MiB given to the printing process from OS
             0 MiB allocation reported by mallinfo(arena+hblkhd)
         56179 MiB available memory on the node where the printing process lives
------------------
     ethr =  2.30E-08,  avg # of iterations =  5.7

     total cpu time spent up to now is      339.2 secs

     total energy              =    -723.17785878 Ry
     estimated scf accuracy    <       0.00002076 Ry

     iteration # 28     ecut=    50.00 Ry     beta= 0.30
     Davidson diagonalization with overlap

---- Real-time Memory Report at c_bands before calling an iterative solver
           129 MiB given to the printing process from OS
             0 MiB allocation reported by mallinfo(arena+hblkhd)
         56183 MiB available memory on the node where the printing process lives
------------------
     ethr =  2.30E-08,  avg # of iterations =  3.4

     total cpu time spent up to now is      347.4 secs

     total energy              =    -723.17785898 Ry
     estimated scf accuracy    <       0.00000703 Ry

     iteration # 29     ecut=    50.00 Ry     beta= 0.30
     Davidson diagonalization with overlap

---- Real-time Memory Report at c_bands before calling an iterative solver
           129 MiB given to the printing process from OS
             0 MiB allocation reported by mallinfo(arena+hblkhd)
         56168 MiB available memory on the node where the printing process lives
------------------
     ethr =  9.77E-09,  avg # of iterations =  5.7

     total cpu time spent up to now is      358.6 secs

     total energy              =    -723.17786199 Ry
     estimated scf accuracy    <       0.00000004 Ry

     iteration # 30     ecut=    50.00 Ry     beta= 0.30
     Davidson diagonalization with overlap

---- Real-time Memory Report at c_bands before calling an iterative solver
           129 MiB given to the printing process from OS
             0 MiB allocation reported by mallinfo(arena+hblkhd)
         56187 MiB available memory on the node where the printing process lives
------------------
     ethr =  5.51E-11,  avg # of iterations = 11.8

     total cpu time spent up to now is      381.3 secs

     total energy              =    -723.17786195 Ry
     estimated scf accuracy    <       0.00000113 Ry

     iteration # 31     ecut=    50.00 Ry     beta= 0.30
     Davidson diagonalization with overlap

---- Real-time Memory Report at c_bands before calling an iterative solver
           129 MiB given to the printing process from OS
             0 MiB allocation reported by mallinfo(arena+hblkhd)
         56186 MiB available memory on the node where the printing process lives
------------------
     ethr =  5.51E-11,  avg # of iterations =  9.2

     total cpu time spent up to now is      400.1 secs

     total energy              =    -723.17786198 Ry
     estimated scf accuracy    <       0.00000013 Ry

     iteration # 32     ecut=    50.00 Ry     beta= 0.30
     Davidson diagonalization with overlap

---- Real-time Memory Report at c_bands before calling an iterative solver
           129 MiB given to the printing process from OS
             0 MiB allocation reported by mallinfo(arena+hblkhd)
         56188 MiB available memory on the node where the printing process lives
------------------
     ethr =  5.51E-11,  avg # of iterations =  6.5

     total cpu time spent up to now is      413.7 secs

     End of self-consistent calculation

          k = 0.0000 0.0000 0.0000 (  4731 PWs)   bands (ev):

   -12.1218 -11.7093 -11.5643 -11.5330  -0.4738  -0.4737  -0.4661  -0.3888
    -0.3886  -0.2508  -0.2481  -0.1661  -0.0169   0.0089   0.0708   0.1440
     0.1440   0.2347   0.2430   0.3130   0.3131   0.3453   0.3698   0.3728
     0.8229   1.1810   1.5672   2.4519   2.6785   3.6534   3.7902   3.8055
     3.8059   4.4360   4.4365   4.4689

     occupation numbers 
     1.0000   1.0000   1.0000   1.0000   1.0000   1.0000   1.0000   1.0000
     1.0000   1.0000   1.0000   1.0000   1.0000   1.0000   1.0000   1.0000
     1.0000   1.0000   1.0000   1.0000   1.0000   1.0000   1.0000   1.0000
     1.0000   1.0000   1.0000   1.0000   1.0000   1.0000   1.0000   1.0000
     1.0000   1.0000   1.0000   1.0000

          k = 0.0000 0.0000 0.1147 (  4726 PWs)   bands (ev):

   -12.0848 -11.6950 -11.6019 -11.5421  -0.4932  -0.4762  -0.4760  -0.4024
    -0.4023  -0.2877  -0.2551  -0.2347  -0.0560  -0.0109   0.0370   0.0452
     0.1626   0.1627   0.2390   0.2762   0.3087   0.3087   0.3299   0.3693
     1.1291   1.2717   1.4684   2.7485   2.7621   3.7217   3.8045   3.8510
     3.8514   3.8568   4.3974   4.3978

     occupation numbers 
     1.0000   1.0000   1.0000   1.0000   1.0000   1.0000   1.0000   1.0000
     1.0000   1.0000   1.0000   1.0000   1.0000   1.0000   1.0000   1.0000
     1.0000   1.0000   1.0000   1.0000   1.0000   1.0000   1.0000   1.0000
     1.0000   1.0000   1.0000   1.0000   1.0000   1.0000   1.0000   1.0000
     1.0000   1.0000   1.0000   1.0000

          k = 0.0000 0.0000 0.2294 (  4756 PWs)   bands (ev):

   -11.9835 -11.7045 -11.6575 -11.5691  -0.5490  -0.4763  -0.4762  -0.4429
    -0.4338  -0.4336  -0.3599  -0.2590  -0.1955  -0.0837  -0.0651  -0.0304
     0.2072   0.2072   0.2509   0.2912   0.2912   0.2985   0.3192   0.3635
     1.1110   1.3003   1.9164   2.9808   3.1773   3.3349   3.5314   3.9731
     3.9735   3.9823   4.2890   4.2894

     occupation numbers 
     1.0000   1.0000   1.0000   1.0000   1.0000   1.0000   1.0000   1.0000
     1.0000   1.0000   1.0000   1.0000   1.0000   1.0000   1.0000   1.0000
     1.0000   1.0000   1.0000   1.0000   1.0000   1.0000   1.0000   1.0000
     1.0000   1.0000   1.0000   1.0000   1.0000   1.0000   1.0000   1.0000
     1.0000   1.0000   1.0000   1.0000

          k = 0.0000 0.0000-0.3441 (  4718 PWs)   bands (ev):

   -11.8443 -11.8443 -11.6107 -11.6107  -0.5546  -0.5546  -0.4626  -0.4626
    -0.4624  -0.4624  -0.3804  -0.3804  -0.1342  -0.1342  -0.0764  -0.0764
     0.2560   0.2560   0.2560   0.2560   0.2709   0.2709   0.3479   0.3479
     1.1752   1.1752   2.5503   2.5503   3.2629   3.2629   3.8284   3.8284
     4.1344   4.1344   4.1348   4.1349

     occupation numbers 
     1.0000   1.0000   1.0000   1.0000   1.0000   1.0000   1.0000   1.0000
     1.0000   1.0000   1.0000   1.0000   1.0000   1.0000   1.0000   1.0000
     1.0000   1.0000   1.0000   1.0000   1.0000   1.0000   1.0000   1.0000
     1.0000   1.0000   1.0000   1.0000   1.0000   1.0000   1.0000   1.0000
     1.0000   1.0000   1.0000   1.0000

          k = 0.0000 0.0962 0.0000 (  4713 PWs)   bands (ev):

   -12.0990 -11.7487 -11.5581 -11.5241  -0.4871  -0.4772  -0.4552  -0.3832
    -0.3666  -0.2576  -0.2362  -0.2151  -0.0430  -0.0228   0.0727   0.1367
     0.1421   0.1979   0.2152   0.2290   0.3162   0.3438   0.4275   0.4361
     0.8994   1.2728   1.7074   2.3800   2.7577   3.5969   3.7294   3.7565
     3.8370   3.9262   4.3974   4.4383

     occupation numbers 
     1.0000   1.0000   1.0000   1.0000   1.0000   1.0000   1.0000   1.0000
     1.0000   1.0000   1.0000   1.0000   1.0000   1.0000   1.0000   1.0000
     1.0000   1.0000   1.0000   1.0000   1.0000   1.0000   1.0000   1.0000
     1.0000   1.0000   1.0000   1.0000   1.0000   1.0000   1.0000   1.0000
     1.0000   1.0000   1.0000   1.0000

          k = 0.0000 0.0962 0.1147 (  4724 PWs)   bands (ev):

   -12.0630 -11.7314 -11.5943 -11.5366  -0.5023  -0.4917  -0.4573  -0.3994
    -0.3806  -0.2807  -0.2733  -0.2461  -0.0966  -0.0422   0.0220   0.0260
     0.1587   0.1605   0.2213   0.2297   0.3111   0.3298   0.3357   0.4130
     1.2187   1.3156   1.6375   2.6768   2.8381   3.5724   3.6861   3.7702
     3.7774   3.8885   4.3562   4.4016

     occupation numbers 
     1.0000   1.0000   1.0000   1.0000   1.0000   1.0000   1.0000   1.0000
     1.0000   1.0000   1.0000   1.0000   1.0000   1.0000   1.0000   1.0000
     1.0000   1.0000   1.0000   1.0000   1.0000   1.0000   1.0000   1.0000
     1.0000   1.0000   1.0000   1.0000   1.0000   1.0000   1.0000   1.0000
     1.0000   1.0000   1.0000   1.0000

          k = 0.0000 0.0962 0.2294 (  4734 PWs)   bands (ev):

   -11.9644 -11.6935 -11.6855 -11.5728  -0.5539  -0.4990  -0.4567  -0.4478
    -0.4419  -0.4124  -0.3413  -0.2551  -0.2118  -0.1360  -0.0937  -0.0675
     0.2055   0.2084   0.2391   0.2891   0.2920   0.2987   0.3024   0.3823
     1.2248   1.4681   1.9273   3.0494   3.0545   3.2859   3.5847   3.8286
     3.9064   4.0191   4.2409   4.2599

     occupation numbers 
     1.0000   1.0000   1.0000   1.0000   1.0000   1.0000   1.0000   1.0000
     1.0000   1.0000   1.0000   1.0000   1.0000   1.0000   1.0000   1.0000
     1.0000   1.0000   1.0000   1.0000   1.0000   1.0000   1.0000   1.0000
     1.0000   1.0000   1.0000   1.0000   1.0000   1.0000   1.0000   1.0000
     1.0000   1.0000   1.0000   1.0000

          k = 0.0000 0.0962-0.3441 (  4718 PWs)   bands (ev):

   -11.8291 -11.8290 -11.6268 -11.6267  -0.5572  -0.5571  -0.4887  -0.4887
    -0.4420  -0.4420  -0.3584  -0.3584  -0.1572  -0.1572  -0.1261  -0.1261
     0.2551   0.2551   0.2617   0.2617   0.2662   0.2662   0.3416   0.3416
     1.3189   1.3189   2.5083   2.5084   3.3233   3.3233   3.8153   3.8153
     4.0481   4.0481   4.0770   4.0771

     occupation numbers 
     1.0000   1.0000   1.0000   1.0000   1.0000   1.0000   1.0000   1.0000
     1.0000   1.0000   1.0000   1.0000   1.0000   1.0000   1.0000   1.0000
     1.0000   1.0000   1.0000   1.0000   1.0000   1.0000   1.0000   1.0000
     1.0000   1.0000   1.0000   1.0000   1.0000   1.0000   1.0000   1.0000
     1.0000   1.0000   1.0000   1.0000

          k = 0.0000 0.1925 0.0000 (  4726 PWs)   bands (ev):

   -12.0351 -11.8382 -11.5424 -11.5174  -0.5124  -0.5051  -0.4056  -0.3660
    -0.3043  -0.2900  -0.2888  -0.1988  -0.1069  -0.0878   0.0818   0.1136
     0.1330   0.1400   0.1508   0.1768   0.3236   0.3391   0.4676   0.4730
     1.1039   1.4819   1.9408   2.4390   2.9681   3.0435   3.3564   3.5240
     3.9623   3.9695   4.2865   4.3401

     occupation numbers 
     1.0000   1.0000   1.0000   1.0000   1.0000   1.0000   1.0000   1.0000
     1.0000   1.0000   1.0000   1.0000   1.0000   1.0000   1.0000   1.0000
     1.0000   1.0000   1.0000   1.0000   1.0000   1.0000   1.0000   1.0000
     1.0000   1.0000   1.0000   1.0000   1.0000   1.0000   1.0000   1.0000
     1.0000   1.0000   1.0000   1.0000

          k = 0.0000 0.1925 0.1147 (  4729 PWs)   bands (ev):

   -12.0018 -11.8150 -11.5748 -11.5369  -0.5240  -0.5207  -0.4067  -0.3887
    -0.3312  -0.3191  -0.2820  -0.2393  -0.1475  -0.1247  -0.0159  -0.0067
     0.1514   0.1581   0.1719   0.1881   0.3166   0.3275   0.3841   0.4339
     1.4315   1.4617   1.9922   2.6210   3.0216   3.0407   3.2898   3.5786
     3.9003   4.0612   4.2390   4.3460

     occupation numbers 
     1.0000   1.0000   1.0000   1.0000   1.0000   1.0000   1.0000   1.0000
     1.0000   1.0000   1.0000   1.0000   1.0000   1.0000   1.0000   1.0000
     1.0000   1.0000   1.0000   1.0000   1.0000   1.0000   1.0000   1.0000
     1.0000   1.0000   1.0000   1.0000   1.0000   1.0000   1.0000   1.0000
     1.0000   1.0000   1.0000   1.0000

          k = 0.0000 0.1925 0.2294 (  4715 PWs)   bands (ev):

   -11.9109 -11.7526 -11.6641 -11.5917  -0.5639  -0.5379  -0.4579  -0.4569
    -0.4032  -0.3527  -0.3061  -0.2596  -0.2429  -0.2128  -0.1692  -0.1481
     0.2027   0.2139   0.2182   0.2518   0.2936   0.2975   0.3301   0.3832
     1.5226   1.8399   1.9264   2.7233   3.2125   3.2335   3.5145   3.7252
     3.7281   4.0902   4.1066   4.2066

     occupation numbers 
     1.0000   1.0000   1.0000   1.0000   1.0000   1.0000   1.0000   1.0000
     1.0000   1.0000   1.0000   1.0000   1.0000   1.0000   1.0000   1.0000
     1.0000   1.0000   1.0000   1.0000   1.0000   1.0000   1.0000   1.0000
     1.0000   1.0000   1.0000   1.0000   1.0000   1.0000   1.0000   1.0000
     1.0000   1.0000   1.0000   1.0000

          k = 0.0000 0.1925-0.3441 (  4704 PWs)   bands (ev):

   -11.7871 -11.7871 -11.6703 -11.6703  -0.5606  -0.5606  -0.5289  -0.5289
    -0.3851  -0.3851  -0.3226  -0.3226  -0.2200  -0.2200  -0.2135  -0.2135
     0.2536   0.2536   0.2581   0.2581   0.2778   0.2778   0.3245   0.3245
     1.6591   1.6591   2.3508   2.3508   3.4857   3.4858   3.7903   3.7903
     3.8875   3.8875   3.9194   3.9195

     occupation numbers 
     1.0000   1.0000   1.0000   1.0000   1.0000   1.0000   1.0000   1.0000
     1.0000   1.0000   1.0000   1.0000   1.0000   1.0000   1.0000   1.0000
     1.0000   1.0000   1.0000   1.0000   1.0000   1.0000   1.0000   1.0000
     1.0000   1.0000   1.0000   1.0000   1.0000   1.0000   1.0000   1.0000
     1.0000   1.0000   1.0000   1.0000

          k = 0.0000-0.2887 0.0000 (  4774 PWs)   bands (ev):

   -11.9419 -11.9419 -11.5254 -11.5254  -0.5232  -0.5232  -0.3427  -0.3427
    -0.3365  -0.3365  -0.2114  -0.2114  -0.1455  -0.1455   0.0910   0.0910
     0.1163   0.1163   0.1486   0.1486   0.3318   0.3318   0.4789   0.4789
     1.3604   1.3604   2.4105   2.4106   2.8421   2.8421   3.2472   3.2472
     4.1278   4.1278   4.1793   4.1793

     occupation numbers 
     1.0000   1.0000   1.0000   1.0000   1.0000   1.0000   1.0000   1.0000
     1.0000   1.0000   1.0000   1.0000   1.0000   1.0000   1.0000   1.0000
     1.0000   1.0000   1.0000   1.0000   1.0000   1.0000   1.0000   1.0000
     1.0000   1.0000   1.0000   1.0000   1.0000   1.0000   1.0000   1.0000
     1.0000   1.0000   1.0000   1.0000

          k = 0.0000-0.2887 0.1147 (  4720 PWs)   bands (ev):

   -11.9130 -11.9130 -11.5520 -11.5520  -0.5356  -0.5356  -0.3672  -0.3672
    -0.3406  -0.3406  -0.2273  -0.2273  -0.1948  -0.1948  -0.0299  -0.0299
     0.1503   0.1503   0.1649   0.1649   0.3227   0.3227   0.4203   0.4203
     1.5447   1.5447   2.4522   2.4522   2.8565   2.8565   3.3106   3.3106
     4.0727   4.0727   4.2269   4.2269

     occupation numbers 
     1.0000   1.0000   1.0000   1.0000   1.0000   1.0000   1.0000   1.0000
     1.0000   1.0000   1.0000   1.0000   1.0000   1.0000   1.0000   1.0000
     1.0000   1.0000   1.0000   1.0000   1.0000   1.0000   1.0000   1.0000
     1.0000   1.0000   1.0000   1.0000   1.0000   1.0000   1.0000   1.0000
     1.0000   1.0000   1.0000   1.0000

          k = 0.0000-0.2887 0.2294 (  4718 PWs)   bands (ev):

   -11.8346 -11.8346 -11.6259 -11.6258  -0.5626  -0.5626  -0.4635  -0.4635
    -0.3302  -0.3302  -0.2655  -0.2655  -0.2651  -0.2651  -0.2127  -0.2127
     0.2051   0.2051   0.2273   0.2273   0.2955   0.2955   0.3614   0.3614
     1.8101   1.8101   2.2843   2.2843   3.2619   3.2619   3.4800   3.4800
     3.9195   3.9195   4.1535   4.1535

     occupation numbers 
     1.0000   1.0000   1.0000   1.0000   1.0000   1.0000   1.0000   1.0000
     1.0000   1.0000   1.0000   1.0000   1.0000   1.0000   1.0000   1.0000
     1.0000   1.0000   1.0000   1.0000   1.0000   1.0000   1.0000   1.0000
     1.0000   1.0000   1.0000   1.0000   1.0000   1.0000   1.0000   1.0000
     1.0000   1.0000   1.0000   1.0000

          k = 0.0000-0.2887-0.3441 (  4708 PWs)   bands (ev):

   -11.7292 -11.7291 -11.7291 -11.7291  -0.5545  -0.5545  -0.5545  -0.5545
    -0.3043  -0.3043  -0.3043  -0.3042  -0.2792  -0.2792  -0.2792  -0.2792
     0.2536   0.2536   0.2536   0.2536   0.3009   0.3009   0.3009   0.3009
     2.0461   2.0461   2.0461   2.0461   3.7037   3.7037   3.7038   3.7038
     3.7960   3.7960   3.7961   3.7961

     occupation numbers 
     1.0000   1.0000   1.0000   1.0000   1.0000   1.0000   1.0000   1.0000
     1.0000   1.0000   1.0000   1.0000   1.0000   1.0000   1.0000   1.0000
     1.0000   1.0000   1.0000   1.0000   1.0000   1.0000   1.0000   1.0000
     1.0000   1.0000   1.0000   1.0000   1.0000   1.0000   1.0000   1.0000
     1.0000   1.0000   1.0000   1.0000

          k = 0.1667 0.0962 0.0000 (  4707 PWs)   bands (ev):

   -12.0351 -11.7131 -11.5424 -11.5304  -0.5123  -0.4058  -0.4034  -0.3660
    -0.3044  -0.2863  -0.1987  -0.1516  -0.0409   0.0504   0.1090   0.1136
     0.1400   0.1508   0.1578   0.2205   0.3236   0.3492   0.4460   0.4730
     1.1039   1.3137   1.6753   2.2348   2.6041   3.0438   3.3566   3.5147
     3.5237   3.6585   4.2862   4.3401

     occupation numbers 
     1.0000   1.0000   1.0000   1.0000   1.0000   1.0000   1.0000   1.0000
     1.0000   1.0000   1.0000   1.0000   1.0000   1.0000   1.0000   1.0000
     1.0000   1.0000   1.0000   1.0000   1.0000   1.0000   1.0000   1.0000
     1.0000   1.0000   1.0000   1.0000   1.0000   1.0000   1.0000   1.0000
     1.0000   1.0000   1.0000   1.0000

          k = 0.1667 0.0962 0.1147 (  4724 PWs)   bands (ev):

   -12.0018 -11.6984 -11.5748 -11.5399  -0.5206  -0.4250  -0.4068  -0.3887
    -0.3192  -0.2855  -0.2393  -0.1832  -0.1220  -0.0159   0.0219   0.0289
     0.1514   0.1581   0.2020   0.2387   0.3165   0.3425   0.3841   0.4372
     1.2701   1.4315   1.6107   2.3045   2.8963   3.0218   3.2901   3.4320
     3.5783   3.8160   4.2387   4.3461

     occupation numbers 
     1.0000   1.0000   1.0000   1.0000   1.0000   1.0000   1.0000   1.0000
     1.0000   1.0000   1.0000   1.0000   1.0000   1.0000   1.0000   1.0000
     1.0000   1.0000   1.0000   1.0000   1.0000   1.0000   1.0000   1.0000
     1.0000   1.0000   1.0000   1.0000   1.0000   1.0000   1.0000   1.0000
     1.0000   1.0000   1.0000   1.0000

          k = 0.1667 0.0962 0.2294 (  4721 PWs)   bands (ev):

   -11.9109 -11.6641 -11.6598 -11.5681  -0.5378  -0.4778  -0.4569  -0.4033
    -0.3846  -0.3528  -0.3061  -0.2428  -0.2171  -0.1502  -0.0902  -0.0493
     0.2027   0.2139   0.2402   0.2529   0.2936   0.3301   0.3521   0.4151
     1.2693   1.4674   1.9264   2.5370   2.7234   3.1816   3.4846   3.5147
     3.7249   4.0253   4.1063   4.2068

     occupation numbers 
     1.0000   1.0000   1.0000   1.0000   1.0000   1.0000   1.0000   1.0000
     1.0000   1.0000   1.0000   1.0000   1.0000   1.0000   1.0000   1.0000
     1.0000   1.0000   1.0000   1.0000   1.0000   1.0000   1.0000   1.0000
     1.0000   1.0000   1.0000   1.0000   1.0000   1.0000   1.0000   1.0000
     1.0000   1.0000   1.0000   1.0000

          k = 0.1667 0.0962-0.3441 (  4720 PWs)   bands (ev):

   -11.7871 -11.7871 -11.6114 -11.6114  -0.5288  -0.5288  -0.4878  -0.4878
    -0.3853  -0.3852  -0.3226  -0.3226  -0.1644  -0.1644  -0.1240  -0.1240
     0.2519   0.2519   0.2536   0.2536   0.2778   0.2778   0.3844   0.3844
     1.3436   1.3436   2.3509   2.3509   2.8637   2.8637   3.8877   3.8877
     3.9191   3.9191   3.9289   3.9289

     occupation numbers 
     1.0000   1.0000   1.0000   1.0000   1.0000   1.0000   1.0000   1.0000
     1.0000   1.0000   1.0000   1.0000   1.0000   1.0000   1.0000   1.0000
     1.0000   1.0000   1.0000   1.0000   1.0000   1.0000   1.0000   1.0000
     1.0000   1.0000   1.0000   1.0000   1.0000   1.0000   1.0000   1.0000
     1.0000   1.0000   1.0000   1.0000

          k = 0.1667 0.1925 0.0000 (  4733 PWs)   bands (ev):

   -11.9770 -11.7973 -11.5308 -11.5177  -0.5146  -0.4322  -0.3750  -0.3405
    -0.3329  -0.2542  -0.2203  -0.1627  -0.1077  -0.0217   0.0988   0.1031
     0.1056   0.1187   0.1423   0.1909   0.3288   0.3427   0.4742   0.4796
     1.2715   1.5003   1.9305   2.3962   2.6283   2.7122   2.9236   3.3669
     3.6931   3.8844   4.1478   4.2462

     occupation numbers 
     1.0000   1.0000   1.0000   1.0000   1.0000   1.0000   1.0000   1.0000
     1.0000   1.0000   1.0000   1.0000   1.0000   1.0000   1.0000   1.0000
     1.0000   1.0000   1.0000   1.0000   1.0000   1.0000   1.0000   1.0000
     1.0000   1.0000   1.0000   1.0000   1.0000   1.0000   1.0000   1.0000
     1.0000   1.0000   1.0000   1.0000

          k = 0.1667 0.1925 0.1147 (  4721 PWs)   bands (ev):

   -11.9464 -11.7766 -11.5597 -11.5342  -0.5250  -0.4515  -0.3863  -0.3553
    -0.3436  -0.2739  -0.2318  -0.2052  -0.1683  -0.0532  -0.0296  -0.0201
     0.1482   0.1611   0.1667   0.2109   0.3207   0.3324   0.4104   0.4466
     1.4731   1.5174   1.8954   2.6216   2.6868   2.7443   2.9802   3.3911
     3.6159   4.0053   4.0931   4.2853

     occupation numbers 
     1.0000   1.0000   1.0000   1.0000   1.0000   1.0000   1.0000   1.0000
     1.0000   1.0000   1.0000   1.0000   1.0000   1.0000   1.0000   1.0000
     1.0000   1.0000   1.0000   1.0000   1.0000   1.0000   1.0000   1.0000
     1.0000   1.0000   1.0000   1.0000   1.0000   1.0000   1.0000   1.0000
     1.0000   1.0000   1.0000   1.0000

          k = 0.1667 0.1925 0.2294 (  4717 PWs)   bands (ev):

   -11.8631 -11.7213 -11.6395 -11.5810  -0.5483  -0.4993  -0.4602  -0.4228
    -0.3597  -0.3189  -0.2660  -0.2528  -0.2280  -0.2150  -0.1749  -0.1106
     0.2036   0.2210   0.2333   0.2463   0.2954   0.3162   0.3514   0.4000
     1.5080   1.7588   1.8800   2.4556   2.8188   3.3048   3.3547   3.4440
     3.5274   3.9430   4.1090   4.1937

     occupation numbers 
     1.0000   1.0000   1.0000   1.0000   1.0000   1.0000   1.0000   1.0000
     1.0000   1.0000   1.0000   1.0000   1.0000   1.0000   1.0000   1.0000
     1.0000   1.0000   1.0000   1.0000   1.0000   1.0000   1.0000   1.0000
     1.0000   1.0000   1.0000   1.0000   1.0000   1.0000   1.0000   1.0000
     1.0000   1.0000   1.0000   1.0000

          k = 0.1667 0.1925-0.3441 (  4726 PWs)   bands (ev):

   -11.7505 -11.7504 -11.6490 -11.6490  -0.5415  -0.5415  -0.5095  -0.5095
    -0.3474  -0.3474  -0.2895  -0.2895  -0.2467  -0.2467  -0.1719  -0.1719
     0.2524   0.2524   0.2580   0.2580   0.2936   0.2936   0.3470   0.3470
     1.6132   1.6132   2.1795   2.1795   3.1018   3.1018   3.7222   3.7222
     3.8553   3.8553   3.8922   3.8922

     occupation numbers 
     1.0000   1.0000   1.0000   1.0000   1.0000   1.0000   1.0000   1.0000
     1.0000   1.0000   1.0000   1.0000   1.0000   1.0000   1.0000   1.0000
     1.0000   1.0000   1.0000   1.0000   1.0000   1.0000   1.0000   1.0000
     1.0000   1.0000   1.0000   1.0000   1.0000   1.0000   1.0000   1.0000
     1.0000   1.0000   1.0000   1.0000

          k = 0.1667 0.2887 0.0000 (  4726 PWs)   bands (ev):

   -11.8923 -11.8923 -11.5196 -11.5196  -0.4861  -0.4861  -0.3556  -0.3556
    -0.2841  -0.2841  -0.1896  -0.1896  -0.0996  -0.0996   0.0994   0.0994
     0.1009   0.1009   0.1545   0.1545   0.3357   0.3357   0.4793   0.4793
     1.4652   1.4652   2.3605   2.3605   2.4821   2.4821   3.0377   3.0377
     3.9230   3.9230   4.0933   4.0933

     occupation numbers 
     1.0000   1.0000   1.0000   1.0000   1.0000   1.0000   1.0000   1.0000
     1.0000   1.0000   1.0000   1.0000   1.0000   1.0000   1.0000   1.0000
     1.0000   1.0000   1.0000   1.0000   1.0000   1.0000   1.0000   1.0000
     1.0000   1.0000   1.0000   1.0000   1.0000   1.0000   1.0000   1.0000
     1.0000   1.0000   1.0000   1.0000

          k = 0.1667 0.2887 0.1147 (  4724 PWs)   bands (ev):

   -11.8660 -11.8660 -11.5430 -11.5429  -0.4998  -0.4998  -0.3718  -0.3718
    -0.2930  -0.2930  -0.2276  -0.2276  -0.1374  -0.1374  -0.0331  -0.0331
     0.1512   0.1512   0.1769   0.1769   0.3260   0.3260   0.4335   0.4335
     1.5729   1.5729   2.2894   2.2894   2.7247   2.7247   3.0526   3.0526
     3.8579   3.8579   4.1724   4.1724

     occupation numbers 
     1.0000   1.0000   1.0000   1.0000   1.0000   1.0000   1.0000   1.0000
     1.0000   1.0000   1.0000   1.0000   1.0000   1.0000   1.0000   1.0000
     1.0000   1.0000   1.0000   1.0000   1.0000   1.0000   1.0000   1.0000
     1.0000   1.0000   1.0000   1.0000   1.0000   1.0000   1.0000   1.0000
     1.0000   1.0000   1.0000   1.0000

          k = 0.1667 0.2887 0.2294 (  4724 PWs)   bands (ev):

   -11.7949 -11.7949 -11.6081 -11.6080  -0.5332  -0.5332  -0.4499  -0.4499
    -0.3002  -0.3002  -0.2906  -0.2906  -0.2042  -0.2042  -0.1910  -0.1910
     0.2129   0.2129   0.2332   0.2332   0.3007   0.3007   0.3772   0.3772
     1.7419   1.7419   2.1109   2.1109   3.1881   3.1881   3.2842   3.2842
     3.6824   3.6824   4.1682   4.1682

     occupation numbers 
     1.0000   1.0000   1.0000   1.0000   1.0000   1.0000   1.0000   1.0000
     1.0000   1.0000   1.0000   1.0000   1.0000   1.0000   1.0000   1.0000
     1.0000   1.0000   1.0000   1.0000   1.0000   1.0000   1.0000   1.0000
     1.0000   1.0000   1.0000   1.0000   1.0000   1.0000   1.0000   1.0000
     1.0000   1.0000   1.0000   1.0000

          k = 0.1667 0.2887-0.3441 (  4748 PWs)   bands (ev):

   -11.7000 -11.7000 -11.7000 -11.7000  -0.5340  -0.5340  -0.5340  -0.5340
    -0.3086  -0.3086  -0.3086  -0.3086  -0.2312  -0.2312  -0.2312  -0.2312
     0.2537   0.2538   0.2538   0.2538   0.3172   0.3172   0.3172   0.3172
     1.9174   1.9174   1.9174   1.9174   3.4218   3.4219   3.4219   3.4219
     3.8573   3.8573   3.8573   3.8573

     occupation numbers 
     1.0000   1.0000   1.0000   1.0000   1.0000   1.0000   1.0000   1.0000
     1.0000   1.0000   1.0000   1.0000   1.0000   1.0000   1.0000   1.0000
     1.0000   1.0000   1.0000   1.0000   1.0000   1.0000   1.0000   1.0000
     1.0000   1.0000   1.0000   1.0000   1.0000   1.0000   1.0000   1.0000
     1.0000   1.0000   1.0000   1.0000

          k = 0.1667 0.0000 0.0000 (  4723 PWs)   bands (ev):

   -12.0557 -11.6736 -11.5471 -11.5435  -0.5037  -0.4237  -0.3986  -0.3700
    -0.3267  -0.2667  -0.2104  -0.1129  -0.0156   0.0902   0.1152   0.1250
     0.1355   0.1676   0.2158   0.2375   0.3212   0.3658   0.3715   0.4672
     1.0404   1.2186   1.5894   2.0870   2.7356   3.2846   3.3633   3.4278
     3.5497   3.6614   4.3070   4.3736

     occupation numbers 
     1.0000   1.0000   1.0000   1.0000   1.0000   1.0000   1.0000   1.0000
     1.0000   1.0000   1.0000   1.0000   1.0000   1.0000   1.0000   1.0000
     1.0000   1.0000   1.0000   1.0000   1.0000   1.0000   1.0000   1.0000
     1.0000   1.0000   1.0000   1.0000   1.0000   1.0000   1.0000   1.0000
     1.0000   1.0000   1.0000   1.0000

          k = 0.1667 0.0000 0.1147 (  4721 PWs)   bands (ev):

   -12.0215 -11.6622 -11.5808 -11.5494  -0.5107  -0.4264  -0.4199  -0.3891
    -0.3420  -0.2567  -0.2491  -0.1754  -0.0821  -0.0068   0.0554   0.0578
     0.1525   0.1587   0.2298   0.2494   0.3150   0.3717   0.3759   0.3830
     1.1825   1.3961   1.4936   2.1761   3.0135   3.2057   3.3544   3.3704
     3.6549   3.7137   4.2611   4.3734

     occupation numbers 
     1.0000   1.0000   1.0000   1.0000   1.0000   1.0000   1.0000   1.0000
     1.0000   1.0000   1.0000   1.0000   1.0000   1.0000   1.0000   1.0000
     1.0000   1.0000   1.0000   1.0000   1.0000   1.0000   1.0000   1.0000
     1.0000   1.0000   1.0000   1.0000   1.0000   1.0000   1.0000   1.0000
     1.0000   1.0000   1.0000   1.0000

          k = 0.1667 0.0000 0.2294 (  4720 PWs)   bands (ev):

   -11.9280 -11.6733 -11.6330 -11.5677  -0.5253  -0.4724  -0.4546  -0.4187
    -0.3766  -0.3671  -0.3142  -0.2472  -0.2141  -0.1018  -0.0345  -0.0292
     0.2033   0.2117   0.2385   0.2442   0.2933   0.3218   0.3982   0.4003
     1.1713   1.3377   1.9334   2.4327   2.8301   3.1128   3.5483   3.6122
     3.7701   3.9750   4.1334   4.2315

     occupation numbers 
     1.0000   1.0000   1.0000   1.0000   1.0000   1.0000   1.0000   1.0000
     1.0000   1.0000   1.0000   1.0000   1.0000   1.0000   1.0000   1.0000
     1.0000   1.0000   1.0000   1.0000   1.0000   1.0000   1.0000   1.0000
     1.0000   1.0000   1.0000   1.0000   1.0000   1.0000   1.0000   1.0000
     1.0000   1.0000   1.0000   1.0000

          k = 0.1667 0.0000-0.3441 (  4732 PWs)   bands (ev):

   -11.8005 -11.8004 -11.5976 -11.5975  -0.5172  -0.5171  -0.4802  -0.4801
    -0.4064  -0.4064  -0.3315  -0.3315  -0.1364  -0.1364  -0.0848  -0.0848
     0.2405   0.2405   0.2535   0.2535   0.2729   0.2729   0.4068   0.4068
     1.2270   1.2270   2.4091   2.4091   2.7765   2.7765   3.9283   3.9284
     3.9439   3.9440   3.9653   3.9653

     occupation numbers 
     1.0000   1.0000   1.0000   1.0000   1.0000   1.0000   1.0000   1.0000
     1.0000   1.0000   1.0000   1.0000   1.0000   1.0000   1.0000   1.0000
     1.0000   1.0000   1.0000   1.0000   1.0000   1.0000   1.0000   1.0000
     1.0000   1.0000   1.0000   1.0000   1.0000   1.0000   1.0000   1.0000
     1.0000   1.0000   1.0000   1.0000

          k = 0.3333 0.1925 0.0000 (  4699 PWs)   bands (ev):

   -11.8382 -11.7131 -11.5304 -11.5174  -0.5051  -0.4034  -0.2899  -0.2889
    -0.2864  -0.1515  -0.1070  -0.0877  -0.0409   0.0504   0.0818   0.1090
     0.1330   0.1578   0.1768   0.2205   0.3391   0.3492   0.4460   0.4677
     1.3139   1.4820   1.6753   1.9410   2.2347   2.4391   2.6041   2.9678
     3.5145   3.6585   3.9620   3.9695

     occupation numbers 
     1.0000   1.0000   1.0000   1.0000   1.0000   1.0000   1.0000   1.0000
     1.0000   1.0000   1.0000   1.0000   1.0000   1.0000   1.0000   1.0000
     1.0000   1.0000   1.0000   1.0000   1.0000   1.0000   1.0000   1.0000
     1.0000   1.0000   1.0000   1.0000   1.0000   1.0000   1.0000   1.0000
     1.0000   1.0000   1.0000   1.0000

          k = 0.3333 0.1925 0.1147 (  4713 PWs)   bands (ev):

   -11.8150 -11.6984 -11.5399 -11.5369  -0.5239  -0.4250  -0.3312  -0.2856
    -0.2821  -0.1832  -0.1475  -0.1248  -0.1220  -0.0067   0.0219   0.0290
     0.1720   0.1881   0.2020   0.2387   0.3275   0.3425   0.4339   0.4372
     1.2702   1.4618   1.6107   1.9923   2.3044   2.6211   2.8962   3.0405
     3.4318   3.8160   3.8999   4.0612

     occupation numbers 
     1.0000   1.0000   1.0000   1.0000   1.0000   1.0000   1.0000   1.0000
     1.0000   1.0000   1.0000   1.0000   1.0000   1.0000   1.0000   1.0000
     1.0000   1.0000   1.0000   1.0000   1.0000   1.0000   1.0000   1.0000
     1.0000   1.0000   1.0000   1.0000   1.0000   1.0000   1.0000   1.0000
     1.0000   1.0000   1.0000   1.0000

          k = 0.3333 0.1925 0.2294 (  4718 PWs)   bands (ev):

   -11.7526 -11.6598 -11.5917 -11.5681  -0.5638  -0.4778  -0.4579  -0.3846
    -0.2598  -0.2172  -0.2128  -0.1693  -0.1502  -0.1481  -0.0902  -0.0493
     0.2183   0.2402   0.2518   0.2530   0.2975   0.3521   0.3833   0.4151
     1.2694   1.4674   1.5228   1.8401   2.5369   3.1814   3.2126   3.2332
     3.4846   3.7278   4.0253   4.0903

     occupation numbers 
     1.0000   1.0000   1.0000   1.0000   1.0000   1.0000   1.0000   1.0000
     1.0000   1.0000   1.0000   1.0000   1.0000   1.0000   1.0000   1.0000
     1.0000   1.0000   1.0000   1.0000   1.0000   1.0000   1.0000   1.0000
     1.0000   1.0000   1.0000   1.0000   1.0000   1.0000   1.0000   1.0000
     1.0000   1.0000   1.0000   1.0000

          k = 0.3333 0.1925-0.3441 (  4716 PWs)   bands (ev):

   -11.6703 -11.6703 -11.6114 -11.6114  -0.5606  -0.5606  -0.4878  -0.4878
    -0.2201  -0.2201  -0.2134  -0.2134  -0.1645  -0.1645  -0.1239  -0.1239
     0.2519   0.2519   0.2581   0.2581   0.3245   0.3245   0.3844   0.3844
     1.3437   1.3437   1.6592   1.6592   2.8636   2.8636   3.4854   3.4855
     3.7904   3.7904   3.9289   3.9289

     occupation numbers 
     1.0000   1.0000   1.0000   1.0000   1.0000   1.0000   1.0000   1.0000
     1.0000   1.0000   1.0000   1.0000   1.0000   1.0000   1.0000   1.0000
     1.0000   1.0000   1.0000   1.0000   1.0000   1.0000   1.0000   1.0000
     1.0000   1.0000   1.0000   1.0000   1.0000   1.0000   1.0000   1.0000
     1.0000   1.0000   1.0000   1.0000

          k = 0.3333 0.2887 0.0000 (  4686 PWs)   bands (ev):

   -11.7798 -11.7798 -11.5196 -11.5196  -0.4694  -0.4694  -0.2831  -0.2831
    -0.2297  -0.2297  -0.0860  -0.0860  -0.0248  -0.0248   0.0844   0.0844
     0.1501   0.1501   0.2015   0.2015   0.3429   0.3429   0.4571   0.4571
     1.3959   1.3959   1.8230   1.8230   2.3734   2.3734   2.7357   2.7357
     3.7963   3.7963   3.8402   3.8402

     occupation numbers 
     1.0000   1.0000   1.0000   1.0000   1.0000   1.0000   1.0000   1.0000
     1.0000   1.0000   1.0000   1.0000   1.0000   1.0000   1.0000   1.0000
     1.0000   1.0000   1.0000   1.0000   1.0000   1.0000   1.0000   1.0000
     1.0000   1.0000   1.0000   1.0000   1.0000   1.0000   1.0000   1.0000
     1.0000   1.0000   1.0000   1.0000

          k = 0.3333 0.2887 0.1147 (  4708 PWs)   bands (ev):

   -11.7603 -11.7603 -11.5347 -11.5347  -0.4916  -0.4916  -0.2968  -0.2968
    -0.2549  -0.2549  -0.1399  -0.1399  -0.0537  -0.0537   0.0096   0.0096
     0.1865   0.1865   0.2166   0.2166   0.3310   0.3310   0.4342   0.4342
     1.3454   1.3454   1.7923   1.7923   2.6167   2.6167   2.8440   2.8440
     3.7257   3.7257   3.9615   3.9615

     occupation numbers 
     1.0000   1.0000   1.0000   1.0000   1.0000   1.0000   1.0000   1.0000
     1.0000   1.0000   1.0000   1.0000   1.0000   1.0000   1.0000   1.0000
     1.0000   1.0000   1.0000   1.0000   1.0000   1.0000   1.0000   1.0000
     1.0000   1.0000   1.0000   1.0000   1.0000   1.0000   1.0000   1.0000
     1.0000   1.0000   1.0000   1.0000

          k = 0.3333 0.2887 0.2294 (  4722 PWs)   bands (ev):

   -11.7083 -11.7083 -11.5778 -11.5777  -0.5391  -0.5391  -0.4353  -0.4353
    -0.2368  -0.2368  -0.1815  -0.1815  -0.1247  -0.1247  -0.1010  -0.1010
     0.2322   0.2322   0.2624   0.2624   0.3094   0.3094   0.3924   0.3924
     1.3677   1.3678   1.6332   1.6332   2.9566   2.9566   3.3190   3.3190
     3.5334   3.5335   4.0686   4.0686

     occupation numbers 
     1.0000   1.0000   1.0000   1.0000   1.0000   1.0000   1.0000   1.0000
     1.0000   1.0000   1.0000   1.0000   1.0000   1.0000   1.0000   1.0000
     1.0000   1.0000   1.0000   1.0000   1.0000   1.0000   1.0000   1.0000
     1.0000   1.0000   1.0000   1.0000   1.0000   1.0000   1.0000   1.0000
     1.0000   1.0000   1.0000   1.0000

          k = 0.3333 0.2887-0.3441 (  4716 PWs)   bands (ev):

   -11.6408 -11.6408 -11.6408 -11.6407  -0.5412  -0.5412  -0.5412  -0.5412
    -0.1961  -0.1961  -0.1961  -0.1961  -0.1602  -0.1602  -0.1602  -0.1602
     0.2612   0.2612   0.2612   0.2612   0.3425   0.3425   0.3425   0.3425
     1.4756   1.4756   1.4756   1.4756   3.2504   3.2504   3.2504   3.2504
     3.8505   3.8505   3.8505   3.8505

     occupation numbers 
     1.0000   1.0000   1.0000   1.0000   1.0000   1.0000   1.0000   1.0000
     1.0000   1.0000   1.0000   1.0000   1.0000   1.0000   1.0000   1.0000
     1.0000   1.0000   1.0000   1.0000   1.0000   1.0000   1.0000   1.0000
     1.0000   1.0000   1.0000   1.0000   1.0000   1.0000   1.0000   1.0000
     1.0000   1.0000   1.0000   1.0000

          k = 0.3333-0.0962 0.0000 (  4712 PWs)   bands (ev):

   -11.8781 -11.6483 -11.5543 -11.5187  -0.5006  -0.3483  -0.3293  -0.2919
    -0.2689  -0.1626  -0.1614  -0.0974   0.0679   0.0924   0.1090   0.1287
     0.1397   0.1622   0.2035   0.2245   0.3366   0.3592   0.4256   0.4762
     1.3214   1.4812   1.5362   1.7941   2.1502   2.5480   2.8510   3.0202
     3.2489   3.4220   3.9636   4.0596

     occupation numbers 
     1.0000   1.0000   1.0000   1.0000   1.0000   1.0000   1.0000   1.0000
     1.0000   1.0000   1.0000   1.0000   1.0000   1.0000   1.0000   1.0000
     1.0000   1.0000   1.0000   1.0000   1.0000   1.0000   1.0000   1.0000
     1.0000   1.0000   1.0000   1.0000   1.0000   1.0000   1.0000   1.0000
     1.0000   1.0000   1.0000   1.0000

          k = 0.3333-0.0962 0.1147 (  4710 PWs)   bands (ev):

   -11.8526 -11.6393 -11.5577 -11.5410  -0.5162  -0.3507  -0.3503  -0.3007
    -0.2831  -0.1979  -0.1967  -0.1375  -0.0246  -0.0017   0.0584   0.0778
     0.1553   0.1797   0.2197   0.2299   0.3264   0.3761   0.4337   0.4399
     1.2924   1.4828   1.5472   1.8476   2.1839   2.6878   3.0749   3.0979
     3.1797   3.6179   3.8984   4.1408

     occupation numbers 
     1.0000   1.0000   1.0000   1.0000   1.0000   1.0000   1.0000   1.0000
     1.0000   1.0000   1.0000   1.0000   1.0000   1.0000   1.0000   1.0000
     1.0000   1.0000   1.0000   1.0000   1.0000   1.0000   1.0000   1.0000
     1.0000   1.0000   1.0000   1.0000   1.0000   1.0000   1.0000   1.0000
     1.0000   1.0000   1.0000   1.0000

          k = 0.3333-0.0962 0.2294 (  4719 PWs)   bands (ev):

   -11.7837 -11.6164 -11.6035 -11.5692  -0.5510  -0.4526  -0.4018  -0.3457
    -0.2955  -0.2513  -0.2308  -0.1998  -0.1798  -0.0796  -0.0421  -0.0179
     0.2121   0.2133   0.2256   0.2384   0.2993   0.3786   0.4163   0.4510
     1.2618   1.3695   1.6750   2.0295   2.1143   2.8704   3.1768   3.3044
     3.6462   3.7236   3.9347   4.1409

     occupation numbers 
     1.0000   1.0000   1.0000   1.0000   1.0000   1.0000   1.0000   1.0000
     1.0000   1.0000   1.0000   1.0000   1.0000   1.0000   1.0000   1.0000
     1.0000   1.0000   1.0000   1.0000   1.0000   1.0000   1.0000   1.0000
     1.0000   1.0000   1.0000   1.0000   1.0000   1.0000   1.0000   1.0000
     1.0000   1.0000   1.0000   1.0000

          k = 0.3333-0.0962-0.3441 (  4718 PWs)   bands (ev):

   -11.6920 -11.6920 -11.5900 -11.5900  -0.5478  -0.5478  -0.4283  -0.4283
    -0.2785  -0.2785  -0.2277  -0.2277  -0.1515  -0.1515  -0.0764  -0.0764
     0.2167   0.2167   0.2551   0.2551   0.3183   0.3184   0.4431   0.4431
     1.2891   1.2891   1.8376   1.8376   2.4959   2.4959   3.4696   3.4696
     3.8298   3.8298   3.9811   3.9811

     occupation numbers 
     1.0000   1.0000   1.0000   1.0000   1.0000   1.0000   1.0000   1.0000
     1.0000   1.0000   1.0000   1.0000   1.0000   1.0000   1.0000   1.0000
     1.0000   1.0000   1.0000   1.0000   1.0000   1.0000   1.0000   1.0000
     1.0000   1.0000   1.0000   1.0000   1.0000   1.0000   1.0000   1.0000
     1.0000   1.0000   1.0000   1.0000

          k = 0.3333-0.0000 0.0000 (  4727 PWs)   bands (ev):

   -11.8923 -11.5939 -11.5938 -11.5196  -0.4860  -0.3557  -0.3370  -0.2841
    -0.2122  -0.2121  -0.1896  -0.0996   0.0978   0.0994   0.1009   0.1519
     0.1520   0.1545   0.2206   0.2822   0.3357   0.3934   0.3934   0.4793
     1.4075   1.4652   1.4957   1.4957   2.3607   2.4822   3.0374   3.1385
     3.1439   3.1439   3.9228   4.0933

     occupation numbers 
     1.0000   1.0000   1.0000   1.0000   1.0000   1.0000   1.0000   1.0000
     1.0000   1.0000   1.0000   1.0000   1.0000   1.0000   1.0000   1.0000
     1.0000   1.0000   1.0000   1.0000   1.0000   1.0000   1.0000   1.0000
     1.0000   1.0000   1.0000   1.0000   1.0000   1.0000   1.0000   1.0000
     1.0000   1.0000   1.0000   1.0000

          k = 0.3333-0.0000 0.1147 (  4705 PWs)   bands (ev):

   -11.8660 -11.5909 -11.5909 -11.5429  -0.4997  -0.3719  -0.3170  -0.2930
    -0.2490  -0.2490  -0.2276  -0.1374  -0.0331   0.0794   0.0794   0.0799
     0.1512   0.1769   0.2162   0.2248   0.3260   0.4254   0.4254   0.4335
     1.4170   1.4170   1.5574   1.5730   2.2895   2.7249   3.0309   3.0523
     3.3822   3.3822   3.8576   4.1724

     occupation numbers 
     1.0000   1.0000   1.0000   1.0000   1.0000   1.0000   1.0000   1.0000
     1.0000   1.0000   1.0000   1.0000   1.0000   1.0000   1.0000   1.0000
     1.0000   1.0000   1.0000   1.0000   1.0000   1.0000   1.0000   1.0000
     1.0000   1.0000   1.0000   1.0000   1.0000   1.0000   1.0000   1.0000
     1.0000   1.0000   1.0000   1.0000

          k = 0.3333-0.0000 0.2294 (  4708 PWs)   bands (ev):

   -11.7949 -11.6081 -11.5851 -11.5851  -0.5332  -0.4498  -0.3458  -0.3457
    -0.3003  -0.2907  -0.2567  -0.2042  -0.1911  -0.0206  -0.0109  -0.0109
     0.1813   0.2036   0.2130   0.2332   0.3008   0.3773   0.4605   0.4605
     1.3184   1.3184   1.7420   1.9101   2.1110   2.7383   3.1879   3.2844
     3.6822   3.8035   3.8035   4.1683

     occupation numbers 
     1.0000   1.0000   1.0000   1.0000   1.0000   1.0000   1.0000   1.0000
     1.0000   1.0000   1.0000   1.0000   1.0000   1.0000   1.0000   1.0000
     1.0000   1.0000   1.0000   1.0000   1.0000   1.0000   1.0000   1.0000
     1.0000   1.0000   1.0000   1.0000   1.0000   1.0000   1.0000   1.0000
     1.0000   1.0000   1.0000   1.0000

          k = 0.3333-0.0000-0.3441 (  4720 PWs)   bands (ev):

   -11.7000 -11.7000 -11.5822 -11.5821  -0.5340  -0.5340  -0.4022  -0.4022
    -0.3086  -0.3086  -0.2313  -0.2313  -0.1543  -0.1543  -0.0394  -0.0394
     0.1880   0.1880   0.2538   0.2538   0.3172   0.3173   0.4721   0.4721
     1.2861   1.2861   1.9175   1.9175   2.3353   2.3354   3.4216   3.4217
     3.8574   3.8574   3.9991   3.9991

     occupation numbers 
     1.0000   1.0000   1.0000   1.0000   1.0000   1.0000   1.0000   1.0000
     1.0000   1.0000   1.0000   1.0000   1.0000   1.0000   1.0000   1.0000
     1.0000   1.0000   1.0000   1.0000   1.0000   1.0000   1.0000   1.0000
     1.0000   1.0000   1.0000   1.0000   1.0000   1.0000   1.0000   1.0000
     1.0000   1.0000   1.0000   1.0000

          k =-0.5000-0.2887 0.0000 (  4700 PWs)   bands (ev):

   -11.7093 -11.7093 -11.5330 -11.5330  -0.4661  -0.4661  -0.2482  -0.2482
    -0.1660  -0.1660  -0.0169  -0.0169   0.0088   0.0088   0.0709   0.0709
     0.2348   0.2348   0.2430   0.2430   0.3453   0.3453   0.3698   0.3698
     1.1812   1.1812   1.5673   1.5673   2.4519   2.4519   2.6782   2.6782
     3.6534   3.6534   3.7899   3.7899

     occupation numbers 
     1.0000   1.0000   1.0000   1.0000   1.0000   1.0000   1.0000   1.0000
     1.0000   1.0000   1.0000   1.0000   1.0000   1.0000   1.0000   1.0000
     1.0000   1.0000   1.0000   1.0000   1.0000   1.0000   1.0000   1.0000
     1.0000   1.0000   1.0000   1.0000   1.0000   1.0000   1.0000   1.0000
     1.0000   1.0000   1.0000   1.0000

          k =-0.5000-0.2887 0.1147 (  4692 PWs)   bands (ev):

   -11.6950 -11.6950 -11.5421 -11.5421  -0.4932  -0.4932  -0.2550  -0.2550
    -0.2348  -0.2348  -0.0559  -0.0559  -0.0110  -0.0110   0.0371   0.0371
     0.2390   0.2390   0.2763   0.2763   0.3299   0.3299   0.3693   0.3693
     1.1293   1.1293   1.4686   1.4686   2.7485   2.7485   2.7618   2.7618
     3.7214   3.7214   3.8045   3.8045

     occupation numbers 
     1.0000   1.0000   1.0000   1.0000   1.0000   1.0000   1.0000   1.0000
     1.0000   1.0000   1.0000   1.0000   1.0000   1.0000   1.0000   1.0000
     1.0000   1.0000   1.0000   1.0000   1.0000   1.0000   1.0000   1.0000
     1.0000   1.0000   1.0000   1.0000   1.0000   1.0000   1.0000   1.0000
     1.0000   1.0000   1.0000   1.0000

          k =-0.5000-0.2887 0.2294 (  4740 PWs)   bands (ev):

   -11.6576 -11.6575 -11.5691 -11.5691  -0.5490  -0.5490  -0.4429  -0.4429
    -0.1956  -0.1956  -0.0837  -0.0837  -0.0652  -0.0652  -0.0304  -0.0304
     0.2509   0.2509   0.2986   0.2986   0.3192   0.3192   0.3636   0.3636
     1.1112   1.1112   1.3004   1.3004   2.9805   2.9805   3.3350   3.3350
[...]
     0.2055   0.2084   0.2391   0.2891   0.2920   0.2987   0.3024   0.3823
     1.2248   1.4681   1.9273   3.0494   3.0545   3.2859   3.5847   3.8286
     3.9064   4.0191   4.2409   4.2599

     occupation numbers 
     1.0000   1.0000   1.0000   1.0000   1.0000   1.0000   1.0000   1.0000
     1.0000   1.0000   1.0000   1.0000   1.0000   1.0000   1.0000   1.0000
     1.0000   1.0000   1.0000   1.0000   1.0000   1.0000   1.0000   1.0000
     1.0000   1.0000   1.0000   1.0000   1.0000   1.0000   1.0000   1.0000
     1.0000   1.0000   1.0000   1.0000

          k = 0.0000 0.1925-0.1147 (  4729 PWs)   bands (ev):

   -12.0018 -11.8150 -11.5748 -11.5369  -0.5240  -0.5207  -0.4067  -0.3887
    -0.3312  -0.3191  -0.2820  -0.2393  -0.1475  -0.1247  -0.0159  -0.0067
     0.1514   0.1581   0.1720   0.1881   0.3166   0.3275   0.3841   0.4339
     1.4315   1.4617   1.9922   2.6210   3.0216   3.0407   3.2898   3.5786
     3.9003   4.0612   4.2390   4.3460

     occupation numbers 
     1.0000   1.0000   1.0000   1.0000   1.0000   1.0000   1.0000   1.0000
     1.0000   1.0000   1.0000   1.0000   1.0000   1.0000   1.0000   1.0000
     1.0000   1.0000   1.0000   1.0000   1.0000   1.0000   1.0000   1.0000
     1.0000   1.0000   1.0000   1.0000   1.0000   1.0000   1.0000   1.0000
     1.0000   1.0000   1.0000   1.0000

          k = 0.0000 0.1925-0.2294 (  4715 PWs)   bands (ev):

   -11.9109 -11.7526 -11.6641 -11.5917  -0.5639  -0.5379  -0.4579  -0.4569
    -0.4032  -0.3527  -0.3061  -0.2596  -0.2429  -0.2128  -0.1692  -0.1481
     0.2027   0.2139   0.2182   0.2518   0.2936   0.2975   0.3301   0.3832
     1.5227   1.8399   1.9264   2.7233   3.2125   3.2335   3.5145   3.7252
     3.7281   4.0902   4.1066   4.2066

     occupation numbers 
     1.0000   1.0000   1.0000   1.0000   1.0000   1.0000   1.0000   1.0000
     1.0000   1.0000   1.0000   1.0000   1.0000   1.0000   1.0000   1.0000
     1.0000   1.0000   1.0000   1.0000   1.0000   1.0000   1.0000   1.0000
     1.0000   1.0000   1.0000   1.0000   1.0000   1.0000   1.0000   1.0000
     1.0000   1.0000   1.0000   1.0000

          k =-0.1667 0.0962-0.1147 (  4724 PWs)   bands (ev):

   -12.0018 -11.6984 -11.5748 -11.5399  -0.5206  -0.4250  -0.4068  -0.3887
    -0.3192  -0.2855  -0.2393  -0.1832  -0.1220  -0.0159   0.0219   0.0289
     0.1514   0.1581   0.2020   0.2387   0.3165   0.3425   0.3841   0.4372
     1.2701   1.4315   1.6107   2.3045   2.8963   3.0217   3.2901   3.4320
     3.5783   3.8160   4.2387   4.3461

     occupation numbers 
     1.0000   1.0000   1.0000   1.0000   1.0000   1.0000   1.0000   1.0000
     1.0000   1.0000   1.0000   1.0000   1.0000   1.0000   1.0000   1.0000
     1.0000   1.0000   1.0000   1.0000   1.0000   1.0000   1.0000   1.0000
     1.0000   1.0000   1.0000   1.0000   1.0000   1.0000   1.0000   1.0000
     1.0000   1.0000   1.0000   1.0000

          k =-0.1667 0.0962-0.2294 (  4721 PWs)   bands (ev):

   -11.9109 -11.6641 -11.6598 -11.5681  -0.5378  -0.4778  -0.4569  -0.4033
    -0.3846  -0.3528  -0.3061  -0.2428  -0.2171  -0.1502  -0.0902  -0.0493
     0.2027   0.2139   0.2402   0.2529   0.2936   0.3301   0.3521   0.4151
     1.2693   1.4674   1.9264   2.5370   2.7234   3.1816   3.4846   3.5147
     3.7249   4.0253   4.1063   4.2068

     occupation numbers 
     1.0000   1.0000   1.0000   1.0000   1.0000   1.0000   1.0000   1.0000
     1.0000   1.0000   1.0000   1.0000   1.0000   1.0000   1.0000   1.0000
     1.0000   1.0000   1.0000   1.0000   1.0000   1.0000   1.0000   1.0000
     1.0000   1.0000   1.0000   1.0000   1.0000   1.0000   1.0000   1.0000
     1.0000   1.0000   1.0000   1.0000

          k =-0.1667 0.1925-0.1147 (  4721 PWs)   bands (ev):

   -11.9464 -11.7766 -11.5597 -11.5342  -0.5250  -0.4515  -0.3863  -0.3553
    -0.3436  -0.2739  -0.2318  -0.2052  -0.1683  -0.0532  -0.0296  -0.0201
     0.1482   0.1611   0.1667   0.2109   0.3207   0.3324   0.4104   0.4466
     1.4731   1.5174   1.8954   2.6216   2.6868   2.7443   2.9802   3.3911
     3.6159   4.0053   4.0931   4.2853

     occupation numbers 
     1.0000   1.0000   1.0000   1.0000   1.0000   1.0000   1.0000   1.0000
     1.0000   1.0000   1.0000   1.0000   1.0000   1.0000   1.0000   1.0000
     1.0000   1.0000   1.0000   1.0000   1.0000   1.0000   1.0000   1.0000
     1.0000   1.0000   1.0000   1.0000   1.0000   1.0000   1.0000   1.0000
     1.0000   1.0000   1.0000   1.0000

          k =-0.1667 0.1925-0.2294 (  4717 PWs)   bands (ev):

   -11.8631 -11.7213 -11.6395 -11.5810  -0.5483  -0.4993  -0.4602  -0.4228
    -0.3597  -0.3189  -0.2660  -0.2528  -0.2281  -0.2150  -0.1749  -0.1106
     0.2036   0.2210   0.2333   0.2463   0.2954   0.3162   0.3514   0.4000
     1.5080   1.7588   1.8800   2.4556   2.8188   3.3048   3.3547   3.4440
     3.5274   3.9430   4.1090   4.1937

     occupation numbers 
     1.0000   1.0000   1.0000   1.0000   1.0000   1.0000   1.0000   1.0000
     1.0000   1.0000   1.0000   1.0000   1.0000   1.0000   1.0000   1.0000
     1.0000   1.0000   1.0000   1.0000   1.0000   1.0000   1.0000   1.0000
     1.0000   1.0000   1.0000   1.0000   1.0000   1.0000   1.0000   1.0000
     1.0000   1.0000   1.0000   1.0000

          k =-0.3333 0.1925-0.1147 (  4713 PWs)   bands (ev):

   -11.8150 -11.6984 -11.5399 -11.5369  -0.5239  -0.4250  -0.3312  -0.2856
    -0.2821  -0.1832  -0.1475  -0.1248  -0.1220  -0.0067   0.0219   0.0290
     0.1720   0.1881   0.2020   0.2387   0.3275   0.3425   0.4339   0.4372
     1.2702   1.4618   1.6107   1.9923   2.3044   2.6211   2.8962   3.0405
     3.4318   3.8160   3.8999   4.0612

     occupation numbers 
     1.0000   1.0000   1.0000   1.0000   1.0000   1.0000   1.0000   1.0000
     1.0000   1.0000   1.0000   1.0000   1.0000   1.0000   1.0000   1.0000
     1.0000   1.0000   1.0000   1.0000   1.0000   1.0000   1.0000   1.0000
     1.0000   1.0000   1.0000   1.0000   1.0000   1.0000   1.0000   1.0000
     1.0000   1.0000   1.0000   1.0000

          k =-0.3333 0.1925-0.2294 (  4718 PWs)   bands (ev):

   -11.7526 -11.6598 -11.5917 -11.5681  -0.5638  -0.4778  -0.4579  -0.3846
    -0.2598  -0.2172  -0.2128  -0.1693  -0.1502  -0.1481  -0.0902  -0.0493
     0.2183   0.2402   0.2518   0.2530   0.2975   0.3521   0.3833   0.4151
     1.2694   1.4674   1.5228   1.8401   2.5369   3.1814   3.2126   3.2332
     3.4846   3.7278   4.0253   4.0903

     occupation numbers 
     1.0000   1.0000   1.0000   1.0000   1.0000   1.0000   1.0000   1.0000
     1.0000   1.0000   1.0000   1.0000   1.0000   1.0000   1.0000   1.0000
     1.0000   1.0000   1.0000   1.0000   1.0000   1.0000   1.0000   1.0000
     1.0000   1.0000   1.0000   1.0000   1.0000   1.0000   1.0000   1.0000
     1.0000   1.0000   1.0000   1.0000

          k =-0.3333-0.0962-0.1147 (  4710 PWs)   bands (ev):

   -11.8526 -11.6393 -11.5577 -11.5410  -0.5162  -0.3507  -0.3503  -0.3007
    -0.2831  -0.1979  -0.1967  -0.1375  -0.0246  -0.0017   0.0584   0.0778
     0.1553   0.1797   0.2197   0.2299   0.3264   0.3761   0.4337   0.4399
     1.2924   1.4828   1.5472   1.8476   2.1839   2.6878   3.0749   3.0979
     3.1797   3.6179   3.8984   4.1408

     occupation numbers 
     1.0000   1.0000   1.0000   1.0000   1.0000   1.0000   1.0000   1.0000
     1.0000   1.0000   1.0000   1.0000   1.0000   1.0000   1.0000   1.0000
     1.0000   1.0000   1.0000   1.0000   1.0000   1.0000   1.0000   1.0000
     1.0000   1.0000   1.0000   1.0000   1.0000   1.0000   1.0000   1.0000
     1.0000   1.0000   1.0000   1.0000

          k =-0.3333-0.0962-0.2294 (  4719 PWs)   bands (ev):

   -11.7837 -11.6164 -11.6035 -11.5692  -0.5510  -0.4526  -0.4018  -0.3457
    -0.2955  -0.2513  -0.2308  -0.1998  -0.1798  -0.0796  -0.0421  -0.0179
     0.2121   0.2133   0.2256   0.2384   0.2993   0.3786   0.4163   0.4510
     1.2618   1.3695   1.6750   2.0295   2.1143   2.8704   3.1768   3.3043
     3.6462   3.7236   3.9347   4.1409

     occupation numbers 
     1.0000   1.0000   1.0000   1.0000   1.0000   1.0000   1.0000   1.0000
     1.0000   1.0000   1.0000   1.0000   1.0000   1.0000   1.0000   1.0000
     1.0000   1.0000   1.0000   1.0000   1.0000   1.0000   1.0000   1.0000
     1.0000   1.0000   1.0000   1.0000   1.0000   1.0000   1.0000   1.0000
     1.0000   1.0000   1.0000   1.0000

          k = 0.5000-0.1925-0.1147 (  4706 PWs)   bands (ev):

   -11.6961 -11.6961 -11.5414 -11.5414  -0.4756  -0.4756  -0.2483  -0.2483
    -0.2266  -0.2266  -0.0938  -0.0938   0.0084   0.0084   0.0393   0.0393
     0.2298   0.2298   0.2564   0.2564   0.3372   0.3372   0.3929   0.3929
     1.1617   1.1617   1.5216   1.5216   2.5476   2.5476   2.8656   2.8657
     3.6193   3.6193   3.8139   3.8139

     occupation numbers 
     1.0000   1.0000   1.0000   1.0000   1.0000   1.0000   1.0000   1.0000
     1.0000   1.0000   1.0000   1.0000   1.0000   1.0000   1.0000   1.0000
     1.0000   1.0000   1.0000   1.0000   1.0000   1.0000   1.0000   1.0000
     1.0000   1.0000   1.0000   1.0000   1.0000   1.0000   1.0000   1.0000
     1.0000   1.0000   1.0000   1.0000

          k = 0.5000-0.1925-0.2294 (  4726 PWs)   bands (ev):

   -11.6583 -11.6583 -11.5688 -11.5687  -0.5295  -0.5295  -0.4213  -0.4213
    -0.2039  -0.2039  -0.1124  -0.1124  -0.0579  -0.0579  -0.0422  -0.0422
     0.2466   0.2466   0.2756   0.2756   0.3376   0.3376   0.3819   0.3819
     1.1532   1.1532   1.3555   1.3555   2.8145   2.8145   3.3951   3.3951
     3.4261   3.4261   4.0021   4.0021

     occupation numbers 
     1.0000   1.0000   1.0000   1.0000   1.0000   1.0000   1.0000   1.0000
     1.0000   1.0000   1.0000   1.0000   1.0000   1.0000   1.0000   1.0000
     1.0000   1.0000   1.0000   1.0000   1.0000   1.0000   1.0000   1.0000
     1.0000   1.0000   1.0000   1.0000   1.0000   1.0000   1.0000   1.0000
     1.0000   1.0000   1.0000   1.0000

          k = 0.5000-0.0962-0.1147 (  4708 PWs)   bands (ev):

   -11.6984 -11.6983 -11.5400 -11.5399  -0.4250  -0.4250  -0.2855  -0.2855
    -0.1832  -0.1832  -0.1220  -0.1220   0.0218   0.0218   0.0290   0.0290
     0.2020   0.2020   0.2388   0.2388   0.3426   0.3426   0.4372   0.4372
     1.2702   1.2702   1.6109   1.6109   2.3042   2.3043   2.8962   2.8963
     3.4318   3.4318   3.8159   3.8160

     occupation numbers 
     1.0000   1.0000   1.0000   1.0000   1.0000   1.0000   1.0000   1.0000
     1.0000   1.0000   1.0000   1.0000   1.0000   1.0000   1.0000   1.0000
     1.0000   1.0000   1.0000   1.0000   1.0000   1.0000   1.0000   1.0000
     1.0000   1.0000   1.0000   1.0000   1.0000   1.0000   1.0000   1.0000
     1.0000   1.0000   1.0000   1.0000

          k = 0.5000-0.0962-0.2294 (  4724 PWs)   bands (ev):

   -11.6598 -11.6598 -11.5682 -11.5681  -0.4778  -0.4778  -0.3846  -0.3846
    -0.2171  -0.2171  -0.1502  -0.1502  -0.0902  -0.0902  -0.0494  -0.0494
     0.2402   0.2402   0.2530   0.2530   0.3522   0.3522   0.4152   0.4152
     1.2694   1.2694   1.4675   1.4675   2.5368   2.5368   3.1813   3.1814
     3.4846   3.4846   4.0253   4.0254

     occupation numbers 
     1.0000   1.0000   1.0000   1.0000   1.0000   1.0000   1.0000   1.0000
     1.0000   1.0000   1.0000   1.0000   1.0000   1.0000   1.0000   1.0000
     1.0000   1.0000   1.0000   1.0000   1.0000   1.0000   1.0000   1.0000
     1.0000   1.0000   1.0000   1.0000   1.0000   1.0000   1.0000   1.0000
     1.0000   1.0000   1.0000   1.0000

     highest occupied level (ev):     4.4689

!    total energy              =    -723.17786201 Ry
     estimated scf accuracy    <          9.1E-09 Ry

     The total energy is the sum of the following terms:
     one-electron contribution =    -349.42135929 Ry
     hartree contribution      =     251.17049580 Ry
     xc contribution           =    -218.39763987 Ry
     ewald contribution        =    -406.52935865 Ry

     convergence has been achieved in  32 iterations

     Forces acting on atoms (cartesian axes, Ry/au):

     atom    1 type  1   force =     0.00000000    0.00000012   -0.00910741
     atom    2 type  2   force =     0.00000000    0.00000840    0.00910741
     atom    3 type  1   force =     0.00000000    0.00000174   -0.00910842
     atom    4 type  2   force =     0.00000000   -0.00001006    0.00910771
     atom    5 type  1   force =     0.00000000   -0.00001084   -0.00910864
     atom    6 type  2   force =     0.00000000    0.00000811    0.00910728
     atom    7 type  1   force =     0.00000000    0.00001227   -0.00910541
     atom    8 type  2   force =     0.00000000   -0.00000975    0.00910748
     The non-local contrib.  to forces
     atom    1 type  1   force =     0.00000000    0.00001568    0.13871444
     atom    2 type  2   force =     0.00000000    0.00020442    0.12361121
     atom    3 type  1   force =     0.00000000   -0.00001458    0.13871467
     atom    4 type  2   force =     0.00000000   -0.00020467    0.12361275
     atom    5 type  1   force =     0.00000000    0.00000922    0.13871472
     atom    6 type  2   force =     0.00000000    0.00020213    0.12361101
     atom    7 type  1   force =     0.00000000   -0.00001097    0.13871544
     atom    8 type  2   force =     0.00000000   -0.00020165    0.12361187
     The ionic contribution  to forces
     atom    1 type  1   force =    -0.00000000   -0.00000000    0.87181832
     atom    2 type  2   force =    -0.00000000    0.00000000   -0.87181832
     atom    3 type  1   force =     0.00000000    0.00000000    0.87181832
     atom    4 type  2   force =     0.00000000   -0.00000000   -0.87181832
     atom    5 type  1   force =     0.00000000   -0.00000000    0.87181832
     atom    6 type  2   force =    -0.00000000    0.00000000   -0.87181832
     atom    7 type  1   force =    -0.00000000    0.00000000    0.87181832
     atom    8 type  2   force =     0.00000000   -0.00000000   -0.87181832
     The local contribution  to forces
     atom    1 type  1   force =    -0.00000000   -0.00002468   -1.01191029
     atom    2 type  2   force =     0.00000000   -0.00019270    0.75839541
     atom    3 type  1   force =     0.00000000    0.00002108   -1.01191351
     atom    4 type  2   force =     0.00000000    0.00019422    0.75839852
     atom    5 type  1   force =    -0.00000000   -0.00000612   -1.01191167
     atom    6 type  2   force =     0.00000000   -0.00019490    0.75839547
     atom    7 type  1   force =     0.00000000    0.00000836   -1.01191837
     atom    8 type  2   force =    -0.00000000    0.00019228    0.75839764
     The core correction contribution to forces
     atom    1 type  1   force =     0.00000000   -0.00000703   -0.00773609
     atom    2 type  2   force =     0.00000000   -0.00000232   -0.00108050
     atom    3 type  1   force =     0.00000000    0.00000705   -0.00773580
     atom    4 type  2   force =    -0.00000000    0.00000233   -0.00108050
     atom    5 type  1   force =    -0.00000000   -0.00000728   -0.00773595
     atom    6 type  2   force =    -0.00000000   -0.00000229   -0.00108049
     atom    7 type  1   force =     0.00000000    0.00000717   -0.00773561
     atom    8 type  2   force =    -0.00000000    0.00000227   -0.00108050
     The Hubbard contrib.    to forces
     atom    1 type  1   force =     0.00000000    0.00000000    0.00000000
     atom    2 type  2   force =     0.00000000    0.00000000    0.00000000
     atom    3 type  1   force =     0.00000000    0.00000000    0.00000000
     atom    4 type  2   force =     0.00000000    0.00000000    0.00000000
     atom    5 type  1   force =     0.00000000    0.00000000    0.00000000
     atom    6 type  2   force =     0.00000000    0.00000000    0.00000000
     atom    7 type  1   force =     0.00000000    0.00000000    0.00000000
     atom    8 type  2   force =     0.00000000    0.00000000    0.00000000
     The SCF correction term to forces
     atom    1 type  1   force =    -0.00000000    0.00001697    0.00000941
     atom    2 type  2   force =     0.00000000   -0.00000018    0.00000280
     atom    3 type  1   force =     0.00000000   -0.00001100    0.00001108
     atom    4 type  2   force =    -0.00000000   -0.00000112   -0.00000154
     atom    5 type  1   force =    -0.00000000   -0.00000585    0.00000913
     atom    6 type  2   force =     0.00000000    0.00000399    0.00000280
     atom    7 type  1   force =     0.00000000    0.00000852    0.00001800
     atom    8 type  2   force =    -0.00000000   -0.00000185   -0.00000002

     Total force =     0.025760     Total SCF correction =     0.000034

     init_run     :      5.29s CPU      5.60s WALL (       1 calls)
     electrons    :    386.00s CPU    407.63s WALL (       1 calls)
     forces       :      1.70s CPU      1.76s WALL (       1 calls)

     Called by init_run:
     wfcinit      :      3.44s CPU      3.67s WALL (       1 calls)
     wfcinit:atom :      0.06s CPU      0.06s WALL (      40 calls)
     wfcinit:wfcr :      3.06s CPU      3.28s WALL (      40 calls)
     potinit      :      0.65s CPU      0.66s WALL (       1 calls)
     hinit0       :      1.04s CPU      1.05s WALL (       1 calls)

     Called by electrons:
     c_bands      :    343.27s CPU    360.16s WALL (      32 calls)
     sum_band     :     36.78s CPU     40.34s WALL (      32 calls)
     v_of_rho     :      2.02s CPU      2.11s WALL (      33 calls)
     v_h          :      0.11s CPU      0.11s WALL (      33 calls)
     v_xc         :      1.97s CPU      2.06s WALL (      34 calls)
     newd         :      3.60s CPU      4.70s WALL (      33 calls)
     mix_rho      :      0.30s CPU      0.33s WALL (      32 calls)

     Called by c_bands:
     init_us_2    :      3.10s CPU      3.14s WALL (    2640 calls)
     init_us_2:cp :      3.09s CPU      3.13s WALL (    2640 calls)
     cegterg      :    315.42s CPU    332.21s WALL (    1280 calls)

     Called by sum_band:
     sum_band:wei :      0.00s CPU      0.00s WALL (      32 calls)
     sum_band:loo :     31.89s CPU     34.23s WALL (      32 calls)
     sum_band:buf :      0.22s CPU      0.23s WALL (    1280 calls)
     sum_band:ini :      1.45s CPU      1.48s WALL (    1280 calls)
     sum_band:cal :      3.93s CPU      4.07s WALL (    1280 calls)
     sum_band:bec :      0.09s CPU      0.09s WALL (    1280 calls)
     addusdens    :      3.94s CPU      5.10s WALL (      32 calls)
                                        0.00s GPU  (      32 calls)
     addusd:skk   :      0.03s CPU      0.03s WALL (      64 calls)
                                        0.00s GPU  (      64 calls)

     Called by *egterg:
     cdiaghg      :     32.05s CPU     32.12s WALL (    8914 calls)
     cegterg:over :     16.82s CPU     17.25s WALL (    7634 calls)
     cegterg:upda :     11.12s CPU     11.16s WALL (    7634 calls)
     cegterg:last :     23.54s CPU     23.57s WALL (    4440 calls)
     h_psi        :    209.32s CPU    225.59s WALL (    8954 calls)
     s_psi        :     18.01s CPU     18.07s WALL (    8954 calls)
     g_psi        :      1.58s CPU      1.59s WALL (    7634 calls)

     Called by h_psi:
     h_psi:calbec :     16.26s CPU     16.95s WALL (    8954 calls)
     vloc_psi     :    173.49s CPU    188.95s WALL (    8954 calls)
     add_vuspsi   :     18.77s CPU     18.88s WALL (    8954 calls)

     General routines
     calbec       :     20.65s CPU     21.50s WALL (   10394 calls)
     fft          :      1.11s CPU      1.25s WALL (     438 calls)
     ffts         :      0.17s CPU      0.18s WALL (      65 calls)
     fftw         :    166.34s CPU    181.81s WALL (  386424 calls)
     interpolate  :      0.23s CPU      0.25s WALL (      33 calls)

     Parallel routines

     PWSCF        :   6m33.43s CPU   6m55.45s WALL


   This run was terminated on:  23:58: 9  13Jul2025            

=------------------------------------------------------------------------------=
   JOB DONE.
=------------------------------------------------------------------------------=
Note: The following floating-point exceptions are signalling: IEEE_INVALID_FLAG
Note: The following floating-point exceptions are signalling: IEEE_INVALID_FLAG
