Authorization required, but no authorization protocol specified

Authorization required, but no authorization protocol specified

Authorization required, but no authorization protocol specified

Authorization required, but no authorization protocol specified

Authorization required, but no authorization protocol specified

Authorization required, but no authorization protocol specified

Authorization required, but no authorization protocol specified

Authorization required, but no authorization protocol specified

Authorization required, but no authorization protocol specified

Authorization required, but no authorization protocol specified


     Program PWSCF v.7.2 starts on 13Jul2025 at 19:48:13 

     This program is part of the open-source Quantum ESPRESSO suite
     for quantum simulation of materials; please cite
         "P. Giannozzi et al., J. Phys.:Condens. Matter 21 395502 (2009);
         "P. Giannozzi et al., J. Phys.:Condens. Matter 29 465901 (2017);
         "P. Giannozzi et al., J. Chem. Phys. 152 154105 (2020);
          URL http://www.quantum-espresso.org", 
     in publications or presentations arising from this work. More details at
     http://www.quantum-espresso.org/quote

     Parallel version (MPI), running on     8 processors

     MPI processes distributed on     1 nodes
     57001 MiB available memory on the printing compute node when the environment starts

     Reading input from /home/jvc/QEspresso7.2/ZnO_database/scripts/cell121.in/ZnO-3.40-1.52-121.in
Warning: card &CELL ignored
Warning: card / ignored
Warning: card &FCP ignored
Warning: card / ignored
Warning: card &RISM ignored
Warning: card / ignored

     Current dimensions of program PWSCF are:
     Max number of different atomic species (ntypx) = 10
     Max number of k-points (npk) =  40000
     Max angular momentum in pseudopotentials (lmaxx) =  4
     file Zn.upf: wavefunction(s)  3D renormalized
     Found identity + (  0.0000 -0.5000  0.0000) symmetry
     This is a supercell, fractional translations are disabled
     Message from routine setup:
     using ibrav=0 with symmetry is DISCOURAGED, use correct ibrav instead

     K-points division:     npool     =       2
     R & G space division:  proc/nbgrp/npool/nimage =       4
     Subspace diagonalization in iterative solution of the eigenvalue problem:
     a serial algorithm will be used


     Parallelization info
     --------------------
     sticks:   dense  smooth     PW     G-vecs:    dense   smooth      PW
     Min         569     283     86                23573     8335    1444
     Max         570     284     87                23576     8338    1445
     Sum        2279    1135    347                94301    33345    5779

     Using Slab Decomposition



     bravais-lattice index     =            0
     lattice parameter (alat)  =       6.4260  a.u.
     unit-cell volume          =     697.4487 (a.u.)^3
     number of atoms/cell      =            8
     number of atomic types    =            2
     number of electrons       =        72.00
     number of Kohn-Sham states=           36
     kinetic-energy cutoff     =      50.0000  Ry
     charge density cutoff     =     400.0000  Ry
     scf convergence threshold =      1.0E-08
     mixing beta               =       0.3000
     number of iterations used =            8  plain     mixing
     Exchange-correlation= PBE
                           (   1   4   3   4   0   0   0)

     celldm(1)=   6.426008  celldm(2)=   0.000000  celldm(3)=   0.000000
     celldm(4)=   0.000000  celldm(5)=   0.000000  celldm(6)=   0.000000

     crystal axes: (cart. coord. in units of alat)
               a(1) = (   1.000000   0.000000   0.000000 )  
               a(2) = (  -1.000000   1.732051   0.000000 )  
               a(3) = (   0.000000   0.000000   1.517497 )  

     reciprocal axes: (cart. coord. in units 2 pi/alat)
               b(1) = (  1.000000  0.577350 -0.000000 )  
               b(2) = (  0.000000  0.577350  0.000000 )  
               b(3) = (  0.000000 -0.000000  0.658980 )  


     PseudoPot. # 1 for Zn read from file:
     /home/jvc/QEspresso7.2/ZnO_database/pseudos/Zn.upf
     MD5 check sum: 7f56cabf9682ed8c977c2f7d0c5985c5
     Pseudo is Ultrasoft + core correction, Zval = 12.0
     Generated using &quot;atomic&quot; code by A. Dal Corso  v.6.2.2
     Using radial grid of 1201 points,  6 beta functions with: 
                l(1) =   0
                l(2) =   0
                l(3) =   1
                l(4) =   1
                l(5) =   2
                l(6) =   2
     Q(r) pseudized with 0 coefficients 


     PseudoPot. # 2 for O  read from file:
     /home/jvc/QEspresso7.2/ZnO_database/pseudos/O.upf
     MD5 check sum: 91400c9766925bcf19f520983a725ff0
     Pseudo is Ultrasoft + core correction, Zval =  6.0
     Generated using &quot;atomic&quot; code by A. Dal Corso  v.6.3MaX
     Using radial grid of 1095 points,  4 beta functions with: 
                l(1) =   0
                l(2) =   0
                l(3) =   1
                l(4) =   1
     Q(r) pseudized with 0 coefficients 


     atomic species   valence    mass     pseudopotential
        Zn            12.00    65.38000     Zn( 1.00)
        O              6.00    15.99900     O ( 1.00)

      2 Sym. Ops. (no inversion) found


                                    s                        frac. trans.

      isym =  1     identity                                     

 cryst.   s( 1) = (     1          0          0      )
                  (     0          1          0      )
                  (     0          0          1      )

 cart.    s( 1) = (  1.0000000  0.0000000  0.0000000 )
                  (  0.0000000  1.0000000  0.0000000 )
                  (  0.0000000  0.0000000  1.0000000 )


      isym =  2     inv. 180 deg rotation - cart. axis [1,0,0]   

 cryst.   s( 2) = (    -1          0          0      )
                  (     2          1          0      )
                  (     0          0          1      )

 cart.    s( 2) = ( -1.0000000  0.0000000  0.0000000 )
                  (  0.0000000  1.0000000  0.0000000 )
                  (  0.0000000  0.0000000  1.0000000 )


   Cartesian axes

     site n.     atom                  positions (alat units)
         1           Zn  tau(   1) = (   0.0000000   0.0000000   0.0000000  )
         2           O   tau(   2) = (   0.0000000   0.5773503   0.1597142  )
         3           Zn  tau(   3) = (   0.0000000   0.5773503   0.7587484  )
         4           O   tau(   4) = (   0.0000000   0.0000000   0.9184627  )
         5           Zn  tau(   5) = (  -0.5000000   0.8660254   0.0000000  )
         6           O   tau(   6) = (  -0.5000000   1.4433757   0.1597142  )
         7           Zn  tau(   7) = (  -0.5000000   1.4433757   0.7587484  )
         8           O   tau(   8) = (  -0.5000000   0.8660254   0.9184627  )

   Crystallographic axes

     site n.     atom                  positions (cryst. coord.)
         1           Zn  tau(   1) = (  0.0000000  0.0000000  0.0000000  )
         2           O   tau(   2) = (  0.3333333  0.3333333  0.1052485  )
         3           Zn  tau(   3) = (  0.3333333  0.3333333  0.5000000  )
         4           O   tau(   4) = (  0.0000000  0.0000000  0.6052485  )
         5           Zn  tau(   5) = (  0.0000000  0.5000000  0.0000000  )
         6           O   tau(   6) = (  0.3333333  0.8333333  0.1052485  )
         7           Zn  tau(   7) = (  0.3333333  0.8333333  0.5000000  )
         8           O   tau(   8) = (  0.0000000  0.5000000  0.6052485  )

     number of k points=    80
                       cart. coord. in units 2pi/alat
        k(    1) = (   0.0000000   0.0000000   0.0000000), wk =   0.0092593
        k(    2) = (   0.0000000   0.0000000   0.1098300), wk =   0.0185185
        k(    3) = (   0.0000000   0.0000000   0.2196600), wk =   0.0185185
        k(    4) = (   0.0000000   0.0000000  -0.3294900), wk =   0.0092593
        k(    5) = (   0.0000000   0.0962250   0.0000000), wk =   0.0185185
        k(    6) = (   0.0000000   0.0962250   0.1098300), wk =   0.0185185
        k(    7) = (   0.0000000   0.0962250   0.2196600), wk =   0.0185185
        k(    8) = (   0.0000000   0.0962250  -0.3294900), wk =   0.0185185
        k(    9) = (   0.0000000   0.1924501   0.0000000), wk =   0.0185185
        k(   10) = (   0.0000000   0.1924501   0.1098300), wk =   0.0185185
        k(   11) = (   0.0000000   0.1924501   0.2196600), wk =   0.0185185
        k(   12) = (   0.0000000   0.1924501  -0.3294900), wk =   0.0185185
        k(   13) = (   0.0000000  -0.2886751   0.0000000), wk =   0.0092593
        k(   14) = (   0.0000000  -0.2886751   0.1098300), wk =   0.0185185
        k(   15) = (   0.0000000  -0.2886751   0.2196600), wk =   0.0185185
        k(   16) = (   0.0000000  -0.2886751  -0.3294900), wk =   0.0092593
        k(   17) = (   0.1666667   0.0962250   0.0000000), wk =   0.0370370
        k(   18) = (   0.1666667   0.0962250   0.1098300), wk =   0.0370370
        k(   19) = (   0.1666667   0.0962250   0.2196600), wk =   0.0370370
        k(   20) = (   0.1666667   0.0962250  -0.3294900), wk =   0.0370370
        k(   21) = (   0.1666667   0.1924501   0.0000000), wk =   0.0370370
        k(   22) = (   0.1666667   0.1924501   0.1098300), wk =   0.0370370
        k(   23) = (   0.1666667   0.1924501   0.2196600), wk =   0.0370370
        k(   24) = (   0.1666667   0.1924501  -0.3294900), wk =   0.0370370
        k(   25) = (   0.1666667   0.2886751   0.0000000), wk =   0.0185185
        k(   26) = (   0.1666667   0.2886751   0.1098300), wk =   0.0370370
        k(   27) = (   0.1666667   0.2886751   0.2196600), wk =   0.0370370
        k(   28) = (   0.1666667   0.2886751  -0.3294900), wk =   0.0185185
        k(   29) = (   0.1666667   0.0000000   0.0000000), wk =   0.0185185
        k(   30) = (   0.1666667   0.0000000   0.1098300), wk =   0.0370370
        k(   31) = (   0.1666667   0.0000000   0.2196600), wk =   0.0370370
        k(   32) = (   0.1666667   0.0000000  -0.3294900), wk =   0.0185185
        k(   33) = (   0.3333333   0.1924501   0.0000000), wk =   0.0370370
        k(   34) = (   0.3333333   0.1924501   0.1098300), wk =   0.0370370
        k(   35) = (   0.3333333   0.1924501   0.2196600), wk =   0.0370370
        k(   36) = (   0.3333333   0.1924501  -0.3294900), wk =   0.0370370
        k(   37) = (   0.3333333   0.2886751   0.0000000), wk =   0.0185185
        k(   38) = (   0.3333333   0.2886751   0.1098300), wk =   0.0370370
        k(   39) = (   0.3333333   0.2886751   0.2196600), wk =   0.0370370
        k(   40) = (   0.3333333   0.2886751  -0.3294900), wk =   0.0185185
        k(   41) = (   0.3333333  -0.0962250   0.0000000), wk =   0.0370370
        k(   42) = (   0.3333333  -0.0962250   0.1098300), wk =   0.0370370
        k(   43) = (   0.3333333  -0.0962250   0.2196600), wk =   0.0370370
        k(   44) = (   0.3333333  -0.0962250  -0.3294900), wk =   0.0370370
        k(   45) = (   0.3333333  -0.0000000   0.0000000), wk =   0.0185185
        k(   46) = (   0.3333333  -0.0000000   0.1098300), wk =   0.0370370
        k(   47) = (   0.3333333  -0.0000000   0.2196600), wk =   0.0370370
        k(   48) = (   0.3333333  -0.0000000  -0.3294900), wk =   0.0185185
        k(   49) = (  -0.5000000  -0.2886751   0.0000000), wk =   0.0092593
        k(   50) = (  -0.5000000  -0.2886751   0.1098300), wk =   0.0185185
        k(   51) = (  -0.5000000  -0.2886751   0.2196600), wk =   0.0185185
        k(   52) = (  -0.5000000  -0.2886751  -0.3294900), wk =   0.0092593
        k(   53) = (  -0.5000000  -0.1924501   0.0000000), wk =   0.0185185
        k(   54) = (  -0.5000000  -0.1924501   0.1098300), wk =   0.0185185
        k(   55) = (  -0.5000000  -0.1924501   0.2196600), wk =   0.0185185
        k(   56) = (  -0.5000000  -0.1924501  -0.3294900), wk =   0.0185185
        k(   57) = (  -0.5000000  -0.0962250   0.0000000), wk =   0.0185185
        k(   58) = (  -0.5000000  -0.0962250   0.1098300), wk =   0.0185185
        k(   59) = (  -0.5000000  -0.0962250   0.2196600), wk =   0.0185185
        k(   60) = (  -0.5000000  -0.0962250  -0.3294900), wk =   0.0185185
        k(   61) = (  -0.5000000  -0.5773503   0.0000000), wk =   0.0092593
        k(   62) = (  -0.5000000  -0.5773503   0.1098300), wk =   0.0185185
        k(   63) = (  -0.5000000  -0.5773503   0.2196600), wk =   0.0185185
        k(   64) = (  -0.5000000  -0.5773503  -0.3294900), wk =   0.0092593
        k(   65) = (   0.0000000   0.0962250  -0.1098300), wk =   0.0185185
        k(   66) = (   0.0000000   0.0962250  -0.2196600), wk =   0.0185185
        k(   67) = (   0.0000000   0.1924501  -0.1098300), wk =   0.0185185
        k(   68) = (   0.0000000   0.1924501  -0.2196600), wk =   0.0185185
        k(   69) = (  -0.1666667   0.0962250  -0.1098300), wk =   0.0370370
        k(   70) = (  -0.1666667   0.0962250  -0.2196600), wk =   0.0370370
        k(   71) = (  -0.1666667   0.1924501  -0.1098300), wk =   0.0370370
        k(   72) = (  -0.1666667   0.1924501  -0.2196600), wk =   0.0370370
        k(   73) = (  -0.3333333   0.1924501  -0.1098300), wk =   0.0370370
        k(   74) = (  -0.3333333   0.1924501  -0.2196600), wk =   0.0370370
        k(   75) = (  -0.3333333  -0.0962250  -0.1098300), wk =   0.0370370
        k(   76) = (  -0.3333333  -0.0962250  -0.2196600), wk =   0.0370370
        k(   77) = (   0.5000000  -0.1924501  -0.1098300), wk =   0.0185185
        k(   78) = (   0.5000000  -0.1924501  -0.2196600), wk =   0.0185185
        k(   79) = (   0.5000000  -0.0962250  -0.1098300), wk =   0.0185185
        k(   80) = (   0.5000000  -0.0962250  -0.2196600), wk =   0.0185185

                       cryst. coord.
        k(    1) = (   0.0000000   0.0000000   0.0000000), wk =   0.0092593
        k(    2) = (   0.0000000   0.0000000   0.1666667), wk =   0.0185185
        k(    3) = (   0.0000000   0.0000000   0.3333333), wk =   0.0185185
        k(    4) = (   0.0000000   0.0000000  -0.5000000), wk =   0.0092593
        k(    5) = (   0.0000000   0.1666667   0.0000000), wk =   0.0185185
        k(    6) = (   0.0000000   0.1666667   0.1666667), wk =   0.0185185
        k(    7) = (   0.0000000   0.1666667   0.3333333), wk =   0.0185185
        k(    8) = (   0.0000000   0.1666667  -0.5000000), wk =   0.0185185
        k(    9) = (   0.0000000   0.3333333   0.0000000), wk =   0.0185185
        k(   10) = (   0.0000000   0.3333333   0.1666667), wk =   0.0185185
        k(   11) = (   0.0000000   0.3333333   0.3333333), wk =   0.0185185
        k(   12) = (   0.0000000   0.3333333  -0.5000000), wk =   0.0185185
        k(   13) = (   0.0000000  -0.5000000   0.0000000), wk =   0.0092593
        k(   14) = (   0.0000000  -0.5000000   0.1666667), wk =   0.0185185
        k(   15) = (   0.0000000  -0.5000000   0.3333333), wk =   0.0185185
        k(   16) = (   0.0000000  -0.5000000  -0.5000000), wk =   0.0092593
        k(   17) = (   0.1666667   0.0000000   0.0000000), wk =   0.0370370
        k(   18) = (   0.1666667   0.0000000   0.1666667), wk =   0.0370370
        k(   19) = (   0.1666667   0.0000000   0.3333333), wk =   0.0370370
        k(   20) = (   0.1666667   0.0000000  -0.5000000), wk =   0.0370370
        k(   21) = (   0.1666667   0.1666667   0.0000000), wk =   0.0370370
        k(   22) = (   0.1666667   0.1666667   0.1666667), wk =   0.0370370
        k(   23) = (   0.1666667   0.1666667   0.3333333), wk =   0.0370370
        k(   24) = (   0.1666667   0.1666667  -0.5000000), wk =   0.0370370
        k(   25) = (   0.1666667   0.3333333   0.0000000), wk =   0.0185185
        k(   26) = (   0.1666667   0.3333333   0.1666667), wk =   0.0370370
        k(   27) = (   0.1666667   0.3333333   0.3333333), wk =   0.0370370
        k(   28) = (   0.1666667   0.3333333  -0.5000000), wk =   0.0185185
        k(   29) = (   0.1666667  -0.1666667   0.0000000), wk =   0.0185185
        k(   30) = (   0.1666667  -0.1666667   0.1666667), wk =   0.0370370
        k(   31) = (   0.1666667  -0.1666667   0.3333333), wk =   0.0370370
        k(   32) = (   0.1666667  -0.1666667  -0.5000000), wk =   0.0185185
        k(   33) = (   0.3333333   0.0000000   0.0000000), wk =   0.0370370
        k(   34) = (   0.3333333   0.0000000   0.1666667), wk =   0.0370370
        k(   35) = (   0.3333333   0.0000000   0.3333333), wk =   0.0370370
        k(   36) = (   0.3333333   0.0000000  -0.5000000), wk =   0.0370370
        k(   37) = (   0.3333333   0.1666667   0.0000000), wk =   0.0185185
        k(   38) = (   0.3333333   0.1666667   0.1666667), wk =   0.0370370
        k(   39) = (   0.3333333   0.1666667   0.3333333), wk =   0.0370370
        k(   40) = (   0.3333333   0.1666667  -0.5000000), wk =   0.0185185
        k(   41) = (   0.3333333  -0.5000000   0.0000000), wk =   0.0370370
        k(   42) = (   0.3333333  -0.5000000   0.1666667), wk =   0.0370370
        k(   43) = (   0.3333333  -0.5000000   0.3333333), wk =   0.0370370
        k(   44) = (   0.3333333  -0.5000000  -0.5000000), wk =   0.0370370
        k(   45) = (   0.3333333  -0.3333333   0.0000000), wk =   0.0185185
        k(   46) = (   0.3333333  -0.3333333   0.1666667), wk =   0.0370370
        k(   47) = (   0.3333333  -0.3333333   0.3333333), wk =   0.0370370
        k(   48) = (   0.3333333  -0.3333333  -0.5000000), wk =   0.0185185
        k(   49) = (  -0.5000000   0.0000000   0.0000000), wk =   0.0092593
        k(   50) = (  -0.5000000   0.0000000   0.1666667), wk =   0.0185185
        k(   51) = (  -0.5000000   0.0000000   0.3333333), wk =   0.0185185
        k(   52) = (  -0.5000000   0.0000000  -0.5000000), wk =   0.0092593
        k(   53) = (  -0.5000000   0.1666667   0.0000000), wk =   0.0185185
        k(   54) = (  -0.5000000   0.1666667   0.1666667), wk =   0.0185185
        k(   55) = (  -0.5000000   0.1666667   0.3333333), wk =   0.0185185
        k(   56) = (  -0.5000000   0.1666667  -0.5000000), wk =   0.0185185
        k(   57) = (  -0.5000000   0.3333333   0.0000000), wk =   0.0185185
        k(   58) = (  -0.5000000   0.3333333   0.1666667), wk =   0.0185185
        k(   59) = (  -0.5000000   0.3333333   0.3333333), wk =   0.0185185
        k(   60) = (  -0.5000000   0.3333333  -0.5000000), wk =   0.0185185
        k(   61) = (  -0.5000000  -0.5000000   0.0000000), wk =   0.0092593
        k(   62) = (  -0.5000000  -0.5000000   0.1666667), wk =   0.0185185
        k(   63) = (  -0.5000000  -0.5000000   0.3333333), wk =   0.0185185
        k(   64) = (  -0.5000000  -0.5000000  -0.5000000), wk =   0.0092593
        k(   65) = (   0.0000000   0.1666667  -0.1666667), wk =   0.0185185
        k(   66) = (   0.0000000   0.1666667  -0.3333333), wk =   0.0185185
        k(   67) = (   0.0000000   0.3333333  -0.1666667), wk =   0.0185185
        k(   68) = (   0.0000000   0.3333333  -0.3333333), wk =   0.0185185
        k(   69) = (  -0.1666667   0.3333333  -0.1666667), wk =   0.0370370
        k(   70) = (  -0.1666667   0.3333333  -0.3333333), wk =   0.0370370
        k(   71) = (  -0.1666667   0.5000000  -0.1666667), wk =   0.0370370
        k(   72) = (  -0.1666667   0.5000000  -0.3333333), wk =   0.0370370
        k(   73) = (  -0.3333333   0.6666667  -0.1666667), wk =   0.0370370
        k(   74) = (  -0.3333333   0.6666667  -0.3333333), wk =   0.0370370
        k(   75) = (  -0.3333333   0.1666667  -0.1666667), wk =   0.0370370
        k(   76) = (  -0.3333333   0.1666667  -0.3333333), wk =   0.0370370
        k(   77) = (   0.5000000  -0.8333333  -0.1666667), wk =   0.0185185
        k(   78) = (   0.5000000  -0.8333333  -0.3333333), wk =   0.0185185
        k(   79) = (   0.5000000  -0.6666667  -0.1666667), wk =   0.0185185
        k(   80) = (   0.5000000  -0.6666667  -0.3333333), wk =   0.0185185

     Dense  grid:    94301 G-vectors     FFT dimensions: (  45,  81,  64)

     Smooth grid:    33345 G-vectors     FFT dimensions: (  30,  60,  45)

     Dynamical RAM for                 wfc:       0.57 MB

     Dynamical RAM for     wfc (w. buffer):      23.45 MB

     Dynamical RAM for           str. fact:       0.72 MB

     Dynamical RAM for           local pot:       0.00 MB

     Dynamical RAM for          nlocal pot:       1.65 MB

     Dynamical RAM for                qrad:       3.21 MB

     Dynamical RAM for          rho,v,vnew:       2.41 MB

     Dynamical RAM for               rhoin:       0.80 MB

     Dynamical RAM for            rho*nmix:       5.76 MB

     Dynamical RAM for           G-vectors:       1.41 MB

     Dynamical RAM for          h,s,v(r/c):       0.24 MB

     Dynamical RAM for          <psi|beta>:       0.06 MB

     Dynamical RAM for                 psi:       1.14 MB

     Dynamical RAM for                hpsi:       1.14 MB

     Dynamical RAM for                spsi:       1.14 MB

     Dynamical RAM for      wfcinit/wfcrot:       1.71 MB

     Dynamical RAM for           addusdens:      34.36 MB

     Dynamical RAM for          addusforce:      35.45 MB

     Estimated static dynamical RAM per process >      36.96 MB

     Estimated max dynamical RAM per process >      78.17 MB

     Estimated total dynamical RAM >     602.33 MB

     Check: negative core charge=   -0.000002

     Initial potential from superposition of free atoms

     starting charge      71.9851, renormalised to      72.0000
     Starting wfcs are   52 randomized atomic wfcs

     total cpu time spent up to now is        6.0 secs

     Self-consistent Calculation

     iteration #  1     ecut=    50.00 Ry     beta= 0.30
     Davidson diagonalization with overlap

---- Real-time Memory Report at c_bands before calling an iterative solver
            80 MiB given to the printing process from OS
             0 MiB allocation reported by mallinfo(arena+hblkhd)
         56562 MiB available memory on the node where the printing process lives
------------------
     ethr =  1.00E-02,  avg # of iterations =  1.9

     total cpu time spent up to now is       13.2 secs

     total energy              =    -722.92674932 Ry
     estimated scf accuracy    <       1.43339906 Ry

     iteration #  2     ecut=    50.00 Ry     beta= 0.30
     Davidson diagonalization with overlap

---- Real-time Memory Report at c_bands before calling an iterative solver
           110 MiB given to the printing process from OS
             0 MiB allocation reported by mallinfo(arena+hblkhd)
         56323 MiB available memory on the node where the printing process lives
------------------
     ethr =  1.99E-03,  avg # of iterations =  2.0

     total cpu time spent up to now is       22.1 secs

     total energy              =    -723.14902908 Ry
     estimated scf accuracy    <       0.16791440 Ry

     iteration #  3     ecut=    50.00 Ry     beta= 0.30
     Davidson diagonalization with overlap

---- Real-time Memory Report at c_bands before calling an iterative solver
           110 MiB given to the printing process from OS
             0 MiB allocation reported by mallinfo(arena+hblkhd)
         56325 MiB available memory on the node where the printing process lives
------------------
     ethr =  2.33E-04,  avg # of iterations =  6.5

     total cpu time spent up to now is       37.0 secs

     total energy              =    -723.20039084 Ry
     estimated scf accuracy    <       0.12974202 Ry

     iteration #  4     ecut=    50.00 Ry     beta= 0.30
     Davidson diagonalization with overlap

---- Real-time Memory Report at c_bands before calling an iterative solver
           111 MiB given to the printing process from OS
             0 MiB allocation reported by mallinfo(arena+hblkhd)
         56347 MiB available memory on the node where the printing process lives
------------------
     ethr =  1.80E-04,  avg # of iterations =  8.9

     total cpu time spent up to now is       56.2 secs

     total energy              =    -723.29652833 Ry
     estimated scf accuracy    <       0.56378603 Ry

     iteration #  5     ecut=    50.00 Ry     beta= 0.30
     Davidson diagonalization with overlap

---- Real-time Memory Report at c_bands before calling an iterative solver
           111 MiB given to the printing process from OS
             0 MiB allocation reported by mallinfo(arena+hblkhd)
         56347 MiB available memory on the node where the printing process lives
------------------
     ethr =  1.80E-04,  avg # of iterations =  2.0

     total cpu time spent up to now is       63.5 secs

     total energy              =    -723.06151933 Ry
     estimated scf accuracy    <       0.34027459 Ry

     iteration #  6     ecut=    50.00 Ry     beta= 0.30
     Davidson diagonalization with overlap

---- Real-time Memory Report at c_bands before calling an iterative solver
           111 MiB given to the printing process from OS
             0 MiB allocation reported by mallinfo(arena+hblkhd)
         56347 MiB available memory on the node where the printing process lives
------------------
     ethr =  1.80E-04,  avg # of iterations =  9.0

     total cpu time spent up to now is       82.1 secs

     total energy              =    -723.25528985 Ry
     estimated scf accuracy    <       0.51537417 Ry

     iteration #  7     ecut=    50.00 Ry     beta= 0.30
     Davidson diagonalization with overlap

---- Real-time Memory Report at c_bands before calling an iterative solver
           112 MiB given to the printing process from OS
             0 MiB allocation reported by mallinfo(arena+hblkhd)
         56347 MiB available memory on the node where the printing process lives
------------------
     ethr =  1.80E-04,  avg # of iterations =  2.0

     total cpu time spent up to now is       90.1 secs

     total energy              =    -723.28053463 Ry
     estimated scf accuracy    <       0.24978167 Ry

     iteration #  8     ecut=    50.00 Ry     beta= 0.30
     Davidson diagonalization with overlap

---- Real-time Memory Report at c_bands before calling an iterative solver
           112 MiB given to the printing process from OS
             0 MiB allocation reported by mallinfo(arena+hblkhd)
         56347 MiB available memory on the node where the printing process lives
------------------
     ethr =  1.80E-04,  avg # of iterations =  1.9

     total cpu time spent up to now is       97.4 secs

     total energy              =    -723.28201313 Ry
     estimated scf accuracy    <       0.21206772 Ry

     iteration #  9     ecut=    50.00 Ry     beta= 0.30
     Davidson diagonalization with overlap

---- Real-time Memory Report at c_bands before calling an iterative solver
           112 MiB given to the printing process from OS
             0 MiB allocation reported by mallinfo(arena+hblkhd)
         56348 MiB available memory on the node where the printing process lives
------------------
     ethr =  1.80E-04,  avg # of iterations =  1.9

     total cpu time spent up to now is      104.7 secs

     total energy              =    -723.28608590 Ry
     estimated scf accuracy    <       0.16950850 Ry

     iteration # 10     ecut=    50.00 Ry     beta= 0.30
     Davidson diagonalization with overlap

---- Real-time Memory Report at c_bands before calling an iterative solver
           112 MiB given to the printing process from OS
             0 MiB allocation reported by mallinfo(arena+hblkhd)
         56348 MiB available memory on the node where the printing process lives
------------------
     ethr =  1.80E-04,  avg # of iterations =  1.0

     total cpu time spent up to now is      111.3 secs

     total energy              =    -723.24409427 Ry
     estimated scf accuracy    <       0.15045513 Ry

     iteration # 11     ecut=    50.00 Ry     beta= 0.30
     Davidson diagonalization with overlap

---- Real-time Memory Report at c_bands before calling an iterative solver
           112 MiB given to the printing process from OS
             0 MiB allocation reported by mallinfo(arena+hblkhd)
         56348 MiB available memory on the node where the printing process lives
------------------
     ethr =  1.80E-04,  avg # of iterations =  1.6

     total cpu time spent up to now is      118.4 secs

     total energy              =    -723.21974448 Ry
     estimated scf accuracy    <       0.06371550 Ry

     iteration # 12     ecut=    50.00 Ry     beta= 0.30
     Davidson diagonalization with overlap

---- Real-time Memory Report at c_bands before calling an iterative solver
           112 MiB given to the printing process from OS
             0 MiB allocation reported by mallinfo(arena+hblkhd)
         56340 MiB available memory on the node where the printing process lives
------------------
     ethr =  8.85E-05,  avg # of iterations =  6.2

     total cpu time spent up to now is      131.6 secs

     total energy              =    -723.26251745 Ry
     estimated scf accuracy    <       0.02854779 Ry

     iteration # 13     ecut=    50.00 Ry     beta= 0.30
     Davidson diagonalization with overlap

---- Real-time Memory Report at c_bands before calling an iterative solver
           112 MiB given to the printing process from OS
             0 MiB allocation reported by mallinfo(arena+hblkhd)
         56340 MiB available memory on the node where the printing process lives
------------------
     ethr =  3.96E-05,  avg # of iterations =  1.5

     total cpu time spent up to now is      138.7 secs

     total energy              =    -723.26235956 Ry
     estimated scf accuracy    <       0.01550394 Ry

     iteration # 14     ecut=    50.00 Ry     beta= 0.30
     Davidson diagonalization with overlap

---- Real-time Memory Report at c_bands before calling an iterative solver
           112 MiB given to the printing process from OS
             0 MiB allocation reported by mallinfo(arena+hblkhd)
         56340 MiB available memory on the node where the printing process lives
------------------
     ethr =  2.15E-05,  avg # of iterations =  1.1

     total cpu time spent up to now is      145.4 secs

     total energy              =    -723.25979812 Ry
     estimated scf accuracy    <       0.01142884 Ry

     iteration # 15     ecut=    50.00 Ry     beta= 0.30
     Davidson diagonalization with overlap

---- Real-time Memory Report at c_bands before calling an iterative solver
           112 MiB given to the printing process from OS
             0 MiB allocation reported by mallinfo(arena+hblkhd)
         56340 MiB available memory on the node where the printing process lives
------------------
     ethr =  1.59E-05,  avg # of iterations =  2.2

     total cpu time spent up to now is      152.8 secs

     total energy              =    -723.25817939 Ry
     estimated scf accuracy    <       0.00456742 Ry

     iteration # 16     ecut=    50.00 Ry     beta= 0.30
     Davidson diagonalization with overlap

---- Real-time Memory Report at c_bands before calling an iterative solver
           112 MiB given to the printing process from OS
             0 MiB allocation reported by mallinfo(arena+hblkhd)
         56340 MiB available memory on the node where the printing process lives
------------------
     ethr =  6.34E-06,  avg # of iterations =  6.1

     total cpu time spent up to now is      166.3 secs

     total energy              =    -723.26465184 Ry
     estimated scf accuracy    <       0.00343241 Ry

     iteration # 17     ecut=    50.00 Ry     beta= 0.30
     Davidson diagonalization with overlap

---- Real-time Memory Report at c_bands before calling an iterative solver
           112 MiB given to the printing process from OS
             0 MiB allocation reported by mallinfo(arena+hblkhd)
         56342 MiB available memory on the node where the printing process lives
------------------
     ethr =  4.77E-06,  avg # of iterations =  3.9

     total cpu time spent up to now is      175.6 secs

     total energy              =    -723.26579645 Ry
     estimated scf accuracy    <       0.00985885 Ry

     iteration # 18     ecut=    50.00 Ry     beta= 0.30
     Davidson diagonalization with overlap

---- Real-time Memory Report at c_bands before calling an iterative solver
           112 MiB given to the printing process from OS
             0 MiB allocation reported by mallinfo(arena+hblkhd)
         56342 MiB available memory on the node where the printing process lives
------------------
     ethr =  4.77E-06,  avg # of iterations =  2.0

     total cpu time spent up to now is      183.2 secs

     total energy              =    -723.26457292 Ry
     estimated scf accuracy    <       0.01261141 Ry

     iteration # 19     ecut=    50.00 Ry     beta= 0.30
     Davidson diagonalization with overlap

---- Real-time Memory Report at c_bands before calling an iterative solver
           112 MiB given to the printing process from OS
             0 MiB allocation reported by mallinfo(arena+hblkhd)
         56342 MiB available memory on the node where the printing process lives
------------------
     ethr =  4.77E-06,  avg # of iterations =  1.0

     total cpu time spent up to now is      189.9 secs

     total energy              =    -723.26259072 Ry
     estimated scf accuracy    <       0.01087576 Ry

     iteration # 20     ecut=    50.00 Ry     beta= 0.30
     Davidson diagonalization with overlap

---- Real-time Memory Report at c_bands before calling an iterative solver
           112 MiB given to the printing process from OS
             0 MiB allocation reported by mallinfo(arena+hblkhd)
         56342 MiB available memory on the node where the printing process lives
------------------
     ethr =  4.77E-06,  avg # of iterations =  1.2

     total cpu time spent up to now is      196.7 secs

     total energy              =    -723.26429530 Ry
     estimated scf accuracy    <       0.00704571 Ry

     iteration # 21     ecut=    50.00 Ry     beta= 0.30
     Davidson diagonalization with overlap

---- Real-time Memory Report at c_bands before calling an iterative solver
           112 MiB given to the printing process from OS
             0 MiB allocation reported by mallinfo(arena+hblkhd)
         56343 MiB available memory on the node where the printing process lives
------------------
     ethr =  4.77E-06,  avg # of iterations =  1.0

     total cpu time spent up to now is      203.3 secs

     total energy              =    -723.26374713 Ry
     estimated scf accuracy    <       0.00982205 Ry

     iteration # 22     ecut=    50.00 Ry     beta= 0.30
     Davidson diagonalization with overlap

---- Real-time Memory Report at c_bands before calling an iterative solver
           112 MiB given to the printing process from OS
             0 MiB allocation reported by mallinfo(arena+hblkhd)
         56343 MiB available memory on the node where the printing process lives
------------------
     ethr =  4.77E-06,  avg # of iterations =  1.0

     total cpu time spent up to now is      210.0 secs

     total energy              =    -723.26248110 Ry
     estimated scf accuracy    <       0.00875330 Ry

     iteration # 23     ecut=    50.00 Ry     beta= 0.30
     Davidson diagonalization with overlap

---- Real-time Memory Report at c_bands before calling an iterative solver
           112 MiB given to the printing process from OS
             0 MiB allocation reported by mallinfo(arena+hblkhd)
         56343 MiB available memory on the node where the printing process lives
------------------
     ethr =  4.77E-06,  avg # of iterations =  1.6

     total cpu time spent up to now is      217.1 secs

     total energy              =    -723.26294274 Ry
     estimated scf accuracy    <       0.00563543 Ry

     iteration # 24     ecut=    50.00 Ry     beta= 0.30
     Davidson diagonalization with overlap

---- Real-time Memory Report at c_bands before calling an iterative solver
           112 MiB given to the printing process from OS
             0 MiB allocation reported by mallinfo(arena+hblkhd)
         56343 MiB available memory on the node where the printing process lives
------------------
     ethr =  4.77E-06,  avg # of iterations =  1.0

     total cpu time spent up to now is      223.7 secs

     total energy              =    -723.26167957 Ry
     estimated scf accuracy    <       0.00608477 Ry

     iteration # 25     ecut=    50.00 Ry     beta= 0.30
     Davidson diagonalization with overlap

---- Real-time Memory Report at c_bands before calling an iterative solver
           112 MiB given to the printing process from OS
             0 MiB allocation reported by mallinfo(arena+hblkhd)
         56343 MiB available memory on the node where the printing process lives
------------------
     ethr =  4.77E-06,  avg # of iterations =  1.0

     total cpu time spent up to now is      230.4 secs

     total energy              =    -723.26675771 Ry
     estimated scf accuracy    <       0.00353933 Ry

     iteration # 26     ecut=    50.00 Ry     beta= 0.30
     Davidson diagonalization with overlap

---- Real-time Memory Report at c_bands before calling an iterative solver
           112 MiB given to the printing process from OS
             0 MiB allocation reported by mallinfo(arena+hblkhd)
         56343 MiB available memory on the node where the printing process lives
------------------
     ethr =  4.77E-06,  avg # of iterations =  4.4

     total cpu time spent up to now is      241.7 secs

     total energy              =    -723.25652289 Ry
     estimated scf accuracy    <       0.02558911 Ry

     iteration # 27     ecut=    50.00 Ry     beta= 0.30
     Davidson diagonalization with overlap

---- Real-time Memory Report at c_bands before calling an iterative solver
           112 MiB given to the printing process from OS
             0 MiB allocation reported by mallinfo(arena+hblkhd)
         56343 MiB available memory on the node where the printing process lives
------------------
     ethr =  4.77E-06,  avg # of iterations =  7.9

     total cpu time spent up to now is      259.3 secs

     total energy              =    -723.26186109 Ry
     estimated scf accuracy    <       0.00013174 Ry

     iteration # 28     ecut=    50.00 Ry     beta= 0.30
     Davidson diagonalization with overlap

---- Real-time Memory Report at c_bands before calling an iterative solver
           112 MiB given to the printing process from OS
             0 MiB allocation reported by mallinfo(arena+hblkhd)
         56344 MiB available memory on the node where the printing process lives
------------------
     ethr =  1.83E-07,  avg # of iterations = 10.2

     total cpu time spent up to now is      282.7 secs

     total energy              =    -723.26276074 Ry
     estimated scf accuracy    <       0.00381812 Ry

     iteration # 29     ecut=    50.00 Ry     beta= 0.30
     Davidson diagonalization with overlap

---- Real-time Memory Report at c_bands before calling an iterative solver
           112 MiB given to the printing process from OS
             0 MiB allocation reported by mallinfo(arena+hblkhd)
         56345 MiB available memory on the node where the printing process lives
------------------
     ethr =  1.83E-07,  avg # of iterations =  1.3

     total cpu time spent up to now is      289.6 secs

     total energy              =    -723.26254540 Ry
     estimated scf accuracy    <       0.00391876 Ry

     iteration # 30     ecut=    50.00 Ry     beta= 0.30
     Davidson diagonalization with overlap

---- Real-time Memory Report at c_bands before calling an iterative solver
           112 MiB given to the printing process from OS
             0 MiB allocation reported by mallinfo(arena+hblkhd)
         56346 MiB available memory on the node where the printing process lives
------------------
     ethr =  1.83E-07,  avg # of iterations =  1.1

     total cpu time spent up to now is      296.3 secs

     total energy              =    -723.26194002 Ry
     estimated scf accuracy    <       0.00350791 Ry

     iteration # 31     ecut=    50.00 Ry     beta= 0.30
     Davidson diagonalization with overlap

---- Real-time Memory Report at c_bands before calling an iterative solver
           112 MiB given to the printing process from OS
             0 MiB allocation reported by mallinfo(arena+hblkhd)
         56346 MiB available memory on the node where the printing process lives
------------------
     ethr =  1.83E-07,  avg # of iterations =  6.5

     total cpu time spent up to now is      311.3 secs

     total energy              =    -723.26195162 Ry
     estimated scf accuracy    <       0.00132276 Ry

     iteration # 32     ecut=    50.00 Ry     beta= 0.30
     Davidson diagonalization with overlap

---- Real-time Memory Report at c_bands before calling an iterative solver
           112 MiB given to the printing process from OS
             0 MiB allocation reported by mallinfo(arena+hblkhd)
         56346 MiB available memory on the node where the printing process lives
------------------
     ethr =  1.83E-07,  avg # of iterations =  1.8

     total cpu time spent up to now is      318.4 secs

     total energy              =    -723.26137836 Ry
     estimated scf accuracy    <       0.00108689 Ry

     iteration # 33     ecut=    50.00 Ry     beta= 0.30
     Davidson diagonalization with overlap

---- Real-time Memory Report at c_bands before calling an iterative solver
           112 MiB given to the printing process from OS
             0 MiB allocation reported by mallinfo(arena+hblkhd)
         56346 MiB available memory on the node where the printing process lives
------------------
     ethr =  1.83E-07,  avg # of iterations =  9.8

     total cpu time spent up to now is      339.2 secs

     total energy              =    -723.26163417 Ry
     estimated scf accuracy    <       0.00024553 Ry

     iteration # 34     ecut=    50.00 Ry     beta= 0.30
     Davidson diagonalization with overlap

---- Real-time Memory Report at c_bands before calling an iterative solver
           112 MiB given to the printing process from OS
             0 MiB allocation reported by mallinfo(arena+hblkhd)
         56346 MiB available memory on the node where the printing process lives
------------------
     ethr =  1.83E-07,  avg # of iterations = 10.7

     total cpu time spent up to now is      361.9 secs

     total energy              =    -723.26153673 Ry
     estimated scf accuracy    <       0.00198675 Ry

     iteration # 35     ecut=    50.00 Ry     beta= 0.30
     Davidson diagonalization with overlap

---- Real-time Memory Report at c_bands before calling an iterative solver
           112 MiB given to the printing process from OS
             0 MiB allocation reported by mallinfo(arena+hblkhd)
         56346 MiB available memory on the node where the printing process lives
------------------
     ethr =  1.83E-07,  avg # of iterations =  8.6

     total cpu time spent up to now is      380.1 secs

     total energy              =    -723.26170017 Ry
     estimated scf accuracy    <       0.00009475 Ry

     iteration # 36     ecut=    50.00 Ry     beta= 0.30
     Davidson diagonalization with overlap

---- Real-time Memory Report at c_bands before calling an iterative solver
           112 MiB given to the printing process from OS
             0 MiB allocation reported by mallinfo(arena+hblkhd)
         56347 MiB available memory on the node where the printing process lives
------------------
     ethr =  1.32E-07,  avg # of iterations =  6.6

     total cpu time spent up to now is      394.7 secs

     total energy              =    -723.26173280 Ry
     estimated scf accuracy    <       0.00009008 Ry

     iteration # 37     ecut=    50.00 Ry     beta= 0.30
     Davidson diagonalization with overlap

---- Real-time Memory Report at c_bands before calling an iterative solver
           112 MiB given to the printing process from OS
             0 MiB allocation reported by mallinfo(arena+hblkhd)
         56347 MiB available memory on the node where the printing process lives
------------------
     ethr =  1.25E-07,  avg # of iterations =  2.1

     total cpu time spent up to now is      402.4 secs

     total energy              =    -723.26173167 Ry
     estimated scf accuracy    <       0.00001596 Ry

     iteration # 38     ecut=    50.00 Ry     beta= 0.30
     Davidson diagonalization with overlap

---- Real-time Memory Report at c_bands before calling an iterative solver
           112 MiB given to the printing process from OS
             0 MiB allocation reported by mallinfo(arena+hblkhd)
         56347 MiB available memory on the node where the printing process lives
------------------
     ethr =  2.22E-08,  avg # of iterations =  7.4

     total cpu time spent up to now is      419.0 secs

     total energy              =    -723.26174894 Ry
     estimated scf accuracy    <       0.00003457 Ry

     iteration # 39     ecut=    50.00 Ry     beta= 0.30
     Davidson diagonalization with overlap

---- Real-time Memory Report at c_bands before calling an iterative solver
           112 MiB given to the printing process from OS
             0 MiB allocation reported by mallinfo(arena+hblkhd)
         56347 MiB available memory on the node where the printing process lives
------------------
     ethr =  2.22E-08,  avg # of iterations =  2.1

     total cpu time spent up to now is      426.7 secs

     total energy              =    -723.26174909 Ry
     estimated scf accuracy    <       0.00001339 Ry

     iteration # 40     ecut=    50.00 Ry     beta= 0.30
     Davidson diagonalization with overlap

---- Real-time Memory Report at c_bands before calling an iterative solver
           112 MiB given to the printing process from OS
             0 MiB allocation reported by mallinfo(arena+hblkhd)
         56347 MiB available memory on the node where the printing process lives
------------------
     ethr =  1.86E-08,  avg # of iterations =  2.2

     total cpu time spent up to now is      434.7 secs

     total energy              =    -723.26174898 Ry
     estimated scf accuracy    <       0.00000675 Ry

     iteration # 41     ecut=    50.00 Ry     beta= 0.30
     Davidson diagonalization with overlap

---- Real-time Memory Report at c_bands before calling an iterative solver
           112 MiB given to the printing process from OS
             0 MiB allocation reported by mallinfo(arena+hblkhd)
         56347 MiB available memory on the node where the printing process lives
------------------
     ethr =  9.37E-09,  avg # of iterations =  5.3

     total cpu time spent up to now is      445.2 secs

     total energy              =    -723.26175073 Ry
     estimated scf accuracy    <       0.00000033 Ry

     iteration # 42     ecut=    50.00 Ry     beta= 0.30
     Davidson diagonalization with overlap

---- Real-time Memory Report at c_bands before calling an iterative solver
           112 MiB given to the printing process from OS
             0 MiB allocation reported by mallinfo(arena+hblkhd)
         56347 MiB available memory on the node where the printing process lives
------------------
     ethr =  4.52E-10,  avg # of iterations =  8.1

     total cpu time spent up to now is      463.1 secs

     total energy              =    -723.26175107 Ry
     estimated scf accuracy    <       0.00000072 Ry

     iteration # 43     ecut=    50.00 Ry     beta= 0.30
     Davidson diagonalization with overlap

---- Real-time Memory Report at c_bands before calling an iterative solver
           112 MiB given to the printing process from OS
             0 MiB allocation reported by mallinfo(arena+hblkhd)
         56348 MiB available memory on the node where the printing process lives
------------------
     ethr =  4.52E-10,  avg # of iterations =  2.5

     total cpu time spent up to now is      471.3 secs

     total energy              =    -723.26175101 Ry
     estimated scf accuracy    <       0.00000023 Ry

     iteration # 44     ecut=    50.00 Ry     beta= 0.30
     Davidson diagonalization with overlap

---- Real-time Memory Report at c_bands before calling an iterative solver
           112 MiB given to the printing process from OS
             0 MiB allocation reported by mallinfo(arena+hblkhd)
         56348 MiB available memory on the node where the printing process lives
------------------
     ethr =  3.21E-10,  avg # of iterations =  5.8

     total cpu time spent up to now is      484.9 secs

     total energy              =    -723.26175114 Ry
     estimated scf accuracy    <       0.00000008 Ry

     iteration # 45     ecut=    50.00 Ry     beta= 0.30
     Davidson diagonalization with overlap

---- Real-time Memory Report at c_bands before calling an iterative solver
           112 MiB given to the printing process from OS
             0 MiB allocation reported by mallinfo(arena+hblkhd)
         56348 MiB available memory on the node where the printing process lives
------------------
     ethr =  1.17E-10,  avg # of iterations =  1.8

     total cpu time spent up to now is      492.2 secs

     total energy              =    -723.26175112 Ry
     estimated scf accuracy    <       0.00000004 Ry

     iteration # 46     ecut=    50.00 Ry     beta= 0.30
     Davidson diagonalization with overlap

---- Real-time Memory Report at c_bands before calling an iterative solver
           112 MiB given to the printing process from OS
             0 MiB allocation reported by mallinfo(arena+hblkhd)
         56348 MiB available memory on the node where the printing process lives
------------------
     ethr =  5.14E-11,  avg # of iterations =  5.8

     total cpu time spent up to now is      506.0 secs

     total energy              =    -723.26175115 Ry
     estimated scf accuracy    <       0.00000002 Ry

     iteration # 47     ecut=    50.00 Ry     beta= 0.30
     Davidson diagonalization with overlap

---- Real-time Memory Report at c_bands before calling an iterative solver
           112 MiB given to the printing process from OS
             0 MiB allocation reported by mallinfo(arena+hblkhd)
         56348 MiB available memory on the node where the printing process lives
------------------
     ethr =  2.81E-11,  avg # of iterations =  1.4

     total cpu time spent up to now is      512.9 secs

     total energy              =    -723.26175114 Ry
     estimated scf accuracy    <       0.00000002 Ry

     iteration # 48     ecut=    50.00 Ry     beta= 0.30
     Davidson diagonalization with overlap

---- Real-time Memory Report at c_bands before calling an iterative solver
           112 MiB given to the printing process from OS
             0 MiB allocation reported by mallinfo(arena+hblkhd)
         56348 MiB available memory on the node where the printing process lives
------------------
     ethr =  2.81E-11,  avg # of iterations =  2.0

     total cpu time spent up to now is      520.3 secs

     End of self-consistent calculation

          k = 0.0000 0.0000 0.0000 (  4143 PWs)   bands (ev):

   -11.3589 -10.8013 -10.6797 -10.5893   0.6445   0.7408   0.7410   0.8756
     0.8758   0.8887   0.9417   1.0156   1.2756   1.3166   1.4126   1.4635
     1.6864   1.6864   1.7674   1.8152   1.8899   1.8899   1.9297   1.9708
     2.1655   2.5491   2.7285   3.5860   3.9517   5.0186   5.2547   5.3198
     5.3201   6.0125   6.0481   6.0484

     occupation numbers 
     1.0000   1.0000   1.0000   1.0000   1.0000   1.0000   1.0000   1.0000
     1.0000   1.0000   1.0000   1.0000   1.0000   1.0000   1.0000   1.0000
     1.0000   1.0000   1.0000   1.0000   1.0000   1.0000   1.0000   1.0000
     1.0000   1.0000   1.0000   1.0000   1.0000   1.0000   1.0000   1.0000
     1.0000   1.0000   1.0000   1.0000

          k = 0.0000 0.0000 0.1098 (  4148 PWs)   bands (ev):

   -11.3149 -10.7844 -10.7265 -10.6005   0.6020   0.7421   0.7423   0.7863
     0.8586   0.8587   0.8904   1.0360   1.0425   1.2675   1.3792   1.4126
     1.7068   1.7069   1.8192   1.8204   1.8831   1.8831   1.9126   1.9714
     2.5005   2.5625   2.6779   3.9031   4.0534   5.1448   5.1755   5.3709
     5.3712   5.4543   6.0019   6.0023

     occupation numbers 
     1.0000   1.0000   1.0000   1.0000   1.0000   1.0000   1.0000   1.0000
     1.0000   1.0000   1.0000   1.0000   1.0000   1.0000   1.0000   1.0000
     1.0000   1.0000   1.0000   1.0000   1.0000   1.0000   1.0000   1.0000
     1.0000   1.0000   1.0000   1.0000   1.0000   1.0000   1.0000   1.0000
     1.0000   1.0000   1.0000   1.0000

          k = 0.0000 0.0000 0.2197 (  4172 PWs)   bands (ev):

   -11.1935 -10.8537 -10.7401 -10.6337   0.5133   0.5877   0.7513   0.7515
     0.7816   0.7904   0.8182   0.8184   1.0945   1.2315   1.2921   1.3162
     1.7578   1.7578   1.8305   1.8598   1.8598   1.8788   1.8942   1.9650
     2.4770   2.5881   3.2710   4.3145   4.5346   4.7279   4.9557   5.2809
     5.5088   5.5091   5.8735   5.8739

     occupation numbers 
     1.0000   1.0000   1.0000   1.0000   1.0000   1.0000   1.0000   1.0000
     1.0000   1.0000   1.0000   1.0000   1.0000   1.0000   1.0000   1.0000
     1.0000   1.0000   1.0000   1.0000   1.0000   1.0000   1.0000   1.0000
     1.0000   1.0000   1.0000   1.0000   1.0000   1.0000   1.0000   1.0000
     1.0000   1.0000   1.0000   1.0000

          k = 0.0000 0.0000-0.3295 (  4194 PWs)   bands (ev):

   -11.0251 -11.0251 -10.6841 -10.6841   0.4817   0.4817   0.7153   0.7153
     0.7772   0.7772   0.7773   0.7773   1.1859   1.1859   1.2485   1.2485
     1.8156   1.8156   1.8156   1.8156   1.8501   1.8501   1.9418   1.9418
     2.5149   2.5149   4.0094   4.0094   4.6447   4.6447   5.0810   5.0810
     5.6936   5.6936   5.6939   5.6939

     occupation numbers 
     1.0000   1.0000   1.0000   1.0000   1.0000   1.0000   1.0000   1.0000
     1.0000   1.0000   1.0000   1.0000   1.0000   1.0000   1.0000   1.0000
     1.0000   1.0000   1.0000   1.0000   1.0000   1.0000   1.0000   1.0000
     1.0000   1.0000   1.0000   1.0000   1.0000   1.0000   1.0000   1.0000
     1.0000   1.0000   1.0000   1.0000

          k = 0.0000 0.0962 0.0000 (  4153 PWs)   bands (ev):

   -11.3280 -10.8538 -10.6687 -10.5817   0.6162   0.7116   0.7630   0.8756
     0.8804   0.9039   0.9626   1.0035   1.2731   1.2851   1.3659   1.4788
     1.6747   1.6835   1.7166   1.7885   1.8935   1.9274   1.9494   2.0644
     2.1625   2.4659   2.9533   3.5814   4.0537   5.0857   5.1394   5.2307
     5.3133   5.5625   5.9716   6.0007

     occupation numbers 
     1.0000   1.0000   1.0000   1.0000   1.0000   1.0000   1.0000   1.0000
     1.0000   1.0000   1.0000   1.0000   1.0000   1.0000   1.0000   1.0000
     1.0000   1.0000   1.0000   1.0000   1.0000   1.0000   1.0000   1.0000
     1.0000   1.0000   1.0000   1.0000   1.0000   1.0000   1.0000   1.0000
     1.0000   1.0000   1.0000   1.0000

          k = 0.0000 0.0962 0.1098 (  4169 PWs)   bands (ev):

   -11.2850 -10.8333 -10.7139 -10.5973   0.5777   0.7046   0.7648   0.7890
     0.8457   0.8863   0.9191   1.0216   1.0670   1.2203   1.3345   1.3995
     1.6982   1.7040   1.7549   1.7948   1.8860   1.9052   1.9113   2.0360
     2.4874   2.5873   2.9534   3.8445   4.1503   5.1272   5.2361   5.2426
     5.2476   5.2846   5.9436   5.9518

     occupation numbers 
     1.0000   1.0000   1.0000   1.0000   1.0000   1.0000   1.0000   1.0000
     1.0000   1.0000   1.0000   1.0000   1.0000   1.0000   1.0000   1.0000
     1.0000   1.0000   1.0000   1.0000   1.0000   1.0000   1.0000   1.0000
     1.0000   1.0000   1.0000   1.0000   1.0000   1.0000   1.0000   1.0000
     1.0000   1.0000   1.0000   1.0000

          k = 0.0000 0.0962 0.2197 (  4176 PWs)   bands (ev):

   -11.1668 -10.8369 -10.7786 -10.6420   0.4990   0.5950   0.6776   0.7297
     0.7753   0.8449   0.8460   0.8832   1.0744   1.1756   1.2543   1.2715
     1.7553   1.7553   1.8129   1.8375   1.8605   1.8703   1.8766   1.9824
     2.5752   2.8422   3.2883   4.4004   4.4777   4.6287   5.0220   5.3209
     5.3309   5.4305   5.7864   5.8160

     occupation numbers 
     1.0000   1.0000   1.0000   1.0000   1.0000   1.0000   1.0000   1.0000
     1.0000   1.0000   1.0000   1.0000   1.0000   1.0000   1.0000   1.0000
     1.0000   1.0000   1.0000   1.0000   1.0000   1.0000   1.0000   1.0000
     1.0000   1.0000   1.0000   1.0000   1.0000   1.0000   1.0000   1.0000
     1.0000   1.0000   1.0000   1.0000

          k = 0.0000 0.0962-0.3295 (  4188 PWs)   bands (ev):

   -11.0030 -11.0030 -10.7078 -10.7078   0.4799   0.4799   0.6539   0.6539
     0.8026   0.8026   0.8339   0.8339   1.1575   1.1575   1.1932   1.1932
     1.8142   1.8142   1.8193   1.8193   1.8413   1.8413   1.9167   1.9167
     2.7018   2.7018   3.9878   3.9878   4.7197   4.7197   5.0682   5.0682
     5.5527   5.5527   5.6258   5.6258

     occupation numbers 
     1.0000   1.0000   1.0000   1.0000   1.0000   1.0000   1.0000   1.0000
     1.0000   1.0000   1.0000   1.0000   1.0000   1.0000   1.0000   1.0000
     1.0000   1.0000   1.0000   1.0000   1.0000   1.0000   1.0000   1.0000
     1.0000   1.0000   1.0000   1.0000   1.0000   1.0000   1.0000   1.0000
     1.0000   1.0000   1.0000   1.0000

          k = 0.0000 0.1925 0.0000 (  4157 PWs)   bands (ev):

   -11.2410 -10.9741 -10.6402 -10.5833   0.5791   0.6471   0.8227   0.8712
     0.8732   0.9644   0.9841   1.0176   1.1869   1.2477   1.3257   1.4936
     1.6130   1.6441   1.6821   1.7359   1.9022   1.9210   2.0922   2.0996
     2.1775   2.5454   3.2056   3.8510   4.3180   4.4819   4.9454   4.9888
     5.3953   5.4689   5.8504   5.8657

     occupation numbers 
     1.0000   1.0000   1.0000   1.0000   1.0000   1.0000   1.0000   1.0000
     1.0000   1.0000   1.0000   1.0000   1.0000   1.0000   1.0000   1.0000
     1.0000   1.0000   1.0000   1.0000   1.0000   1.0000   1.0000   1.0000
     1.0000   1.0000   1.0000   1.0000   1.0000   1.0000   1.0000   1.0000
     1.0000   1.0000   1.0000   1.0000

          k = 0.0000 0.1925 0.1098 (  4163 PWs)   bands (ev):

   -11.2013 -10.9463 -10.6807 -10.6075   0.5494   0.6307   0.7940   0.8218
     0.8262   0.9653   0.9773   0.9789   1.1310   1.1359   1.2213   1.3351
     1.6747   1.6779   1.7020   1.7480   1.8927   1.9067   1.9569   2.0396
     2.6636   2.7206   3.3457   3.8938   4.4031   4.5262   4.8019   5.0506
     5.3971   5.4613   5.8100   5.8314

     occupation numbers 
     1.0000   1.0000   1.0000   1.0000   1.0000   1.0000   1.0000   1.0000
     1.0000   1.0000   1.0000   1.0000   1.0000   1.0000   1.0000   1.0000
     1.0000   1.0000   1.0000   1.0000   1.0000   1.0000   1.0000   1.0000
     1.0000   1.0000   1.0000   1.0000   1.0000   1.0000   1.0000   1.0000
     1.0000   1.0000   1.0000   1.0000

          k = 0.0000 0.1925 0.2197 (  4169 PWs)   bands (ev):

   -11.0922 -10.8715 -10.7914 -10.6755   0.4889   0.5881   0.6075   0.6699
     0.8410   0.9182   0.9205   0.9636   1.0161   1.0788   1.1557   1.1660
     1.7515   1.7524   1.7796   1.7804   1.8625   1.8707   1.8982   1.9666
     2.9258   3.3051   3.3132   4.3112   4.4038   4.6275   4.8974   5.1984
     5.2172   5.4295   5.6390   5.6555

     occupation numbers 
     1.0000   1.0000   1.0000   1.0000   1.0000   1.0000   1.0000   1.0000
     1.0000   1.0000   1.0000   1.0000   1.0000   1.0000   1.0000   1.0000
     1.0000   1.0000   1.0000   1.0000   1.0000   1.0000   1.0000   1.0000
     1.0000   1.0000   1.0000   1.0000   1.0000   1.0000   1.0000   1.0000
     1.0000   1.0000   1.0000   1.0000

          k = 0.0000 0.1925-0.3295 (  4176 PWs)   bands (ev):

   -10.9422 -10.9422 -10.7718 -10.7718   0.4846   0.4846   0.5747   0.5747
     0.8732   0.8732   0.9095   0.9095   1.0791   1.0791   1.0874   1.0874
     1.8124   1.8124   1.8246   1.8246   1.8316   1.8316   1.8813   1.8813
     3.1189   3.1189   3.8725   3.8725   4.9190   4.9190   5.0487   5.0487
     5.2707   5.2707   5.4394   5.4394

     occupation numbers 
     1.0000   1.0000   1.0000   1.0000   1.0000   1.0000   1.0000   1.0000
     1.0000   1.0000   1.0000   1.0000   1.0000   1.0000   1.0000   1.0000
     1.0000   1.0000   1.0000   1.0000   1.0000   1.0000   1.0000   1.0000
     1.0000   1.0000   1.0000   1.0000   1.0000   1.0000   1.0000   1.0000
     1.0000   1.0000   1.0000   1.0000

          k = 0.0000-0.2887 0.0000 (  4130 PWs)   bands (ev):

   -11.1144 -11.1144 -10.6064 -10.6064   0.5902   0.5902   0.8701   0.8702
     0.8990   0.8990   1.0962   1.0962   1.1066   1.1066   1.4115   1.4115
     1.6059   1.6059   1.6965   1.6965   1.9122   1.9122   2.1120   2.1120
     2.3760   2.3760   3.7722   3.7722   4.3660   4.3660   4.6585   4.6585
     5.6522   5.6522   5.6722   5.6722

     occupation numbers 
     1.0000   1.0000   1.0000   1.0000   1.0000   1.0000   1.0000   1.0000
     1.0000   1.0000   1.0000   1.0000   1.0000   1.0000   1.0000   1.0000
     1.0000   1.0000   1.0000   1.0000   1.0000   1.0000   1.0000   1.0000
     1.0000   1.0000   1.0000   1.0000   1.0000   1.0000   1.0000   1.0000
     1.0000   1.0000   1.0000   1.0000

          k = 0.0000-0.2887 0.1098 (  4142 PWs)   bands (ev):

   -11.0799 -11.0799 -10.6396 -10.6396   0.5676   0.5676   0.8037   0.8037
     0.9061   0.9061   1.0531   1.0531   1.0848   1.0848   1.2269   1.2269
     1.6598   1.6598   1.7137   1.7137   1.9001   1.9001   2.0075   2.0075
     2.7646   2.7647   3.8628   3.8628   4.2901   4.2901   4.7312   4.7312
     5.6081   5.6081   5.6705   5.6705

     occupation numbers 
     1.0000   1.0000   1.0000   1.0000   1.0000   1.0000   1.0000   1.0000
     1.0000   1.0000   1.0000   1.0000   1.0000   1.0000   1.0000   1.0000
     1.0000   1.0000   1.0000   1.0000   1.0000   1.0000   1.0000   1.0000
     1.0000   1.0000   1.0000   1.0000   1.0000   1.0000   1.0000   1.0000
     1.0000   1.0000   1.0000   1.0000

          k = 0.0000-0.2887 0.2197 (  4162 PWs)   bands (ev):

   -10.9858 -10.9858 -10.7312 -10.7312   0.5180   0.5180   0.6293   0.6293
     0.9301   0.9301   0.9931   0.9931   1.0322   1.0323   1.0562   1.0562
     1.7557   1.7557   1.7582   1.7582   1.8656   1.8656   1.9338   1.9338
     3.2350   3.2350   3.8254   3.8254   4.5166   4.5166   4.9255   4.9255
     5.4307   5.4307   5.5278   5.5278

     occupation numbers 
     1.0000   1.0000   1.0000   1.0000   1.0000   1.0000   1.0000   1.0000
     1.0000   1.0000   1.0000   1.0000   1.0000   1.0000   1.0000   1.0000
     1.0000   1.0000   1.0000   1.0000   1.0000   1.0000   1.0000   1.0000
     1.0000   1.0000   1.0000   1.0000   1.0000   1.0000   1.0000   1.0000
     1.0000   1.0000   1.0000   1.0000

          k = 0.0000-0.2887-0.3295 (  4168 PWs)   bands (ev):

   -10.8579 -10.8579 -10.8579 -10.8578   0.5142   0.5142   0.5142   0.5142
     0.9742   0.9742   0.9742   0.9742   0.9909   0.9909   0.9909   0.9909
     1.8142   1.8142   1.8142   1.8142   1.8528   1.8528   1.8528   1.8528
     3.5672   3.5672   3.5672   3.5672   5.0861   5.0861   5.0861   5.0861
     5.1822   5.1822   5.1822   5.1823

     occupation numbers 
     1.0000   1.0000   1.0000   1.0000   1.0000   1.0000   1.0000   1.0000
     1.0000   1.0000   1.0000   1.0000   1.0000   1.0000   1.0000   1.0000
     1.0000   1.0000   1.0000   1.0000   1.0000   1.0000   1.0000   1.0000
     1.0000   1.0000   1.0000   1.0000   1.0000   1.0000   1.0000   1.0000
     1.0000   1.0000   1.0000   1.0000

          k = 0.1667 0.0962 0.0000 (  4152 PWs)   bands (ev):

   -11.2410 -10.8072 -10.6402 -10.5855   0.6472   0.7347   0.8225   0.8733
     0.9346   0.9840   1.0176   1.0754   1.2059   1.3257   1.4543   1.5326
     1.6441   1.6671   1.6821   1.7663   1.9022   1.9344   2.0842   2.0922
     2.1775   2.4710   2.9897   3.4091   3.8101   4.4821   4.9083   4.9455
     4.9886   5.0483   5.8504   5.8654

     occupation numbers 
     1.0000   1.0000   1.0000   1.0000   1.0000   1.0000   1.0000   1.0000
     1.0000   1.0000   1.0000   1.0000   1.0000   1.0000   1.0000   1.0000
     1.0000   1.0000   1.0000   1.0000   1.0000   1.0000   1.0000   1.0000
     1.0000   1.0000   1.0000   1.0000   1.0000   1.0000   1.0000   1.0000
     1.0000   1.0000   1.0000   1.0000

          k = 0.1667 0.0962 0.1098 (  4160 PWs)   bands (ev):

   -11.2013 -10.7898 -10.6807 -10.5975   0.6308   0.6991   0.8219   0.8260
     0.8907   0.9652   0.9790   1.0264   1.1311   1.1758   1.3923   1.4152
     1.6779   1.7020   1.7118   1.8014   1.8927   1.9264   1.9569   2.0753
     2.5014   2.6636   2.9685   3.5134   4.0711   4.5264   4.8020   4.8313
     5.0504   5.1630   5.8097   5.8314

     occupation numbers 
     1.0000   1.0000   1.0000   1.0000   1.0000   1.0000   1.0000   1.0000
     1.0000   1.0000   1.0000   1.0000   1.0000   1.0000   1.0000   1.0000
     1.0000   1.0000   1.0000   1.0000   1.0000   1.0000   1.0000   1.0000
     1.0000   1.0000   1.0000   1.0000   1.0000   1.0000   1.0000   1.0000
     1.0000   1.0000   1.0000   1.0000

          k = 0.1667 0.0962 0.2197 (  4171 PWs)   bands (ev):

   -11.0922 -10.7914 -10.7438 -10.6325   0.5882   0.6160   0.6699   0.7067
     0.8408   0.9182   0.9204   0.9636   1.0409   1.1511   1.2474   1.3010
     1.7515   1.7524   1.7856   1.8192   1.8625   1.8982   1.9358   2.0380
     2.5961   2.8550   3.3132   3.8081   4.3113   4.5125   4.7102   4.8976
     5.2170   5.3200   5.6391   5.6553

     occupation numbers 
     1.0000   1.0000   1.0000   1.0000   1.0000   1.0000   1.0000   1.0000
     1.0000   1.0000   1.0000   1.0000   1.0000   1.0000   1.0000   1.0000
     1.0000   1.0000   1.0000   1.0000   1.0000   1.0000   1.0000   1.0000
     1.0000   1.0000   1.0000   1.0000   1.0000   1.0000   1.0000   1.0000
     1.0000   1.0000   1.0000   1.0000

          k = 0.1667 0.0962-0.3295 (  4170 PWs)   bands (ev):

   -10.9422 -10.9422 -10.6854 -10.6854   0.5748   0.5748   0.5900   0.5900
     0.8731   0.8731   0.9096   0.9096   1.1092   1.1092   1.2170   1.2170
     1.8124   1.8124   1.8161   1.8161   1.8316   1.8316   1.9838   1.9838
     2.7210   2.7210   3.8725   3.8725   4.1848   4.1848   5.1711   5.1711
     5.2709   5.2709   5.4391   5.4391

     occupation numbers 
     1.0000   1.0000   1.0000   1.0000   1.0000   1.0000   1.0000   1.0000
     1.0000   1.0000   1.0000   1.0000   1.0000   1.0000   1.0000   1.0000
     1.0000   1.0000   1.0000   1.0000   1.0000   1.0000   1.0000   1.0000
     1.0000   1.0000   1.0000   1.0000   1.0000   1.0000   1.0000   1.0000
     1.0000   1.0000   1.0000   1.0000

          k = 0.1667 0.1925 0.0000 (  4141 PWs)   bands (ev):

   -11.1621 -10.9194 -10.6179 -10.5786   0.6231   0.6909   0.8412   0.8499
     0.8989   1.0132   1.0342   1.1008   1.1311   1.3536   1.3736   1.4937
     1.6069   1.6250   1.6838   1.7422   1.9080   1.9253   2.1161   2.1211
     2.2954   2.5619   3.3162   3.6489   3.9141   4.1140   4.4296   4.8280
     5.1499   5.3008   5.6998   5.7360

     occupation numbers 
     1.0000   1.0000   1.0000   1.0000   1.0000   1.0000   1.0000   1.0000
     1.0000   1.0000   1.0000   1.0000   1.0000   1.0000   1.0000   1.0000
     1.0000   1.0000   1.0000   1.0000   1.0000   1.0000   1.0000   1.0000
     1.0000   1.0000   1.0000   1.0000   1.0000   1.0000   1.0000   1.0000
     1.0000   1.0000   1.0000   1.0000

          k = 0.1667 0.1925 0.1098 (  4153 PWs)   bands (ev):

   -11.1255 -10.8946 -10.6539 -10.5992   0.6025   0.6556   0.8000   0.8103
     0.8839   0.9828   1.0145   1.0710   1.0969   1.1870   1.3024   1.3243
     1.6666   1.6687   1.7056   1.7732   1.8970   1.9128   1.9928   2.0692
     2.7056   2.7341   3.3440   3.8549   3.9697   4.1794   4.3921   4.8388
     5.0626   5.3921   5.6353   5.7457

     occupation numbers 
     1.0000   1.0000   1.0000   1.0000   1.0000   1.0000   1.0000   1.0000
     1.0000   1.0000   1.0000   1.0000   1.0000   1.0000   1.0000   1.0000
     1.0000   1.0000   1.0000   1.0000   1.0000   1.0000   1.0000   1.0000
     1.0000   1.0000   1.0000   1.0000   1.0000   1.0000   1.0000   1.0000
     1.0000   1.0000   1.0000   1.0000

          k = 0.1667 0.1925 0.2197 (  4163 PWs)   bands (ev):

   -11.0255 -10.8283 -10.7529 -10.6573   0.5532   0.5774   0.6438   0.6639
     0.8898   0.9322   1.0062   1.0117   1.0244   1.0590   1.1460   1.2293
     1.7532   1.7546   1.7750   1.8040   1.8642   1.8902   1.9224   1.9964
     2.8924   3.2368   3.2928   4.0293   4.1399   4.4904   4.6487   4.8424
     4.9817   5.4337   5.4596   5.5886

     occupation numbers 
     1.0000   1.0000   1.0000   1.0000   1.0000   1.0000   1.0000   1.0000
     1.0000   1.0000   1.0000   1.0000   1.0000   1.0000   1.0000   1.0000
     1.0000   1.0000   1.0000   1.0000   1.0000   1.0000   1.0000   1.0000
     1.0000   1.0000   1.0000   1.0000   1.0000   1.0000   1.0000   1.0000
     1.0000   1.0000   1.0000   1.0000

          k = 0.1667 0.1925-0.3295 (  4156 PWs)   bands (ev):

   -10.8890 -10.8890 -10.7407 -10.7407   0.5411   0.5411   0.5554   0.5554
     0.9084   0.9084   0.9806   0.9806   1.0273   1.0273   1.1485   1.1485
     1.8119   1.8119   1.8245   1.8245   1.8464   1.8464   1.9169   1.9169
     3.0673   3.0673   3.7118   3.7118   4.4622   4.4622   5.1325   5.1325
     5.1438   5.1438   5.2477   5.2477

     occupation numbers 
     1.0000   1.0000   1.0000   1.0000   1.0000   1.0000   1.0000   1.0000
     1.0000   1.0000   1.0000   1.0000   1.0000   1.0000   1.0000   1.0000
     1.0000   1.0000   1.0000   1.0000   1.0000   1.0000   1.0000   1.0000
     1.0000   1.0000   1.0000   1.0000   1.0000   1.0000   1.0000   1.0000
     1.0000   1.0000   1.0000   1.0000

          k = 0.1667 0.2887 0.0000 (  4142 PWs)   bands (ev):

   -11.0473 -11.0473 -10.5927 -10.5927   0.6366   0.6366   0.8331   0.8331
     0.9758   0.9758   1.0465   1.0465   1.2254   1.2254   1.4365   1.4365
     1.6095   1.6095   1.7009   1.7009   1.9156   1.9156   2.1108   2.1108
     2.4897   2.4897   3.7673   3.7674   3.8549   3.8549   4.4316   4.4317
     5.4300   5.4300   5.5517   5.5517

     occupation numbers 
     1.0000   1.0000   1.0000   1.0000   1.0000   1.0000   1.0000   1.0000
     1.0000   1.0000   1.0000   1.0000   1.0000   1.0000   1.0000   1.0000
     1.0000   1.0000   1.0000   1.0000   1.0000   1.0000   1.0000   1.0000
     1.0000   1.0000   1.0000   1.0000   1.0000   1.0000   1.0000   1.0000
     1.0000   1.0000   1.0000   1.0000

          k = 0.1667 0.2887 0.1098 (  4148 PWs)   bands (ev):

   -11.0159 -11.0159 -10.6218 -10.6218   0.6097   0.6097   0.7892   0.7892
     0.9637   0.9637   1.0106   1.0106   1.1927   1.1927   1.2517   1.2517
     1.6603   1.6603   1.7280   1.7280   1.9032   1.9032   2.0320   2.0320
     2.8002   2.8002   3.8117   3.8117   3.9514   3.9514   4.4380   4.4380
     5.3544   5.3544   5.5998   5.5998

     occupation numbers 
     1.0000   1.0000   1.0000   1.0000   1.0000   1.0000   1.0000   1.0000
     1.0000   1.0000   1.0000   1.0000   1.0000   1.0000   1.0000   1.0000
     1.0000   1.0000   1.0000   1.0000   1.0000   1.0000   1.0000   1.0000
     1.0000   1.0000   1.0000   1.0000   1.0000   1.0000   1.0000   1.0000
     1.0000   1.0000   1.0000   1.0000

          k = 0.1667 0.2887 0.2197 (  4164 PWs)   bands (ev):

   -10.9305 -10.9305 -10.7026 -10.7025   0.5481   0.5481   0.6386   0.6386
     0.9580   0.9580   0.9621   0.9621   1.0867   1.0867   1.1269   1.1269
     1.7619   1.7619   1.7703   1.7703   1.8705   1.8705   1.9567   1.9567
     3.1670   3.1670   3.6515   3.6515   4.4816   4.4816   4.5820   4.5820
     5.1509   5.1509   5.5253   5.5253

     occupation numbers 
     1.0000   1.0000   1.0000   1.0000   1.0000   1.0000   1.0000   1.0000
     1.0000   1.0000   1.0000   1.0000   1.0000   1.0000   1.0000   1.0000
     1.0000   1.0000   1.0000   1.0000   1.0000   1.0000   1.0000   1.0000
     1.0000   1.0000   1.0000   1.0000   1.0000   1.0000   1.0000   1.0000
     1.0000   1.0000   1.0000   1.0000

          k = 0.1667 0.2887-0.3295 (  4160 PWs)   bands (ev):

   -10.8154 -10.8154 -10.8154 -10.8153   0.5323   0.5323   0.5323   0.5323
     0.9532   0.9532   0.9532   0.9532   1.0713   1.0713   1.0713   1.0713
     1.8162   1.8162   1.8162   1.8162   1.8734   1.8734   1.8734   1.8734
     3.4293   3.4293   3.4293   3.4293   4.8369   4.8369   4.8369   4.8369
     5.1372   5.1372   5.1372   5.1372

     occupation numbers 
     1.0000   1.0000   1.0000   1.0000   1.0000   1.0000   1.0000   1.0000
     1.0000   1.0000   1.0000   1.0000   1.0000   1.0000   1.0000   1.0000
     1.0000   1.0000   1.0000   1.0000   1.0000   1.0000   1.0000   1.0000
     1.0000   1.0000   1.0000   1.0000   1.0000   1.0000   1.0000   1.0000
     1.0000   1.0000   1.0000   1.0000

          k = 0.1667 0.0000 0.0000 (  4167 PWs)   bands (ev):

   -11.2690 -10.7553 -10.6490 -10.5986   0.6713   0.7455   0.7966   0.8805
     0.9453   0.9855   1.0072   1.1238   1.2245   1.3109   1.4938   1.5378
     1.6553   1.6799   1.7425   1.7614   1.8991   1.9429   1.9531   2.0555
     2.1644   2.5626   2.7990   3.1937   3.9566   4.7260   4.7637   4.9097
     4.9497   5.2089   5.8920   5.8922

     occupation numbers 
     1.0000   1.0000   1.0000   1.0000   1.0000   1.0000   1.0000   1.0000
     1.0000   1.0000   1.0000   1.0000   1.0000   1.0000   1.0000   1.0000
     1.0000   1.0000   1.0000   1.0000   1.0000   1.0000   1.0000   1.0000
     1.0000   1.0000   1.0000   1.0000   1.0000   1.0000   1.0000   1.0000
     1.0000   1.0000   1.0000   1.0000

          k = 0.1667 0.0000 0.1098 (  4165 PWs)   bands (ev):

   -11.2282 -10.7420 -10.6910 -10.6060   0.6573   0.7124   0.7914   0.8428
     0.9214   0.9729   0.9736   0.9953   1.1108   1.2191   1.4366   1.4489
     1.6846   1.7011   1.7772   1.7866   1.8905   1.9423   1.9670   1.9675
     2.5212   2.6386   2.7435   3.3517   4.2140   4.7206   4.8032   4.8056
     5.0461   5.1560   5.8380   5.8720

     occupation numbers 
     1.0000   1.0000   1.0000   1.0000   1.0000   1.0000   1.0000   1.0000
     1.0000   1.0000   1.0000   1.0000   1.0000   1.0000   1.0000   1.0000
     1.0000   1.0000   1.0000   1.0000   1.0000   1.0000   1.0000   1.0000
     1.0000   1.0000   1.0000   1.0000   1.0000   1.0000   1.0000   1.0000
     1.0000   1.0000   1.0000   1.0000

          k = 0.1667 0.0000 0.2197 (  4163 PWs)   bands (ev):

   -11.1161 -10.8057 -10.7074 -10.6286   0.6171   0.6320   0.6818   0.7300
     0.8209   0.8721   0.9186   0.9414   1.0441   1.2074   1.3124   1.3272
     1.7525   1.7525   1.7953   1.8010   1.8618   1.8899   2.0096   2.0119
     2.5090   2.6439   3.3106   3.6862   4.4223   4.4613   4.7547   5.0277
     5.2541   5.2700   5.6884   5.6889

     occupation numbers 
     1.0000   1.0000   1.0000   1.0000   1.0000   1.0000   1.0000   1.0000
     1.0000   1.0000   1.0000   1.0000   1.0000   1.0000   1.0000   1.0000
     1.0000   1.0000   1.0000   1.0000   1.0000   1.0000   1.0000   1.0000
     1.0000   1.0000   1.0000   1.0000   1.0000   1.0000   1.0000   1.0000
     1.0000   1.0000   1.0000   1.0000

          k = 0.1667 0.0000-0.3295 (  4166 PWs)   bands (ev):

   -10.9616 -10.9616 -10.6650 -10.6650   0.5971   0.5971   0.6061   0.6061
     0.8426   0.8426   0.8949   0.8949   1.1377   1.1377   1.2661   1.2661
     1.8004   1.8004   1.8123   1.8123   1.8282   1.8282   2.0297   2.0297
     2.5592   2.5592   3.9205   3.9205   4.0839   4.0839   5.1840   5.1840
     5.3546   5.3546   5.4846   5.4846

     occupation numbers 
     1.0000   1.0000   1.0000   1.0000   1.0000   1.0000   1.0000   1.0000
     1.0000   1.0000   1.0000   1.0000   1.0000   1.0000   1.0000   1.0000
     1.0000   1.0000   1.0000   1.0000   1.0000   1.0000   1.0000   1.0000
     1.0000   1.0000   1.0000   1.0000   1.0000   1.0000   1.0000   1.0000
     1.0000   1.0000   1.0000   1.0000

          k = 0.3333 0.1925 0.0000 (  4155 PWs)   bands (ev):

   -10.9741 -10.8072 -10.5855 -10.5833   0.5792   0.7348   0.8713   0.9344
     0.9643   1.0755   1.1869   1.2059   1.2476   1.4543   1.4936   1.5326
     1.6131   1.6672   1.7359   1.7663   1.9210   1.9344   2.0842   2.0996
     2.4711   2.5455   2.9898   3.2057   3.4091   3.8100   3.8511   4.3178
     4.9081   5.0483   5.3953   5.4686

     occupation numbers 
     1.0000   1.0000   1.0000   1.0000   1.0000   1.0000   1.0000   1.0000
     1.0000   1.0000   1.0000   1.0000   1.0000   1.0000   1.0000   1.0000
     1.0000   1.0000   1.0000   1.0000   1.0000   1.0000   1.0000   1.0000
     1.0000   1.0000   1.0000   1.0000   1.0000   1.0000   1.0000   1.0000
     1.0000   1.0000   1.0000   1.0000

          k = 0.3333 0.1925 0.1098 (  4167 PWs)   bands (ev):

   -10.9464 -10.7898 -10.6075 -10.5975   0.5495   0.6991   0.7940   0.8907
     0.9771   1.0264   1.1359   1.1758   1.2211   1.3352   1.3922   1.4152
     1.6747   1.7119   1.7480   1.8014   1.9067   1.9264   2.0396   2.0753
     2.5015   2.7207   2.9685   3.3458   3.5133   3.8939   4.0711   4.4029
     4.8312   5.1630   5.3968   5.4613

     occupation numbers 
     1.0000   1.0000   1.0000   1.0000   1.0000   1.0000   1.0000   1.0000
     1.0000   1.0000   1.0000   1.0000   1.0000   1.0000   1.0000   1.0000
     1.0000   1.0000   1.0000   1.0000   1.0000   1.0000   1.0000   1.0000
     1.0000   1.0000   1.0000   1.0000   1.0000   1.0000   1.0000   1.0000
     1.0000   1.0000   1.0000   1.0000

          k = 0.3333 0.1925 0.2197 (  4168 PWs)   bands (ev):

   -10.8715 -10.7438 -10.6755 -10.6325   0.4890   0.6075   0.6160   0.7067
     1.0160   1.0408   1.0788   1.1511   1.1556   1.1660   1.2473   1.3010
     1.7797   1.7804   1.7856   1.8192   1.8707   1.9358   1.9666   2.0381
     2.5962   2.8551   2.9259   3.3052   3.8080   4.4039   4.5124   4.6272
     4.7102   5.1981   5.3200   5.4295

     occupation numbers 
     1.0000   1.0000   1.0000   1.0000   1.0000   1.0000   1.0000   1.0000
     1.0000   1.0000   1.0000   1.0000   1.0000   1.0000   1.0000   1.0000
     1.0000   1.0000   1.0000   1.0000   1.0000   1.0000   1.0000   1.0000
     1.0000   1.0000   1.0000   1.0000   1.0000   1.0000   1.0000   1.0000
     1.0000   1.0000   1.0000   1.0000

          k = 0.3333 0.1925-0.3295 (  4170 PWs)   bands (ev):

   -10.7718 -10.7718 -10.6854 -10.6854   0.4846   0.4846   0.5901   0.5901
     1.0790   1.0790   1.0875   1.0875   1.1091   1.1091   1.2170   1.2170
     1.8161   1.8161   1.8247   1.8247   1.8813   1.8813   1.9838   1.9838
     2.7210   2.7210   3.1190   3.1190   4.1847   4.1847   4.9187   4.9188
     5.0488   5.0488   5.1711   5.1711

     occupation numbers 
     1.0000   1.0000   1.0000   1.0000   1.0000   1.0000   1.0000   1.0000
     1.0000   1.0000   1.0000   1.0000   1.0000   1.0000   1.0000   1.0000
     1.0000   1.0000   1.0000   1.0000   1.0000   1.0000   1.0000   1.0000
     1.0000   1.0000   1.0000   1.0000   1.0000   1.0000   1.0000   1.0000
     1.0000   1.0000   1.0000   1.0000

          k = 0.3333 0.2887 0.0000 (  4148 PWs)   bands (ev):

   -10.8957 -10.8957 -10.5792 -10.5792   0.6272   0.6272   0.8986   0.8986
     0.9835   0.9835   1.2060   1.2060   1.3491   1.3491   1.4990   1.4990
     1.6516   1.6516   1.7618   1.7618   1.9260   1.9260   2.1025   2.1025
     2.5149   2.5149   3.0959   3.0959   3.6579   3.6579   4.0252   4.0252
     5.2229   5.2229   5.2877   5.2877

     occupation numbers 
     1.0000   1.0000   1.0000   1.0000   1.0000   1.0000   1.0000   1.0000
     1.0000   1.0000   1.0000   1.0000   1.0000   1.0000   1.0000   1.0000
     1.0000   1.0000   1.0000   1.0000   1.0000   1.0000   1.0000   1.0000
     1.0000   1.0000   1.0000   1.0000   1.0000   1.0000   1.0000   1.0000
     1.0000   1.0000   1.0000   1.0000

          k = 0.3333 0.2887 0.1098 (  4158 PWs)   bands (ev):

   -10.8724 -10.8724 -10.5980 -10.5980   0.5923   0.5923   0.8179   0.8179
     0.9948   0.9948   1.1637   1.1637   1.3088   1.3088   1.3726   1.3726
     1.6975   1.6975   1.7806   1.7806   1.9119   1.9119   2.0572   2.0572
     2.5966   2.5966   3.1586   3.1586   3.8249   3.8249   4.1321   4.1321
     5.1843   5.1843   5.3411   5.3411

     occupation numbers 
     1.0000   1.0000   1.0000   1.0000   1.0000   1.0000   1.0000   1.0000
     1.0000   1.0000   1.0000   1.0000   1.0000   1.0000   1.0000   1.0000
     1.0000   1.0000   1.0000   1.0000   1.0000   1.0000   1.0000   1.0000
[...]
     1.7553   1.7553   1.8129   1.8375   1.8605   1.8703   1.8766   1.9824
     2.5752   2.8422   3.2883   4.4004   4.4777   4.6287   5.0220   5.3209
     5.3309   5.4305   5.7864   5.8160

     occupation numbers 
     1.0000   1.0000   1.0000   1.0000   1.0000   1.0000   1.0000   1.0000
     1.0000   1.0000   1.0000   1.0000   1.0000   1.0000   1.0000   1.0000
     1.0000   1.0000   1.0000   1.0000   1.0000   1.0000   1.0000   1.0000
     1.0000   1.0000   1.0000   1.0000   1.0000   1.0000   1.0000   1.0000
     1.0000   1.0000   1.0000   1.0000

          k = 0.0000 0.1925-0.1098 (  4163 PWs)   bands (ev):

   -11.2013 -10.9463 -10.6807 -10.6075   0.5494   0.6307   0.7940   0.8219
     0.8262   0.9653   0.9773   0.9789   1.1310   1.1359   1.2213   1.3351
     1.6747   1.6779   1.7020   1.7480   1.8927   1.9067   1.9569   2.0396
     2.6636   2.7206   3.3457   3.8938   4.4031   4.5262   4.8019   5.0506
     5.3971   5.4613   5.8100   5.8314

     occupation numbers 
     1.0000   1.0000   1.0000   1.0000   1.0000   1.0000   1.0000   1.0000
     1.0000   1.0000   1.0000   1.0000   1.0000   1.0000   1.0000   1.0000
     1.0000   1.0000   1.0000   1.0000   1.0000   1.0000   1.0000   1.0000
     1.0000   1.0000   1.0000   1.0000   1.0000   1.0000   1.0000   1.0000
     1.0000   1.0000   1.0000   1.0000

          k = 0.0000 0.1925-0.2197 (  4169 PWs)   bands (ev):

   -11.0922 -10.8715 -10.7914 -10.6755   0.4889   0.5881   0.6075   0.6699
     0.8410   0.9182   0.9205   0.9636   1.0161   1.0788   1.1557   1.1660
     1.7515   1.7524   1.7796   1.7804   1.8625   1.8707   1.8982   1.9666
     2.9258   3.3051   3.3132   4.3112   4.4038   4.6275   4.8974   5.1984
     5.2172   5.4295   5.6390   5.6555

     occupation numbers 
     1.0000   1.0000   1.0000   1.0000   1.0000   1.0000   1.0000   1.0000
     1.0000   1.0000   1.0000   1.0000   1.0000   1.0000   1.0000   1.0000
     1.0000   1.0000   1.0000   1.0000   1.0000   1.0000   1.0000   1.0000
     1.0000   1.0000   1.0000   1.0000   1.0000   1.0000   1.0000   1.0000
     1.0000   1.0000   1.0000   1.0000

          k =-0.1667 0.0962-0.1098 (  4160 PWs)   bands (ev):

   -11.2013 -10.7898 -10.6807 -10.5975   0.6308   0.6991   0.8219   0.8260
     0.8907   0.9652   0.9790   1.0264   1.1311   1.1758   1.3923   1.4152
     1.6779   1.7020   1.7118   1.8014   1.8927   1.9264   1.9569   2.0753
     2.5014   2.6636   2.9685   3.5134   4.0711   4.5264   4.8020   4.8313
     5.0504   5.1630   5.8097   5.8314

     occupation numbers 
     1.0000   1.0000   1.0000   1.0000   1.0000   1.0000   1.0000   1.0000
     1.0000   1.0000   1.0000   1.0000   1.0000   1.0000   1.0000   1.0000
     1.0000   1.0000   1.0000   1.0000   1.0000   1.0000   1.0000   1.0000
     1.0000   1.0000   1.0000   1.0000   1.0000   1.0000   1.0000   1.0000
     1.0000   1.0000   1.0000   1.0000

          k =-0.1667 0.0962-0.2197 (  4171 PWs)   bands (ev):

   -11.0922 -10.7914 -10.7438 -10.6325   0.5882   0.6160   0.6699   0.7067
     0.8408   0.9182   0.9204   0.9636   1.0409   1.1511   1.2474   1.3010
     1.7515   1.7524   1.7856   1.8192   1.8625   1.8982   1.9358   2.0380
     2.5961   2.8550   3.3132   3.8081   4.3113   4.5125   4.7102   4.8976
     5.2170   5.3200   5.6391   5.6553

     occupation numbers 
     1.0000   1.0000   1.0000   1.0000   1.0000   1.0000   1.0000   1.0000
     1.0000   1.0000   1.0000   1.0000   1.0000   1.0000   1.0000   1.0000
     1.0000   1.0000   1.0000   1.0000   1.0000   1.0000   1.0000   1.0000
     1.0000   1.0000   1.0000   1.0000   1.0000   1.0000   1.0000   1.0000
     1.0000   1.0000   1.0000   1.0000

          k =-0.1667 0.1925-0.1098 (  4153 PWs)   bands (ev):

   -11.1255 -10.8946 -10.6539 -10.5992   0.6025   0.6556   0.8000   0.8103
     0.8839   0.9828   1.0145   1.0710   1.0969   1.1870   1.3024   1.3243
     1.6666   1.6687   1.7056   1.7732   1.8970   1.9128   1.9928   2.0692
     2.7056   2.7341   3.3440   3.8549   3.9697   4.1794   4.3921   4.8388
     5.0626   5.3921   5.6353   5.7457

     occupation numbers 
     1.0000   1.0000   1.0000   1.0000   1.0000   1.0000   1.0000   1.0000
     1.0000   1.0000   1.0000   1.0000   1.0000   1.0000   1.0000   1.0000
     1.0000   1.0000   1.0000   1.0000   1.0000   1.0000   1.0000   1.0000
     1.0000   1.0000   1.0000   1.0000   1.0000   1.0000   1.0000   1.0000
     1.0000   1.0000   1.0000   1.0000

          k =-0.1667 0.1925-0.2197 (  4163 PWs)   bands (ev):

   -11.0255 -10.8283 -10.7529 -10.6573   0.5532   0.5774   0.6438   0.6639
     0.8898   0.9322   1.0062   1.0117   1.0244   1.0590   1.1460   1.2293
     1.7532   1.7546   1.7750   1.8040   1.8642   1.8902   1.9224   1.9964
     2.8924   3.2368   3.2928   4.0293   4.1399   4.4904   4.6487   4.8424
     4.9817   5.4337   5.4596   5.5886

     occupation numbers 
     1.0000   1.0000   1.0000   1.0000   1.0000   1.0000   1.0000   1.0000
     1.0000   1.0000   1.0000   1.0000   1.0000   1.0000   1.0000   1.0000
     1.0000   1.0000   1.0000   1.0000   1.0000   1.0000   1.0000   1.0000
     1.0000   1.0000   1.0000   1.0000   1.0000   1.0000   1.0000   1.0000
     1.0000   1.0000   1.0000   1.0000

          k =-0.3333 0.1925-0.1098 (  4167 PWs)   bands (ev):

   -10.9464 -10.7898 -10.6075 -10.5975   0.5495   0.6991   0.7940   0.8907
     0.9771   1.0264   1.1359   1.1758   1.2211   1.3352   1.3922   1.4152
     1.6747   1.7119   1.7480   1.8014   1.9067   1.9264   2.0396   2.0753
     2.5015   2.7207   2.9685   3.3458   3.5133   3.8939   4.0711   4.4029
     4.8312   5.1630   5.3968   5.4613

     occupation numbers 
     1.0000   1.0000   1.0000   1.0000   1.0000   1.0000   1.0000   1.0000
     1.0000   1.0000   1.0000   1.0000   1.0000   1.0000   1.0000   1.0000
     1.0000   1.0000   1.0000   1.0000   1.0000   1.0000   1.0000   1.0000
     1.0000   1.0000   1.0000   1.0000   1.0000   1.0000   1.0000   1.0000
     1.0000   1.0000   1.0000   1.0000

          k =-0.3333 0.1925-0.2197 (  4168 PWs)   bands (ev):

   -10.8715 -10.7438 -10.6755 -10.6325   0.4890   0.6075   0.6160   0.7067
     1.0160   1.0408   1.0788   1.1511   1.1556   1.1660   1.2473   1.3010
     1.7797   1.7804   1.7856   1.8192   1.8707   1.9358   1.9666   2.0381
     2.5962   2.8551   2.9259   3.3052   3.8080   4.4039   4.5124   4.6272
     4.7102   5.1981   5.3200   5.4295

     occupation numbers 
     1.0000   1.0000   1.0000   1.0000   1.0000   1.0000   1.0000   1.0000
     1.0000   1.0000   1.0000   1.0000   1.0000   1.0000   1.0000   1.0000
     1.0000   1.0000   1.0000   1.0000   1.0000   1.0000   1.0000   1.0000
     1.0000   1.0000   1.0000   1.0000   1.0000   1.0000   1.0000   1.0000
     1.0000   1.0000   1.0000   1.0000

          k =-0.3333-0.0962-0.1098 (  4164 PWs)   bands (ev):

   -10.9976 -10.7127 -10.6176 -10.6139   0.5751   0.8037   0.8145   0.9374
     0.9450   1.0535   1.0732   1.1899   1.2815   1.2927   1.4598   1.4705
     1.6606   1.7159   1.7332   1.7805   1.9044   1.9463   2.0332   2.0421
     2.5379   2.7857   2.7865   2.9914   3.5894   4.0048   4.3088   4.4457
     4.5064   4.9211   5.3992   5.5613

     occupation numbers 
     1.0000   1.0000   1.0000   1.0000   1.0000   1.0000   1.0000   1.0000
     1.0000   1.0000   1.0000   1.0000   1.0000   1.0000   1.0000   1.0000
     1.0000   1.0000   1.0000   1.0000   1.0000   1.0000   1.0000   1.0000
     1.0000   1.0000   1.0000   1.0000   1.0000   1.0000   1.0000   1.0000
     1.0000   1.0000   1.0000   1.0000

          k =-0.3333-0.0962-0.2197 (  4164 PWs)   bands (ev):

   -10.9149 -10.6951 -10.6857 -10.6285   0.5172   0.6280   0.7428   0.8065
     0.9652   0.9988   1.0255   1.0977   1.1354   1.1981   1.3259   1.3442
     1.7433   1.7642   1.7733   1.7784   1.8702   1.9584   2.0206   2.0940
     2.5609   2.7134   3.0967   3.3198   3.5405   4.1667   4.4233   4.6556
     4.8561   5.1969   5.1981   5.4947

     occupation numbers 
     1.0000   1.0000   1.0000   1.0000   1.0000   1.0000   1.0000   1.0000
     1.0000   1.0000   1.0000   1.0000   1.0000   1.0000   1.0000   1.0000
     1.0000   1.0000   1.0000   1.0000   1.0000   1.0000   1.0000   1.0000
     1.0000   1.0000   1.0000   1.0000   1.0000   1.0000   1.0000   1.0000
     1.0000   1.0000   1.0000   1.0000

          k = 0.5000-0.1925-0.1098 (  4172 PWs)   bands (ev):

   -10.7862 -10.7862 -10.5995 -10.5995   0.6258   0.6258   0.8365   0.8365
     1.0205   1.0205   1.2310   1.2310   1.3891   1.3891   1.4187   1.4187
     1.7798   1.7798   1.8118   1.8118   1.9214   1.9214   2.0054   2.0054
     2.4745   2.4745   2.7908   2.7908   3.7606   3.7606   4.0823   4.0823
     5.0373   5.0373   5.1728   5.1728

     occupation numbers 
     1.0000   1.0000   1.0000   1.0000   1.0000   1.0000   1.0000   1.0000
     1.0000   1.0000   1.0000   1.0000   1.0000   1.0000   1.0000   1.0000
     1.0000   1.0000   1.0000   1.0000   1.0000   1.0000   1.0000   1.0000
     1.0000   1.0000   1.0000   1.0000   1.0000   1.0000   1.0000   1.0000
     1.0000   1.0000   1.0000   1.0000

          k = 0.5000-0.1925-0.2197 (  4164 PWs)   bands (ev):

   -10.7413 -10.7413 -10.6333 -10.6333   0.5409   0.5409   0.6283   0.6283
     1.0770   1.0770   1.2060   1.2060   1.2855   1.2855   1.3075   1.3075
     1.8176   1.8176   1.8401   1.8401   1.9212   1.9212   1.9917   1.9917
     2.4970   2.4970   2.6817   2.6817   4.1195   4.1195   4.6109   4.6109
     4.8218   4.8218   5.3010   5.3010

     occupation numbers 
     1.0000   1.0000   1.0000   1.0000   1.0000   1.0000   1.0000   1.0000
     1.0000   1.0000   1.0000   1.0000   1.0000   1.0000   1.0000   1.0000
     1.0000   1.0000   1.0000   1.0000   1.0000   1.0000   1.0000   1.0000
     1.0000   1.0000   1.0000   1.0000   1.0000   1.0000   1.0000   1.0000
     1.0000   1.0000   1.0000   1.0000

          k = 0.5000-0.0962-0.1098 (  4164 PWs)   bands (ev):

   -10.7898 -10.7898 -10.5975 -10.5975   0.6991   0.6991   0.8908   0.8908
     1.0263   1.0263   1.1758   1.1758   1.3922   1.3922   1.4152   1.4152
     1.7119   1.7119   1.8014   1.8014   1.9264   1.9264   2.0753   2.0753
     2.5015   2.5015   2.9686   2.9686   3.5132   3.5132   4.0711   4.0711
     4.8311   4.8311   5.1630   5.1630

     occupation numbers 
     1.0000   1.0000   1.0000   1.0000   1.0000   1.0000   1.0000   1.0000
     1.0000   1.0000   1.0000   1.0000   1.0000   1.0000   1.0000   1.0000
     1.0000   1.0000   1.0000   1.0000   1.0000   1.0000   1.0000   1.0000
     1.0000   1.0000   1.0000   1.0000   1.0000   1.0000   1.0000   1.0000
     1.0000   1.0000   1.0000   1.0000

          k = 0.5000-0.0962-0.2197 (  4170 PWs)   bands (ev):

   -10.7438 -10.7438 -10.6325 -10.6325   0.6160   0.6160   0.7068   0.7068
     1.0408   1.0408   1.1511   1.1511   1.2474   1.2474   1.3009   1.3009
     1.7856   1.7856   1.8192   1.8192   1.9359   1.9359   2.0381   2.0381
     2.5962   2.5962   2.8551   2.8551   3.8079   3.8079   4.5124   4.5124
     4.7102   4.7102   5.3200   5.3200

     occupation numbers 
     1.0000   1.0000   1.0000   1.0000   1.0000   1.0000   1.0000   1.0000
     1.0000   1.0000   1.0000   1.0000   1.0000   1.0000   1.0000   1.0000
     1.0000   1.0000   1.0000   1.0000   1.0000   1.0000   1.0000   1.0000
     1.0000   1.0000   1.0000   1.0000   1.0000   1.0000   1.0000   1.0000
     1.0000   1.0000   1.0000   1.0000

     highest occupied level (ev):     6.0484

!    total energy              =    -723.26175113 Ry
     estimated scf accuracy    <          5.9E-09 Ry

     The total energy is the sum of the following terms:
     one-electron contribution =    -321.93134303 Ry
     hartree contribution      =     241.21297328 Ry
     xc contribution           =    -218.86336504 Ry
     ewald contribution        =    -423.68001634 Ry

     convergence has been achieved in  48 iterations

     Forces acting on atoms (cartesian axes, Ry/au):

     atom    1 type  1   force =     0.00000000    0.00000379   -0.00134315
     atom    2 type  2   force =     0.00000000    0.00000751    0.00134306
     atom    3 type  1   force =     0.00000000    0.00000508   -0.00134301
     atom    4 type  2   force =     0.00000000   -0.00000438    0.00134284
     atom    5 type  1   force =     0.00000000   -0.00000288   -0.00134138
     atom    6 type  2   force =     0.00000000    0.00000533    0.00134181
     atom    7 type  1   force =     0.00000000   -0.00000683   -0.00134354
     atom    8 type  2   force =     0.00000000   -0.00000762    0.00134337
     The non-local contrib.  to forces
     atom    1 type  1   force =     0.00000000   -0.00000836    0.09544504
     atom    2 type  2   force =     0.00000000    0.00019934    0.07447593
     atom    3 type  1   force =     0.00000000    0.00001684    0.09544301
     atom    4 type  2   force =     0.00000000   -0.00020163    0.07447480
     atom    5 type  1   force =     0.00000000   -0.00001289    0.09544458
     atom    6 type  2   force =     0.00000000    0.00020423    0.07447450
     atom    7 type  1   force =     0.00000000    0.00000462    0.09544337
     atom    8 type  2   force =     0.00000000   -0.00020069    0.07447624
     The ionic contribution  to forces
     atom    1 type  1   force =    -0.00000000   -0.00000000    0.59859470
     atom    2 type  2   force =     0.00000000    0.00000000   -0.59859470
     atom    3 type  1   force =     0.00000000    0.00000000    0.59859470
     atom    4 type  2   force =    -0.00000000   -0.00000000   -0.59859470
     atom    5 type  1   force =     0.00000000   -0.00000000    0.59859470
     atom    6 type  2   force =    -0.00000000    0.00000000   -0.59859470
     atom    7 type  1   force =     0.00000000    0.00000000    0.59859470
     atom    8 type  2   force =     0.00000000   -0.00000000   -0.59859470
     The local contribution  to forces
     atom    1 type  1   force =    -0.00000000    0.00000700   -0.68934401
     atom    2 type  2   force =     0.00000000   -0.00019332    0.52606213
     atom    3 type  1   force =     0.00000000   -0.00003323   -0.68933554
     atom    4 type  2   force =    -0.00000000    0.00019514    0.52606295
     atom    5 type  1   force =    -0.00000000    0.00002617   -0.68933977
     atom    6 type  2   force =     0.00000000   -0.00019293    0.52606044
     atom    7 type  1   force =     0.00000000   -0.00000036   -0.68933832
     atom    8 type  2   force =    -0.00000000    0.00019180    0.52606229
     The core correction contribution to forces
     atom    1 type  1   force =    -0.00000009   -0.00000587   -0.00604414
     atom    2 type  2   force =     0.00000001   -0.00000224   -0.00060057
     atom    3 type  1   force =     0.00000009    0.00000667   -0.00604463
     atom    4 type  2   force =    -0.00000001    0.00000227   -0.00060055
     atom    5 type  1   force =     0.00000008   -0.00000669   -0.00604455
     atom    6 type  2   force =    -0.00000000   -0.00000233   -0.00060055
     atom    7 type  1   force =    -0.00000008    0.00000589   -0.00604442
     atom    8 type  2   force =     0.00000000    0.00000229   -0.00060057
     The Hubbard contrib.    to forces
     atom    1 type  1   force =     0.00000000    0.00000000    0.00000000
     atom    2 type  2   force =     0.00000000    0.00000000    0.00000000
     atom    3 type  1   force =     0.00000000    0.00000000    0.00000000
     atom    4 type  2   force =     0.00000000    0.00000000    0.00000000
     atom    5 type  1   force =     0.00000000    0.00000000    0.00000000
     atom    6 type  2   force =     0.00000000    0.00000000    0.00000000
     atom    7 type  1   force =     0.00000000    0.00000000    0.00000000
     atom    8 type  2   force =     0.00000000    0.00000000    0.00000000
     The SCF correction term to forces
     atom    1 type  1   force =    -0.00000000    0.00001118    0.00000398
     atom    2 type  2   force =    -0.00000000    0.00000388   -0.00000100
     atom    3 type  1   force =     0.00000000    0.00001496   -0.00000183
     atom    4 type  2   force =     0.00000000   -0.00000000   -0.00000092
     atom    5 type  1   force =    -0.00000000   -0.00000931    0.00000239
     atom    6 type  2   force =    -0.00000000   -0.00000348    0.00000086
     atom    7 type  1   force =     0.00000000   -0.00001683   -0.00000016
     atom    8 type  2   force =     0.00000000   -0.00000086   -0.00000116

     Total force =     0.003798     Total SCF correction =     0.000028

     init_run     :      5.45s CPU      5.71s WALL (       1 calls)
     electrons    :    491.77s CPU    514.24s WALL (       1 calls)
     forces       :      1.58s CPU      1.58s WALL (       1 calls)

     Called by init_run:
     wfcinit      :      3.56s CPU      3.75s WALL (       1 calls)
     wfcinit:atom :      0.06s CPU      0.06s WALL (      40 calls)
     wfcinit:wfcr :      3.23s CPU      3.42s WALL (      40 calls)
     potinit      :      0.79s CPU      0.80s WALL (       1 calls)
     hinit0       :      0.95s CPU      0.96s WALL (       1 calls)

     Called by electrons:
     c_bands      :    428.79s CPU    447.98s WALL (      48 calls)
     sum_band     :     54.75s CPU     57.87s WALL (      48 calls)
     v_of_rho     :      2.71s CPU      2.83s WALL (      49 calls)
     v_h          :      0.14s CPU      0.15s WALL (      49 calls)
     v_xc         :      2.63s CPU      2.73s WALL (      50 calls)
     newd         :      4.98s CPU      5.04s WALL (      49 calls)
     mix_rho      :      0.44s CPU      0.46s WALL (      48 calls)

     Called by c_bands:
     init_us_2    :      4.01s CPU      4.07s WALL (    3920 calls)
     init_us_2:cp :      4.00s CPU      4.06s WALL (    3920 calls)
     cegterg      :    397.96s CPU    417.07s WALL (    1920 calls)

     Called by sum_band:
     sum_band:wei :      0.01s CPU      0.01s WALL (      48 calls)
     sum_band:loo :     48.73s CPU     51.71s WALL (      48 calls)
     sum_band:buf :      0.29s CPU      0.30s WALL (    1920 calls)
     sum_band:ini :      1.91s CPU      1.94s WALL (    1920 calls)
     sum_band:cal :      5.15s CPU      5.33s WALL (    1920 calls)
     sum_band:bec :      0.14s CPU      0.14s WALL (    1920 calls)
     addusdens    :      5.44s CPU      5.50s WALL (      48 calls)
                                        0.00s GPU  (      48 calls)
     addusd:skk   :      0.03s CPU      0.03s WALL (      96 calls)
                                        0.00s GPU  (      96 calls)

     Called by *egterg:
     cdiaghg      :     32.81s CPU     32.87s WALL (    9470 calls)
     cegterg:over :     18.25s CPU     18.70s WALL (    7550 calls)
     cegterg:upda :     10.82s CPU     10.85s WALL (    7550 calls)
     cegterg:last :     23.87s CPU     23.91s WALL (    5507 calls)
     h_psi        :    286.43s CPU    304.92s WALL (    9510 calls)
     s_psi        :     19.15s CPU     19.21s WALL (    9510 calls)
     g_psi        :      1.68s CPU      1.69s WALL (    7550 calls)

     Called by h_psi:
     h_psi:calbec :     17.82s CPU     18.65s WALL (    9510 calls)
     vloc_psi     :    248.18s CPU    265.75s WALL (    9510 calls)
     add_vuspsi   :     19.55s CPU     19.64s WALL (    9510 calls)

     General routines
     calbec       :     23.38s CPU     24.41s WALL (   11590 calls)
     fft          :      1.44s CPU      1.60s WALL (     646 calls)
     ffts         :      0.22s CPU      0.23s WALL (      97 calls)
     fftw         :    251.65s CPU    269.86s WALL (  508970 calls)
     interpolate  :      0.31s CPU      0.32s WALL (      49 calls)

     Parallel routines

     PWSCF        :   8m19.10s CPU   8m41.87s WALL


   This run was terminated on:  19:56:55  13Jul2025            

=------------------------------------------------------------------------------=
   JOB DONE.
=------------------------------------------------------------------------------=
Note: The following floating-point exceptions are signalling: IEEE_INVALID_FLAG
Note: The following floating-point exceptions are signalling: IEEE_INVALID_FLAG
