Authorization required, but no authorization protocol specified

Authorization required, but no authorization protocol specified

Authorization required, but no authorization protocol specified

Authorization required, but no authorization protocol specified

Authorization required, but no authorization protocol specified

Authorization required, but no authorization protocol specified

Authorization required, but no authorization protocol specified

Authorization required, but no authorization protocol specified

Authorization required, but no authorization protocol specified

Authorization required, but no authorization protocol specified


     Program PWSCF v.7.2 starts on 13Jul2025 at 21:54:13 

     This program is part of the open-source Quantum ESPRESSO suite
     for quantum simulation of materials; please cite
         "P. Giannozzi et al., J. Phys.:Condens. Matter 21 395502 (2009);
         "P. Giannozzi et al., J. Phys.:Condens. Matter 29 465901 (2017);
         "P. Giannozzi et al., J. Chem. Phys. 152 154105 (2020);
          URL http://www.quantum-espresso.org", 
     in publications or presentations arising from this work. More details at
     http://www.quantum-espresso.org/quote

     Parallel version (MPI), running on     8 processors

     MPI processes distributed on     1 nodes
     56822 MiB available memory on the printing compute node when the environment starts

     Reading input from /home/jvc/QEspresso7.2/ZnO_database/scripts/cell121.in/ZnO-3.47-1.68-121.in
Warning: card &CELL ignored
Warning: card / ignored
Warning: card &FCP ignored
Warning: card / ignored
Warning: card &RISM ignored
Warning: card / ignored

     Current dimensions of program PWSCF are:
     Max number of different atomic species (ntypx) = 10
     Max number of k-points (npk) =  40000
     Max angular momentum in pseudopotentials (lmaxx) =  4
     file Zn.upf: wavefunction(s)  3D renormalized
     Found identity + (  0.0000 -0.5000  0.0000) symmetry
     This is a supercell, fractional translations are disabled
     Message from routine setup:
     using ibrav=0 with symmetry is DISCOURAGED, use correct ibrav instead

     K-points division:     npool     =       2
     R & G space division:  proc/nbgrp/npool/nimage =       4
     Subspace diagonalization in iterative solution of the eigenvalue problem:
     a serial algorithm will be used


     Parallelization info
     --------------------
     sticks:   dense  smooth     PW     G-vecs:    dense   smooth      PW
     Min         591     294     93                27594     9753    1682
     Max         592     297     94                27595     9754    1683
     Sum        2365    1179    373               110379    39015    6731

     Using Slab Decomposition



     bravais-lattice index     =            0
     lattice parameter (alat)  =       6.5496  a.u.
     unit-cell volume          =     817.0249 (a.u.)^3
     number of atoms/cell      =            8
     number of atomic types    =            2
     number of electrons       =        72.00
     number of Kohn-Sham states=           36
     kinetic-energy cutoff     =      50.0000  Ry
     charge density cutoff     =     400.0000  Ry
     scf convergence threshold =      1.0E-08
     mixing beta               =       0.3000
     number of iterations used =            8  plain     mixing
     Exchange-correlation= PBE
                           (   1   4   3   4   0   0   0)

     celldm(1)=   6.549585  celldm(2)=   0.000000  celldm(3)=   0.000000
     celldm(4)=   0.000000  celldm(5)=   0.000000  celldm(6)=   0.000000

     crystal axes: (cart. coord. in units of alat)
               a(1) = (   1.000000   0.000000   0.000000 )  
               a(2) = (  -1.000000   1.732051   0.000000 )  
               a(3) = (   0.000000   0.000000   1.678933 )  

     reciprocal axes: (cart. coord. in units 2 pi/alat)
               b(1) = (  1.000000  0.577350 -0.000000 )  
               b(2) = (  0.000000  0.577350  0.000000 )  
               b(3) = (  0.000000 -0.000000  0.595616 )  


     PseudoPot. # 1 for Zn read from file:
     /home/jvc/QEspresso7.2/ZnO_database/pseudos/Zn.upf
     MD5 check sum: 7f56cabf9682ed8c977c2f7d0c5985c5
     Pseudo is Ultrasoft + core correction, Zval = 12.0
     Generated using &quot;atomic&quot; code by A. Dal Corso  v.6.2.2
     Using radial grid of 1201 points,  6 beta functions with: 
                l(1) =   0
                l(2) =   0
                l(3) =   1
                l(4) =   1
                l(5) =   2
                l(6) =   2
     Q(r) pseudized with 0 coefficients 


     PseudoPot. # 2 for O  read from file:
     /home/jvc/QEspresso7.2/ZnO_database/pseudos/O.upf
     MD5 check sum: 91400c9766925bcf19f520983a725ff0
     Pseudo is Ultrasoft + core correction, Zval =  6.0
     Generated using &quot;atomic&quot; code by A. Dal Corso  v.6.3MaX
     Using radial grid of 1095 points,  4 beta functions with: 
                l(1) =   0
                l(2) =   0
                l(3) =   1
                l(4) =   1
     Q(r) pseudized with 0 coefficients 


     atomic species   valence    mass     pseudopotential
        Zn            12.00    65.38000     Zn( 1.00)
        O              6.00    15.99900     O ( 1.00)

      2 Sym. Ops. (no inversion) found


                                    s                        frac. trans.

      isym =  1     identity                                     

 cryst.   s( 1) = (     1          0          0      )
                  (     0          1          0      )
                  (     0          0          1      )

 cart.    s( 1) = (  1.0000000  0.0000000  0.0000000 )
                  (  0.0000000  1.0000000  0.0000000 )
                  (  0.0000000  0.0000000  1.0000000 )


      isym =  2     inv. 180 deg rotation - cart. axis [1,0,0]   

 cryst.   s( 2) = (    -1          0          0      )
                  (     2          1          0      )
                  (     0          0          1      )

 cart.    s( 2) = ( -1.0000000  0.0000000  0.0000000 )
                  (  0.0000000  1.0000000  0.0000000 )
                  (  0.0000000  0.0000000  1.0000000 )


   Cartesian axes

     site n.     atom                  positions (alat units)
         1           Zn  tau(   1) = (   0.0000000   0.0000000   0.0000000  )
         2           O   tau(   2) = (   0.0000000   0.5773503   0.2211943  )
         3           Zn  tau(   3) = (   0.0000000   0.5773503   0.8394663  )
         4           O   tau(   4) = (   0.0000000   0.0000000   1.0606607  )
         5           Zn  tau(   5) = (  -0.5000000   0.8660254   0.0000000  )
         6           O   tau(   6) = (  -0.5000000   1.4433757   0.2211943  )
         7           Zn  tau(   7) = (  -0.5000000   1.4433757   0.8394663  )
         8           O   tau(   8) = (  -0.5000000   0.8660254   1.0606607  )

   Crystallographic axes

     site n.     atom                  positions (cryst. coord.)
         1           Zn  tau(   1) = (  0.0000000  0.0000000  0.0000000  )
         2           O   tau(   2) = (  0.3333333  0.3333333  0.1317470  )
         3           Zn  tau(   3) = (  0.3333333  0.3333333  0.5000000  )
         4           O   tau(   4) = (  0.0000000  0.0000000  0.6317470  )
         5           Zn  tau(   5) = (  0.0000000  0.5000000  0.0000000  )
         6           O   tau(   6) = (  0.3333333  0.8333333  0.1317470  )
         7           Zn  tau(   7) = (  0.3333333  0.8333333  0.5000000  )
         8           O   tau(   8) = (  0.0000000  0.5000000  0.6317470  )

     number of k points=    80
                       cart. coord. in units 2pi/alat
        k(    1) = (   0.0000000   0.0000000   0.0000000), wk =   0.0092593
        k(    2) = (   0.0000000   0.0000000   0.0992694), wk =   0.0185185
        k(    3) = (   0.0000000   0.0000000   0.1985388), wk =   0.0185185
        k(    4) = (   0.0000000   0.0000000  -0.2978082), wk =   0.0092593
        k(    5) = (   0.0000000   0.0962250   0.0000000), wk =   0.0185185
        k(    6) = (   0.0000000   0.0962250   0.0992694), wk =   0.0185185
        k(    7) = (   0.0000000   0.0962250   0.1985388), wk =   0.0185185
        k(    8) = (   0.0000000   0.0962250  -0.2978082), wk =   0.0185185
        k(    9) = (   0.0000000   0.1924501   0.0000000), wk =   0.0185185
        k(   10) = (   0.0000000   0.1924501   0.0992694), wk =   0.0185185
        k(   11) = (   0.0000000   0.1924501   0.1985388), wk =   0.0185185
        k(   12) = (   0.0000000   0.1924501  -0.2978082), wk =   0.0185185
        k(   13) = (   0.0000000  -0.2886751   0.0000000), wk =   0.0092593
        k(   14) = (   0.0000000  -0.2886751   0.0992694), wk =   0.0185185
        k(   15) = (   0.0000000  -0.2886751   0.1985388), wk =   0.0185185
        k(   16) = (   0.0000000  -0.2886751  -0.2978082), wk =   0.0092593
        k(   17) = (   0.1666667   0.0962250   0.0000000), wk =   0.0370370
        k(   18) = (   0.1666667   0.0962250   0.0992694), wk =   0.0370370
        k(   19) = (   0.1666667   0.0962250   0.1985388), wk =   0.0370370
        k(   20) = (   0.1666667   0.0962250  -0.2978082), wk =   0.0370370
        k(   21) = (   0.1666667   0.1924501   0.0000000), wk =   0.0370370
        k(   22) = (   0.1666667   0.1924501   0.0992694), wk =   0.0370370
        k(   23) = (   0.1666667   0.1924501   0.1985388), wk =   0.0370370
        k(   24) = (   0.1666667   0.1924501  -0.2978082), wk =   0.0370370
        k(   25) = (   0.1666667   0.2886751   0.0000000), wk =   0.0185185
        k(   26) = (   0.1666667   0.2886751   0.0992694), wk =   0.0370370
        k(   27) = (   0.1666667   0.2886751   0.1985388), wk =   0.0370370
        k(   28) = (   0.1666667   0.2886751  -0.2978082), wk =   0.0185185
        k(   29) = (   0.1666667   0.0000000   0.0000000), wk =   0.0185185
        k(   30) = (   0.1666667   0.0000000   0.0992694), wk =   0.0370370
        k(   31) = (   0.1666667   0.0000000   0.1985388), wk =   0.0370370
        k(   32) = (   0.1666667   0.0000000  -0.2978082), wk =   0.0185185
        k(   33) = (   0.3333333   0.1924501   0.0000000), wk =   0.0370370
        k(   34) = (   0.3333333   0.1924501   0.0992694), wk =   0.0370370
        k(   35) = (   0.3333333   0.1924501   0.1985388), wk =   0.0370370
        k(   36) = (   0.3333333   0.1924501  -0.2978082), wk =   0.0370370
        k(   37) = (   0.3333333   0.2886751   0.0000000), wk =   0.0185185
        k(   38) = (   0.3333333   0.2886751   0.0992694), wk =   0.0370370
        k(   39) = (   0.3333333   0.2886751   0.1985388), wk =   0.0370370
        k(   40) = (   0.3333333   0.2886751  -0.2978082), wk =   0.0185185
        k(   41) = (   0.3333333  -0.0962250   0.0000000), wk =   0.0370370
        k(   42) = (   0.3333333  -0.0962250   0.0992694), wk =   0.0370370
        k(   43) = (   0.3333333  -0.0962250   0.1985388), wk =   0.0370370
        k(   44) = (   0.3333333  -0.0962250  -0.2978082), wk =   0.0370370
        k(   45) = (   0.3333333  -0.0000000   0.0000000), wk =   0.0185185
        k(   46) = (   0.3333333  -0.0000000   0.0992694), wk =   0.0370370
        k(   47) = (   0.3333333  -0.0000000   0.1985388), wk =   0.0370370
        k(   48) = (   0.3333333  -0.0000000  -0.2978082), wk =   0.0185185
        k(   49) = (  -0.5000000  -0.2886751   0.0000000), wk =   0.0092593
        k(   50) = (  -0.5000000  -0.2886751   0.0992694), wk =   0.0185185
        k(   51) = (  -0.5000000  -0.2886751   0.1985388), wk =   0.0185185
        k(   52) = (  -0.5000000  -0.2886751  -0.2978082), wk =   0.0092593
        k(   53) = (  -0.5000000  -0.1924501   0.0000000), wk =   0.0185185
        k(   54) = (  -0.5000000  -0.1924501   0.0992694), wk =   0.0185185
        k(   55) = (  -0.5000000  -0.1924501   0.1985388), wk =   0.0185185
        k(   56) = (  -0.5000000  -0.1924501  -0.2978082), wk =   0.0185185
        k(   57) = (  -0.5000000  -0.0962250   0.0000000), wk =   0.0185185
        k(   58) = (  -0.5000000  -0.0962250   0.0992694), wk =   0.0185185
        k(   59) = (  -0.5000000  -0.0962250   0.1985388), wk =   0.0185185
        k(   60) = (  -0.5000000  -0.0962250  -0.2978082), wk =   0.0185185
        k(   61) = (  -0.5000000  -0.5773503   0.0000000), wk =   0.0092593
        k(   62) = (  -0.5000000  -0.5773503   0.0992694), wk =   0.0185185
        k(   63) = (  -0.5000000  -0.5773503   0.1985388), wk =   0.0185185
        k(   64) = (  -0.5000000  -0.5773503  -0.2978082), wk =   0.0092593
        k(   65) = (   0.0000000   0.0962250  -0.0992694), wk =   0.0185185
        k(   66) = (   0.0000000   0.0962250  -0.1985388), wk =   0.0185185
        k(   67) = (   0.0000000   0.1924501  -0.0992694), wk =   0.0185185
        k(   68) = (   0.0000000   0.1924501  -0.1985388), wk =   0.0185185
        k(   69) = (  -0.1666667   0.0962250  -0.0992694), wk =   0.0370370
        k(   70) = (  -0.1666667   0.0962250  -0.1985388), wk =   0.0370370
        k(   71) = (  -0.1666667   0.1924501  -0.0992694), wk =   0.0370370
        k(   72) = (  -0.1666667   0.1924501  -0.1985388), wk =   0.0370370
        k(   73) = (  -0.3333333   0.1924501  -0.0992694), wk =   0.0370370
        k(   74) = (  -0.3333333   0.1924501  -0.1985388), wk =   0.0370370
        k(   75) = (  -0.3333333  -0.0962250  -0.0992694), wk =   0.0370370
        k(   76) = (  -0.3333333  -0.0962250  -0.1985388), wk =   0.0370370
        k(   77) = (   0.5000000  -0.1924501  -0.0992694), wk =   0.0185185
        k(   78) = (   0.5000000  -0.1924501  -0.1985388), wk =   0.0185185
        k(   79) = (   0.5000000  -0.0962250  -0.0992694), wk =   0.0185185
        k(   80) = (   0.5000000  -0.0962250  -0.1985388), wk =   0.0185185

                       cryst. coord.
        k(    1) = (   0.0000000   0.0000000   0.0000000), wk =   0.0092593
        k(    2) = (   0.0000000   0.0000000   0.1666667), wk =   0.0185185
        k(    3) = (   0.0000000   0.0000000   0.3333333), wk =   0.0185185
        k(    4) = (   0.0000000   0.0000000  -0.5000000), wk =   0.0092593
        k(    5) = (   0.0000000   0.1666667   0.0000000), wk =   0.0185185
        k(    6) = (   0.0000000   0.1666667   0.1666667), wk =   0.0185185
        k(    7) = (   0.0000000   0.1666667   0.3333333), wk =   0.0185185
        k(    8) = (   0.0000000   0.1666667  -0.5000000), wk =   0.0185185
        k(    9) = (   0.0000000   0.3333333   0.0000000), wk =   0.0185185
        k(   10) = (   0.0000000   0.3333333   0.1666667), wk =   0.0185185
        k(   11) = (   0.0000000   0.3333333   0.3333333), wk =   0.0185185
        k(   12) = (   0.0000000   0.3333333  -0.5000000), wk =   0.0185185
        k(   13) = (   0.0000000  -0.5000000   0.0000000), wk =   0.0092593
        k(   14) = (   0.0000000  -0.5000000   0.1666667), wk =   0.0185185
        k(   15) = (   0.0000000  -0.5000000   0.3333333), wk =   0.0185185
        k(   16) = (   0.0000000  -0.5000000  -0.5000000), wk =   0.0092593
        k(   17) = (   0.1666667   0.0000000   0.0000000), wk =   0.0370370
        k(   18) = (   0.1666667   0.0000000   0.1666667), wk =   0.0370370
        k(   19) = (   0.1666667   0.0000000   0.3333333), wk =   0.0370370
        k(   20) = (   0.1666667   0.0000000  -0.5000000), wk =   0.0370370
        k(   21) = (   0.1666667   0.1666667   0.0000000), wk =   0.0370370
        k(   22) = (   0.1666667   0.1666667   0.1666667), wk =   0.0370370
        k(   23) = (   0.1666667   0.1666667   0.3333333), wk =   0.0370370
        k(   24) = (   0.1666667   0.1666667  -0.5000000), wk =   0.0370370
        k(   25) = (   0.1666667   0.3333333   0.0000000), wk =   0.0185185
        k(   26) = (   0.1666667   0.3333333   0.1666667), wk =   0.0370370
        k(   27) = (   0.1666667   0.3333333   0.3333333), wk =   0.0370370
        k(   28) = (   0.1666667   0.3333333  -0.5000000), wk =   0.0185185
        k(   29) = (   0.1666667  -0.1666667   0.0000000), wk =   0.0185185
        k(   30) = (   0.1666667  -0.1666667   0.1666667), wk =   0.0370370
        k(   31) = (   0.1666667  -0.1666667   0.3333333), wk =   0.0370370
        k(   32) = (   0.1666667  -0.1666667  -0.5000000), wk =   0.0185185
        k(   33) = (   0.3333333   0.0000000   0.0000000), wk =   0.0370370
        k(   34) = (   0.3333333   0.0000000   0.1666667), wk =   0.0370370
        k(   35) = (   0.3333333   0.0000000   0.3333333), wk =   0.0370370
        k(   36) = (   0.3333333   0.0000000  -0.5000000), wk =   0.0370370
        k(   37) = (   0.3333333   0.1666667   0.0000000), wk =   0.0185185
        k(   38) = (   0.3333333   0.1666667   0.1666667), wk =   0.0370370
        k(   39) = (   0.3333333   0.1666667   0.3333333), wk =   0.0370370
        k(   40) = (   0.3333333   0.1666667  -0.5000000), wk =   0.0185185
        k(   41) = (   0.3333333  -0.5000000   0.0000000), wk =   0.0370370
        k(   42) = (   0.3333333  -0.5000000   0.1666667), wk =   0.0370370
        k(   43) = (   0.3333333  -0.5000000   0.3333333), wk =   0.0370370
        k(   44) = (   0.3333333  -0.5000000  -0.5000000), wk =   0.0370370
        k(   45) = (   0.3333333  -0.3333333   0.0000000), wk =   0.0185185
        k(   46) = (   0.3333333  -0.3333333   0.1666667), wk =   0.0370370
        k(   47) = (   0.3333333  -0.3333333   0.3333333), wk =   0.0370370
        k(   48) = (   0.3333333  -0.3333333  -0.5000000), wk =   0.0185185
        k(   49) = (  -0.5000000   0.0000000   0.0000000), wk =   0.0092593
        k(   50) = (  -0.5000000   0.0000000   0.1666667), wk =   0.0185185
        k(   51) = (  -0.5000000   0.0000000   0.3333333), wk =   0.0185185
        k(   52) = (  -0.5000000   0.0000000  -0.5000000), wk =   0.0092593
        k(   53) = (  -0.5000000   0.1666667   0.0000000), wk =   0.0185185
        k(   54) = (  -0.5000000   0.1666667   0.1666667), wk =   0.0185185
        k(   55) = (  -0.5000000   0.1666667   0.3333333), wk =   0.0185185
        k(   56) = (  -0.5000000   0.1666667  -0.5000000), wk =   0.0185185
        k(   57) = (  -0.5000000   0.3333333   0.0000000), wk =   0.0185185
        k(   58) = (  -0.5000000   0.3333333   0.1666667), wk =   0.0185185
        k(   59) = (  -0.5000000   0.3333333   0.3333333), wk =   0.0185185
        k(   60) = (  -0.5000000   0.3333333  -0.5000000), wk =   0.0185185
        k(   61) = (  -0.5000000  -0.5000000   0.0000000), wk =   0.0092593
        k(   62) = (  -0.5000000  -0.5000000   0.1666667), wk =   0.0185185
        k(   63) = (  -0.5000000  -0.5000000   0.3333333), wk =   0.0185185
        k(   64) = (  -0.5000000  -0.5000000  -0.5000000), wk =   0.0092593
        k(   65) = (   0.0000000   0.1666667  -0.1666667), wk =   0.0185185
        k(   66) = (   0.0000000   0.1666667  -0.3333333), wk =   0.0185185
        k(   67) = (   0.0000000   0.3333333  -0.1666667), wk =   0.0185185
        k(   68) = (   0.0000000   0.3333333  -0.3333333), wk =   0.0185185
        k(   69) = (  -0.1666667   0.3333333  -0.1666667), wk =   0.0370370
        k(   70) = (  -0.1666667   0.3333333  -0.3333333), wk =   0.0370370
        k(   71) = (  -0.1666667   0.5000000  -0.1666667), wk =   0.0370370
        k(   72) = (  -0.1666667   0.5000000  -0.3333333), wk =   0.0370370
        k(   73) = (  -0.3333333   0.6666667  -0.1666667), wk =   0.0370370
        k(   74) = (  -0.3333333   0.6666667  -0.3333333), wk =   0.0370370
        k(   75) = (  -0.3333333   0.1666667  -0.1666667), wk =   0.0370370
        k(   76) = (  -0.3333333   0.1666667  -0.3333333), wk =   0.0370370
        k(   77) = (   0.5000000  -0.8333333  -0.1666667), wk =   0.0185185
        k(   78) = (   0.5000000  -0.8333333  -0.3333333), wk =   0.0185185
        k(   79) = (   0.5000000  -0.6666667  -0.1666667), wk =   0.0185185
        k(   80) = (   0.5000000  -0.6666667  -0.3333333), wk =   0.0185185

     Dense  grid:   110379 G-vectors     FFT dimensions: (  45,  90,  72)

     Smooth grid:    39015 G-vectors     FFT dimensions: (  30,  60,  50)

     Dynamical RAM for                 wfc:       0.67 MB

     Dynamical RAM for     wfc (w. buffer):      27.45 MB

     Dynamical RAM for           str. fact:       0.84 MB

     Dynamical RAM for           local pot:       0.00 MB

     Dynamical RAM for          nlocal pot:       1.93 MB

     Dynamical RAM for                qrad:       3.21 MB

     Dynamical RAM for          rho,v,vnew:       2.93 MB

     Dynamical RAM for               rhoin:       0.98 MB

     Dynamical RAM for            rho*nmix:       6.74 MB

     Dynamical RAM for           G-vectors:       1.65 MB

     Dynamical RAM for          h,s,v(r/c):       0.24 MB

     Dynamical RAM for          <psi|beta>:       0.06 MB

     Dynamical RAM for                 psi:       1.34 MB

     Dynamical RAM for                hpsi:       1.34 MB

     Dynamical RAM for                spsi:       1.34 MB

     Dynamical RAM for      wfcinit/wfcrot:       2.00 MB

     Dynamical RAM for           addusdens:      40.21 MB

     Dynamical RAM for          addusforce:      41.49 MB

     Estimated static dynamical RAM per process >      43.05 MB

     Estimated max dynamical RAM per process >      91.27 MB

     Estimated total dynamical RAM >     703.25 MB

     Check: negative core charge=   -0.000002

     Initial potential from superposition of free atoms

     starting charge      71.9851, renormalised to      72.0000
     Starting wfcs are   52 randomized atomic wfcs

     total cpu time spent up to now is        6.8 secs

     Self-consistent Calculation

     iteration #  1     ecut=    50.00 Ry     beta= 0.30
     Davidson diagonalization with overlap

---- Real-time Memory Report at c_bands before calling an iterative solver
            91 MiB given to the printing process from OS
             0 MiB allocation reported by mallinfo(arena+hblkhd)
         56380 MiB available memory on the node where the printing process lives
------------------
     ethr =  1.00E-02,  avg # of iterations =  1.4

     total cpu time spent up to now is       14.7 secs

     total energy              =    -722.78449144 Ry
     estimated scf accuracy    <       1.59767407 Ry

     iteration #  2     ecut=    50.00 Ry     beta= 0.30
     Davidson diagonalization with overlap

---- Real-time Memory Report at c_bands before calling an iterative solver
           128 MiB given to the printing process from OS
             0 MiB allocation reported by mallinfo(arena+hblkhd)
         56097 MiB available memory on the node where the printing process lives
------------------
     ethr =  2.22E-03,  avg # of iterations =  2.3

     total cpu time spent up to now is       24.4 secs

     total energy              =    -723.02355257 Ry
     estimated scf accuracy    <       0.18275730 Ry

     iteration #  3     ecut=    50.00 Ry     beta= 0.30
     Davidson diagonalization with overlap

---- Real-time Memory Report at c_bands before calling an iterative solver
           130 MiB given to the printing process from OS
             0 MiB allocation reported by mallinfo(arena+hblkhd)
         56118 MiB available memory on the node where the printing process lives
------------------
     ethr =  2.54E-04,  avg # of iterations =  6.2

     total cpu time spent up to now is       39.4 secs

     total energy              =    -723.02923642 Ry
     estimated scf accuracy    <       0.26161358 Ry

     iteration #  4     ecut=    50.00 Ry     beta= 0.30
     Davidson diagonalization with overlap

---- Real-time Memory Report at c_bands before calling an iterative solver
           131 MiB given to the printing process from OS
             0 MiB allocation reported by mallinfo(arena+hblkhd)
         56130 MiB available memory on the node where the printing process lives
------------------
     ethr =  2.54E-04,  avg # of iterations = 10.1

     total cpu time spent up to now is       63.1 secs

     total energy              =    -723.26860466 Ry
     estimated scf accuracy    <       0.99171166 Ry

     iteration #  5     ecut=    50.00 Ry     beta= 0.30
     Davidson diagonalization with overlap

---- Real-time Memory Report at c_bands before calling an iterative solver
           131 MiB given to the printing process from OS
             0 MiB allocation reported by mallinfo(arena+hblkhd)
         56123 MiB available memory on the node where the printing process lives
------------------
     ethr =  2.54E-04,  avg # of iterations =  1.2

     total cpu time spent up to now is       70.9 secs

     total energy              =    -722.81146058 Ry
     estimated scf accuracy    <       0.69447240 Ry

     iteration #  6     ecut=    50.00 Ry     beta= 0.30
     Davidson diagonalization with overlap

---- Real-time Memory Report at c_bands before calling an iterative solver
           131 MiB given to the printing process from OS
             0 MiB allocation reported by mallinfo(arena+hblkhd)
         56135 MiB available memory on the node where the printing process lives
------------------
     ethr =  2.54E-04,  avg # of iterations = 10.0

     total cpu time spent up to now is       89.6 secs

     total energy              =    -723.15015375 Ry
     estimated scf accuracy    <       0.77257155 Ry

     iteration #  7     ecut=    50.00 Ry     beta= 0.30
     Davidson diagonalization with overlap

---- Real-time Memory Report at c_bands before calling an iterative solver
           131 MiB given to the printing process from OS
             0 MiB allocation reported by mallinfo(arena+hblkhd)
         56114 MiB available memory on the node where the printing process lives
------------------
     ethr =  2.54E-04,  avg # of iterations =  2.4

     total cpu time spent up to now is       99.1 secs

     total energy              =    -723.16606898 Ry
     estimated scf accuracy    <       0.36051798 Ry

     iteration #  8     ecut=    50.00 Ry     beta= 0.30
     Davidson diagonalization with overlap

---- Real-time Memory Report at c_bands before calling an iterative solver
           132 MiB given to the printing process from OS
             0 MiB allocation reported by mallinfo(arena+hblkhd)
         56145 MiB available memory on the node where the printing process lives
------------------
     ethr =  2.54E-04,  avg # of iterations =  2.0

     total cpu time spent up to now is      107.6 secs

     total energy              =    -723.18031690 Ry
     estimated scf accuracy    <       0.28605631 Ry

     iteration #  9     ecut=    50.00 Ry     beta= 0.30
     Davidson diagonalization with overlap

---- Real-time Memory Report at c_bands before calling an iterative solver
           132 MiB given to the printing process from OS
             0 MiB allocation reported by mallinfo(arena+hblkhd)
         56138 MiB available memory on the node where the printing process lives
------------------
     ethr =  2.54E-04,  avg # of iterations =  1.9

     total cpu time spent up to now is      115.9 secs

     total energy              =    -723.18768180 Ry
     estimated scf accuracy    <       0.24280232 Ry

     iteration # 10     ecut=    50.00 Ry     beta= 0.30
     Davidson diagonalization with overlap

---- Real-time Memory Report at c_bands before calling an iterative solver
           132 MiB given to the printing process from OS
             0 MiB allocation reported by mallinfo(arena+hblkhd)
         56147 MiB available memory on the node where the printing process lives
------------------
     ethr =  2.54E-04,  avg # of iterations =  1.7

     total cpu time spent up to now is      123.9 secs

     total energy              =    -723.18049567 Ry
     estimated scf accuracy    <       0.20592484 Ry

     iteration # 11     ecut=    50.00 Ry     beta= 0.30
     Davidson diagonalization with overlap

---- Real-time Memory Report at c_bands before calling an iterative solver
           132 MiB given to the printing process from OS
             0 MiB allocation reported by mallinfo(arena+hblkhd)
         56138 MiB available memory on the node where the printing process lives
------------------
     ethr =  2.54E-04,  avg # of iterations =  1.0

     total cpu time spent up to now is      131.5 secs

     total energy              =    -723.17899945 Ry
     estimated scf accuracy    <       0.16547508 Ry

     iteration # 12     ecut=    50.00 Ry     beta= 0.30
     Davidson diagonalization with overlap

---- Real-time Memory Report at c_bands before calling an iterative solver
           132 MiB given to the printing process from OS
             0 MiB allocation reported by mallinfo(arena+hblkhd)
         56148 MiB available memory on the node where the printing process lives
------------------
     ethr =  2.30E-04,  avg # of iterations =  1.1

     total cpu time spent up to now is      139.1 secs

     total energy              =    -723.18670498 Ry
     estimated scf accuracy    <       0.13722237 Ry

     iteration # 13     ecut=    50.00 Ry     beta= 0.30
     Davidson diagonalization with overlap

---- Real-time Memory Report at c_bands before calling an iterative solver
           132 MiB given to the printing process from OS
             0 MiB allocation reported by mallinfo(arena+hblkhd)
         56139 MiB available memory on the node where the printing process lives
------------------
     ethr =  1.91E-04,  avg # of iterations =  1.1

     total cpu time spent up to now is      146.8 secs

     total energy              =    -723.18810828 Ry
     estimated scf accuracy    <       0.14013137 Ry

     iteration # 14     ecut=    50.00 Ry     beta= 0.30
     Davidson diagonalization with overlap

---- Real-time Memory Report at c_bands before calling an iterative solver
           132 MiB given to the printing process from OS
             0 MiB allocation reported by mallinfo(arena+hblkhd)
         56142 MiB available memory on the node where the printing process lives
------------------
     ethr =  1.91E-04,  avg # of iterations =  1.1

     total cpu time spent up to now is      154.4 secs

     total energy              =    -723.16923733 Ry
     estimated scf accuracy    <       0.13629100 Ry

     iteration # 15     ecut=    50.00 Ry     beta= 0.30
     Davidson diagonalization with overlap

---- Real-time Memory Report at c_bands before calling an iterative solver
           132 MiB given to the printing process from OS
             0 MiB allocation reported by mallinfo(arena+hblkhd)
         56152 MiB available memory on the node where the printing process lives
------------------
     ethr =  1.89E-04,  avg # of iterations =  1.4

     total cpu time spent up to now is      162.3 secs

     total energy              =    -723.17976708 Ry
     estimated scf accuracy    <       0.08971109 Ry

     iteration # 16     ecut=    50.00 Ry     beta= 0.30
     Davidson diagonalization with overlap

---- Real-time Memory Report at c_bands before calling an iterative solver
           132 MiB given to the printing process from OS
             0 MiB allocation reported by mallinfo(arena+hblkhd)
         56129 MiB available memory on the node where the printing process lives
------------------
     ethr =  1.25E-04,  avg # of iterations =  1.2

     total cpu time spent up to now is      170.0 secs

     total energy              =    -723.20713295 Ry
     estimated scf accuracy    <       0.10182262 Ry

     iteration # 17     ecut=    50.00 Ry     beta= 0.30
     Davidson diagonalization with overlap

---- Real-time Memory Report at c_bands before calling an iterative solver
           132 MiB given to the printing process from OS
             0 MiB allocation reported by mallinfo(arena+hblkhd)
         56130 MiB available memory on the node where the printing process lives
------------------
     ethr =  1.25E-04,  avg # of iterations =  1.0

     total cpu time spent up to now is      177.6 secs

     total energy              =    -723.18362282 Ry
     estimated scf accuracy    <       0.15041551 Ry

     iteration # 18     ecut=    50.00 Ry     beta= 0.30
     Davidson diagonalization with overlap

---- Real-time Memory Report at c_bands before calling an iterative solver
           132 MiB given to the printing process from OS
             0 MiB allocation reported by mallinfo(arena+hblkhd)
         56143 MiB available memory on the node where the printing process lives
------------------
     ethr =  1.25E-04,  avg # of iterations =  1.2

     total cpu time spent up to now is      185.3 secs

     total energy              =    -723.16581100 Ry
     estimated scf accuracy    <       0.10882556 Ry

     iteration # 19     ecut=    50.00 Ry     beta= 0.30
     Davidson diagonalization with overlap

---- Real-time Memory Report at c_bands before calling an iterative solver
           132 MiB given to the printing process from OS
             0 MiB allocation reported by mallinfo(arena+hblkhd)
         56133 MiB available memory on the node where the printing process lives
------------------
     ethr =  1.25E-04,  avg # of iterations =  1.4

     total cpu time spent up to now is      193.2 secs

     total energy              =    -723.19885890 Ry
     estimated scf accuracy    <       0.06506426 Ry

     iteration # 20     ecut=    50.00 Ry     beta= 0.30
     Davidson diagonalization with overlap

---- Real-time Memory Report at c_bands before calling an iterative solver
           132 MiB given to the printing process from OS
             0 MiB allocation reported by mallinfo(arena+hblkhd)
         56132 MiB available memory on the node where the printing process lives
------------------
     ethr =  9.04E-05,  avg # of iterations =  1.5

     total cpu time spent up to now is      201.1 secs

     total energy              =    -723.11720562 Ry
     estimated scf accuracy    <       0.12091352 Ry

     iteration # 21     ecut=    50.00 Ry     beta= 0.30
     Davidson diagonalization with overlap

---- Real-time Memory Report at c_bands before calling an iterative solver
           132 MiB given to the printing process from OS
             0 MiB allocation reported by mallinfo(arena+hblkhd)
         56134 MiB available memory on the node where the printing process lives
------------------
     ethr =  9.04E-05,  avg # of iterations =  7.0

     total cpu time spent up to now is      218.4 secs

     total energy              =    -723.15277362 Ry
     estimated scf accuracy    <       0.10088118 Ry

     iteration # 22     ecut=    50.00 Ry     beta= 0.30
     Davidson diagonalization with overlap

---- Real-time Memory Report at c_bands before calling an iterative solver
           133 MiB given to the printing process from OS
             0 MiB allocation reported by mallinfo(arena+hblkhd)
         56154 MiB available memory on the node where the printing process lives
------------------
     ethr =  9.04E-05,  avg # of iterations =  2.1

     total cpu time spent up to now is      227.3 secs

     total energy              =    -723.14781885 Ry
     estimated scf accuracy    <       0.02919702 Ry

     iteration # 23     ecut=    50.00 Ry     beta= 0.30
     Davidson diagonalization with overlap

---- Real-time Memory Report at c_bands before calling an iterative solver
           133 MiB given to the printing process from OS
             0 MiB allocation reported by mallinfo(arena+hblkhd)
         56157 MiB available memory on the node where the printing process lives
------------------
     ethr =  4.06E-05,  avg # of iterations =  6.3

     total cpu time spent up to now is      241.0 secs

     total energy              =    -723.16629378 Ry
     estimated scf accuracy    <       0.01012760 Ry

     iteration # 24     ecut=    50.00 Ry     beta= 0.30
     Davidson diagonalization with overlap

---- Real-time Memory Report at c_bands before calling an iterative solver
           133 MiB given to the printing process from OS
             0 MiB allocation reported by mallinfo(arena+hblkhd)
         56155 MiB available memory on the node where the printing process lives
------------------
     ethr =  1.41E-05,  avg # of iterations =  1.8

     total cpu time spent up to now is      249.2 secs

     total energy              =    -723.16601255 Ry
     estimated scf accuracy    <       0.00435908 Ry

     iteration # 25     ecut=    50.00 Ry     beta= 0.30
     Davidson diagonalization with overlap

---- Real-time Memory Report at c_bands before calling an iterative solver
           133 MiB given to the printing process from OS
             0 MiB allocation reported by mallinfo(arena+hblkhd)
         56147 MiB available memory on the node where the printing process lives
------------------
     ethr =  6.05E-06,  avg # of iterations =  2.6

     total cpu time spent up to now is      258.4 secs

     total energy              =    -723.16724443 Ry
     estimated scf accuracy    <       0.00143413 Ry

     iteration # 26     ecut=    50.00 Ry     beta= 0.30
     Davidson diagonalization with overlap

---- Real-time Memory Report at c_bands before calling an iterative solver
           133 MiB given to the printing process from OS
             0 MiB allocation reported by mallinfo(arena+hblkhd)
         56168 MiB available memory on the node where the printing process lives
------------------
     ethr =  1.99E-06,  avg # of iterations =  2.5

     total cpu time spent up to now is      267.5 secs

     total energy              =    -723.16662224 Ry
     estimated scf accuracy    <       0.00271613 Ry

     iteration # 27     ecut=    50.00 Ry     beta= 0.30
     Davidson diagonalization with overlap

---- Real-time Memory Report at c_bands before calling an iterative solver
           133 MiB given to the printing process from OS
             0 MiB allocation reported by mallinfo(arena+hblkhd)
         56173 MiB available memory on the node where the printing process lives
------------------
     ethr =  1.99E-06,  avg # of iterations =  2.8

     total cpu time spent up to now is      276.5 secs

     total energy              =    -723.16598746 Ry
     estimated scf accuracy    <       0.00113328 Ry

     iteration # 28     ecut=    50.00 Ry     beta= 0.30
     Davidson diagonalization with overlap

---- Real-time Memory Report at c_bands before calling an iterative solver
           133 MiB given to the printing process from OS
             0 MiB allocation reported by mallinfo(arena+hblkhd)
         56162 MiB available memory on the node where the printing process lives
------------------
     ethr =  1.57E-06,  avg # of iterations =  7.0

     total cpu time spent up to now is      292.7 secs

     total energy              =    -723.16694805 Ry
     estimated scf accuracy    <       0.00168678 Ry

     iteration # 29     ecut=    50.00 Ry     beta= 0.30
     Davidson diagonalization with overlap

---- Real-time Memory Report at c_bands before calling an iterative solver
           133 MiB given to the printing process from OS
             0 MiB allocation reported by mallinfo(arena+hblkhd)
         56170 MiB available memory on the node where the printing process lives
------------------
     ethr =  1.57E-06,  avg # of iterations =  1.0

     total cpu time spent up to now is      300.3 secs

     total energy              =    -723.16675220 Ry
     estimated scf accuracy    <       0.00124567 Ry

     iteration # 30     ecut=    50.00 Ry     beta= 0.30
     Davidson diagonalization with overlap

---- Real-time Memory Report at c_bands before calling an iterative solver
           133 MiB given to the printing process from OS
             0 MiB allocation reported by mallinfo(arena+hblkhd)
         56159 MiB available memory on the node where the printing process lives
------------------
     ethr =  1.57E-06,  avg # of iterations =  1.7

     total cpu time spent up to now is      308.3 secs

     total energy              =    -723.16679395 Ry
     estimated scf accuracy    <       0.00060010 Ry

     iteration # 31     ecut=    50.00 Ry     beta= 0.30
     Davidson diagonalization with overlap

---- Real-time Memory Report at c_bands before calling an iterative solver
           133 MiB given to the printing process from OS
             0 MiB allocation reported by mallinfo(arena+hblkhd)
         56135 MiB available memory on the node where the printing process lives
------------------
     ethr =  8.33E-07,  avg # of iterations =  1.0

     total cpu time spent up to now is      315.9 secs

     total energy              =    -723.16679295 Ry
     estimated scf accuracy    <       0.00058408 Ry

     iteration # 32     ecut=    50.00 Ry     beta= 0.30
     Davidson diagonalization with overlap

---- Real-time Memory Report at c_bands before calling an iterative solver
           133 MiB given to the printing process from OS
             0 MiB allocation reported by mallinfo(arena+hblkhd)
         56131 MiB available memory on the node where the printing process lives
------------------
     ethr =  8.11E-07,  avg # of iterations =  1.0

     total cpu time spent up to now is      323.4 secs

     total energy              =    -723.16669444 Ry
     estimated scf accuracy    <       0.00047946 Ry

     iteration # 33     ecut=    50.00 Ry     beta= 0.30
     Davidson diagonalization with overlap

---- Real-time Memory Report at c_bands before calling an iterative solver
           133 MiB given to the printing process from OS
             0 MiB allocation reported by mallinfo(arena+hblkhd)
         56143 MiB available memory on the node where the printing process lives
------------------
     ethr =  6.66E-07,  avg # of iterations =  2.0

     total cpu time spent up to now is      332.1 secs

     total energy              =    -723.16666594 Ry
     estimated scf accuracy    <       0.00018122 Ry

     iteration # 34     ecut=    50.00 Ry     beta= 0.30
     Davidson diagonalization with overlap

---- Real-time Memory Report at c_bands before calling an iterative solver
           133 MiB given to the printing process from OS
             0 MiB allocation reported by mallinfo(arena+hblkhd)
         56150 MiB available memory on the node where the printing process lives
------------------
     ethr =  2.52E-07,  avg # of iterations =  5.3

     total cpu time spent up to now is      344.4 secs

     total energy              =    -723.16673714 Ry
     estimated scf accuracy    <       0.00000734 Ry

     iteration # 35     ecut=    50.00 Ry     beta= 0.30
     Davidson diagonalization with overlap

---- Real-time Memory Report at c_bands before calling an iterative solver
           133 MiB given to the printing process from OS
             0 MiB allocation reported by mallinfo(arena+hblkhd)
         56132 MiB available memory on the node where the printing process lives
------------------
     ethr =  1.02E-08,  avg # of iterations =  4.8

     total cpu time spent up to now is      356.9 secs

     total energy              =    -723.16674027 Ry
     estimated scf accuracy    <       0.00000027 Ry

     iteration # 36     ecut=    50.00 Ry     beta= 0.30
     Davidson diagonalization with overlap

---- Real-time Memory Report at c_bands before calling an iterative solver
           133 MiB given to the printing process from OS
             0 MiB allocation reported by mallinfo(arena+hblkhd)
         56137 MiB available memory on the node where the printing process lives
------------------
     ethr =  3.69E-10,  avg # of iterations =  9.0

     total cpu time spent up to now is      378.2 secs

     total energy              =    -723.16674003 Ry
     estimated scf accuracy    <       0.00000116 Ry

     iteration # 37     ecut=    50.00 Ry     beta= 0.30
     Davidson diagonalization with overlap

---- Real-time Memory Report at c_bands before calling an iterative solver
           133 MiB given to the printing process from OS
             0 MiB allocation reported by mallinfo(arena+hblkhd)
         56159 MiB available memory on the node where the printing process lives
------------------
     c_bands:  1 eigenvalues not converged
     ethr =  3.69E-10,  avg # of iterations = 12.0

     total cpu time spent up to now is      404.5 secs

     total energy              =    -723.16674061 Ry
     estimated scf accuracy    <       0.00000361 Ry

     iteration # 38     ecut=    50.00 Ry     beta= 0.30
     Davidson diagonalization with overlap

---- Real-time Memory Report at c_bands before calling an iterative solver
           133 MiB given to the printing process from OS
             0 MiB allocation reported by mallinfo(arena+hblkhd)
         56163 MiB available memory on the node where the printing process lives
------------------
     ethr =  3.69E-10,  avg # of iterations =  6.1

     total cpu time spent up to now is      418.5 secs

     total energy              =    -723.16674040 Ry
     estimated scf accuracy    <       0.00000082 Ry

     iteration # 39     ecut=    50.00 Ry     beta= 0.30
     Davidson diagonalization with overlap

---- Real-time Memory Report at c_bands before calling an iterative solver
           133 MiB given to the printing process from OS
             0 MiB allocation reported by mallinfo(arena+hblkhd)
         56149 MiB available memory on the node where the printing process lives
------------------
     ethr =  3.69E-10,  avg # of iterations =  6.2

     total cpu time spent up to now is      433.3 secs

     total energy              =    -723.16674067 Ry
     estimated scf accuracy    <       0.00000007 Ry

     iteration # 40     ecut=    50.00 Ry     beta= 0.30
     Davidson diagonalization with overlap

---- Real-time Memory Report at c_bands before calling an iterative solver
           133 MiB given to the printing process from OS
             0 MiB allocation reported by mallinfo(arena+hblkhd)
         56156 MiB available memory on the node where the printing process lives
------------------
     ethr =  9.98E-11,  avg # of iterations =  2.6

     total cpu time spent up to now is      441.9 secs

     total energy              =    -723.16674074 Ry
     estimated scf accuracy    <       0.00000009 Ry

     iteration # 41     ecut=    50.00 Ry     beta= 0.30
     Davidson diagonalization with overlap

---- Real-time Memory Report at c_bands before calling an iterative solver
           133 MiB given to the printing process from OS
             0 MiB allocation reported by mallinfo(arena+hblkhd)
         56160 MiB available memory on the node where the printing process lives
------------------
     ethr =  9.98E-11,  avg # of iterations =  6.1

     total cpu time spent up to now is      455.9 secs

     total energy              =    -723.16674055 Ry
     estimated scf accuracy    <       0.00000064 Ry

     iteration # 42     ecut=    50.00 Ry     beta= 0.30
     Davidson diagonalization with overlap

---- Real-time Memory Report at c_bands before calling an iterative solver
           133 MiB given to the printing process from OS
             0 MiB allocation reported by mallinfo(arena+hblkhd)
         56164 MiB available memory on the node where the printing process lives
------------------
     ethr =  9.98E-11,  avg # of iterations =  7.3

     total cpu time spent up to now is      472.8 secs

     End of self-consistent calculation

          k = 0.0000 0.0000 0.0000 (  4891 PWs)   bands (ev):

   -12.3574 -11.9715 -11.9502 -11.8323  -0.8248  -0.8003  -0.7629  -0.7627
    -0.6369  -0.6367  -0.6354  -0.5732  -0.4636  -0.3048  -0.2606  -0.2334
    -0.1877  -0.1877  -0.0837  -0.0784  -0.0784  -0.0748  -0.0521   0.0000
     0.3025   0.7562   1.3578   1.9672   2.6988   3.1336   3.6335   3.6341
     3.6406   4.0433   4.1627   4.1634

     occupation numbers 
     1.0000   1.0000   1.0000   1.0000   1.0000   1.0000   1.0000   1.0000
     1.0000   1.0000   1.0000   1.0000   1.0000   1.0000   1.0000   1.0000
     1.0000   1.0000   1.0000   1.0000   1.0000   1.0000   1.0000   1.0000
     1.0000   1.0000   1.0000   1.0000   1.0000   1.0000   1.0000   1.0000
     1.0000   1.0000   1.0000   1.0000

          k = 0.0000 0.0000 0.0993 (  4901 PWs)   bands (ev):

   -12.3324 -11.9983 -11.9417 -11.8396  -0.8349  -0.8144  -0.7569  -0.7567
    -0.6482  -0.6481  -0.6330  -0.6165  -0.4690  -0.4523  -0.3297  -0.2330
    -0.1784  -0.1784  -0.0836  -0.0835  -0.0830  -0.0787  -0.0577  -0.0003
     0.6453   0.7381   1.2640   2.1749   2.7654   3.1987   3.4312   3.5792
     3.6695   3.6701   4.1278   4.1285

     occupation numbers 
     1.0000   1.0000   1.0000   1.0000   1.0000   1.0000   1.0000   1.0000
     1.0000   1.0000   1.0000   1.0000   1.0000   1.0000   1.0000   1.0000
     1.0000   1.0000   1.0000   1.0000   1.0000   1.0000   1.0000   1.0000
     1.0000   1.0000   1.0000   1.0000   1.0000   1.0000   1.0000   1.0000
     1.0000   1.0000   1.0000   1.0000

          k = 0.0000 0.0000 0.1985 (  4879 PWs)   bands (ev):

   -12.2636 -12.0707 -11.9190 -11.8600  -0.8466  -0.8352  -0.7430  -0.7392
    -0.7390  -0.6987  -0.6768  -0.6766  -0.5621  -0.4185  -0.3965  -0.2868
    -0.1545  -0.1545  -0.0993  -0.0992  -0.0803  -0.0676  -0.0525  -0.0048
     0.7659   1.0689   1.2575   2.6213   2.6792   2.9432   3.2369   3.4112
     3.7674   3.7681   4.0320   4.0327

     occupation numbers 
     1.0000   1.0000   1.0000   1.0000   1.0000   1.0000   1.0000   1.0000
     1.0000   1.0000   1.0000   1.0000   1.0000   1.0000   1.0000   1.0000
     1.0000   1.0000   1.0000   1.0000   1.0000   1.0000   1.0000   1.0000
     1.0000   1.0000   1.0000   1.0000   1.0000   1.0000   1.0000   1.0000
     1.0000   1.0000   1.0000   1.0000

          k = 0.0000 0.0000-0.2978 (  4904 PWs)   bands (ev):

   -12.1680 -12.1680 -11.8889 -11.8889  -0.8194  -0.8194  -0.8172  -0.8172
    -0.7109  -0.7109  -0.7107  -0.7106  -0.4827  -0.4827  -0.3614  -0.3614
    -0.1252  -0.1252  -0.1252  -0.1252  -0.0755  -0.0755  -0.0210  -0.0210
     0.8845   0.8845   1.9502   1.9502   3.0392   3.0393   3.1795   3.1795
     3.9002   3.9002   3.9009   3.9009

     occupation numbers 
     1.0000   1.0000   1.0000   1.0000   1.0000   1.0000   1.0000   1.0000
     1.0000   1.0000   1.0000   1.0000   1.0000   1.0000   1.0000   1.0000
     1.0000   1.0000   1.0000   1.0000   1.0000   1.0000   1.0000   1.0000
     1.0000   1.0000   1.0000   1.0000   1.0000   1.0000   1.0000   1.0000
     1.0000   1.0000   1.0000   1.0000

          k = 0.0000 0.0962 0.0000 (  4893 PWs)   bands (ev):

   -12.3338 -11.9859 -11.9597 -11.8344  -0.8102  -0.8060  -0.7740  -0.7498
    -0.6389  -0.6354  -0.6335  -0.6167  -0.4070  -0.3284  -0.2968  -0.2633
    -0.1961  -0.1885  -0.1537  -0.1008  -0.0770  -0.0563  -0.0411   0.0716
     0.3304   0.8837   1.3553   1.9799   2.7637   3.2623   3.4100   3.5711
     3.6215   3.6780   4.0174   4.1312

     occupation numbers 
     1.0000   1.0000   1.0000   1.0000   1.0000   1.0000   1.0000   1.0000
     1.0000   1.0000   1.0000   1.0000   1.0000   1.0000   1.0000   1.0000
     1.0000   1.0000   1.0000   1.0000   1.0000   1.0000   1.0000   1.0000
     1.0000   1.0000   1.0000   1.0000   1.0000   1.0000   1.0000   1.0000
     1.0000   1.0000   1.0000   1.0000

          k = 0.0000 0.0962 0.0993 (  4898 PWs)   bands (ev):

   -12.3095 -11.9856 -11.9753 -11.8440  -0.8275  -0.8201  -0.7609  -0.7434
    -0.6689  -0.6472  -0.6286  -0.6207  -0.4523  -0.4199  -0.3515  -0.3109
    -0.1857  -0.1794  -0.1412  -0.0991  -0.0826  -0.0724  -0.0618   0.0454
     0.6768   0.8597   1.3520   2.1372   2.8279   3.2439   3.3042   3.4754
     3.6092   3.6183   3.9963   4.0942

     occupation numbers 
     1.0000   1.0000   1.0000   1.0000   1.0000   1.0000   1.0000   1.0000
     1.0000   1.0000   1.0000   1.0000   1.0000   1.0000   1.0000   1.0000
     1.0000   1.0000   1.0000   1.0000   1.0000   1.0000   1.0000   1.0000
     1.0000   1.0000   1.0000   1.0000   1.0000   1.0000   1.0000   1.0000
     1.0000   1.0000   1.0000   1.0000

          k = 0.0000 0.0962 0.1985 (  4883 PWs)   bands (ev):

   -12.2426 -12.0556 -11.9466 -11.8708  -0.8448  -0.8402  -0.7527  -0.7392
    -0.7242  -0.7070  -0.6582  -0.6492  -0.5695  -0.4241  -0.4139  -0.3535
    -0.1590  -0.1556  -0.1049  -0.0995  -0.0963  -0.0939  -0.0738  -0.0071
     0.9046   1.2183   1.2801   2.5735   2.6206   3.0001   3.2856   3.4547
     3.5794   3.7128   3.8888   3.9928

     occupation numbers 
     1.0000   1.0000   1.0000   1.0000   1.0000   1.0000   1.0000   1.0000
     1.0000   1.0000   1.0000   1.0000   1.0000   1.0000   1.0000   1.0000
     1.0000   1.0000   1.0000   1.0000   1.0000   1.0000   1.0000   1.0000
     1.0000   1.0000   1.0000   1.0000   1.0000   1.0000   1.0000   1.0000
     1.0000   1.0000   1.0000   1.0000

          k = 0.0000 0.0962-0.2978 (  4878 PWs)   bands (ev):

   -12.1499 -12.1499 -11.9082 -11.9082  -0.8235  -0.8235  -0.8173  -0.8173
    -0.7005  -0.7005  -0.6938  -0.6938  -0.4946  -0.4946  -0.3987  -0.3987
    -0.1260  -0.1260  -0.1259  -0.1258  -0.0853  -0.0853  -0.0583  -0.0583
     1.0405   1.0405   1.9468   1.9468   3.0282   3.0282   3.2294   3.2295
     3.7335   3.7335   3.8534   3.8534

     occupation numbers 
     1.0000   1.0000   1.0000   1.0000   1.0000   1.0000   1.0000   1.0000
     1.0000   1.0000   1.0000   1.0000   1.0000   1.0000   1.0000   1.0000
     1.0000   1.0000   1.0000   1.0000   1.0000   1.0000   1.0000   1.0000
     1.0000   1.0000   1.0000   1.0000   1.0000   1.0000   1.0000   1.0000
     1.0000   1.0000   1.0000   1.0000

          k = 0.0000 0.1925 0.0000 (  4898 PWs)   bands (ev):

   -12.2677 -12.0706 -11.9281 -11.8521  -0.8210  -0.8039  -0.7694  -0.7166
    -0.6971  -0.6518  -0.6169  -0.5607  -0.4552  -0.3933  -0.3188  -0.2574
    -0.2191  -0.1866  -0.1862  -0.1380  -0.0741  -0.0640   0.0251   0.0789
     0.4432   0.9235   1.5485   2.1983   2.7993   2.9375   3.0993   3.4008
     3.5163   3.7785   3.9199   4.0406

     occupation numbers 
     1.0000   1.0000   1.0000   1.0000   1.0000   1.0000   1.0000   1.0000
     1.0000   1.0000   1.0000   1.0000   1.0000   1.0000   1.0000   1.0000
     1.0000   1.0000   1.0000   1.0000   1.0000   1.0000   1.0000   1.0000
     1.0000   1.0000   1.0000   1.0000   1.0000   1.0000   1.0000   1.0000
     1.0000   1.0000   1.0000   1.0000

          k = 0.0000 0.1925 0.0993 (  4875 PWs)   bands (ev):

   -12.2455 -12.0558 -11.9514 -11.8665  -0.8341  -0.8266  -0.7533  -0.7120
    -0.7085  -0.6365  -0.6330  -0.5738  -0.4643  -0.4126  -0.4090  -0.3647
    -0.2036  -0.1889  -0.1776  -0.1338  -0.0803  -0.0705  -0.0431   0.0287
     0.7732   1.0136   1.6169   2.2341   2.7403   2.9959   3.0509   3.4444
     3.5093   3.7233   3.8456   3.9983

     occupation numbers 
     1.0000   1.0000   1.0000   1.0000   1.0000   1.0000   1.0000   1.0000
     1.0000   1.0000   1.0000   1.0000   1.0000   1.0000   1.0000   1.0000
     1.0000   1.0000   1.0000   1.0000   1.0000   1.0000   1.0000   1.0000
     1.0000   1.0000   1.0000   1.0000   1.0000   1.0000   1.0000   1.0000
     1.0000   1.0000   1.0000   1.0000

          k = 0.0000 0.1925 0.1985 (  4882 PWs)   bands (ev):

   -12.1844 -12.0154 -12.0146 -11.9060  -0.8512  -0.8481  -0.7656  -0.7524
    -0.6849  -0.6761  -0.6074  -0.5937  -0.5936  -0.4852  -0.4644  -0.4537
    -0.1691  -0.1569  -0.1553  -0.1223  -0.0990  -0.0866  -0.0864  -0.0415
     1.1863   1.3311   1.5689   2.4035   2.5486   3.1532   3.1546   3.3787
     3.5629   3.5720   3.6454   3.8825

     occupation numbers 
     1.0000   1.0000   1.0000   1.0000   1.0000   1.0000   1.0000   1.0000
     1.0000   1.0000   1.0000   1.0000   1.0000   1.0000   1.0000   1.0000
     1.0000   1.0000   1.0000   1.0000   1.0000   1.0000   1.0000   1.0000
     1.0000   1.0000   1.0000   1.0000   1.0000   1.0000   1.0000   1.0000
     1.0000   1.0000   1.0000   1.0000

          k = 0.0000 0.1925-0.2978 (  4876 PWs)   bands (ev):

   -12.1000 -12.1000 -11.9605 -11.9604  -0.8306  -0.8306  -0.8232  -0.8232
    -0.6609  -0.6609  -0.6484  -0.6484  -0.5313  -0.5313  -0.4904  -0.4904
    -0.1267  -0.1267  -0.1261  -0.1261  -0.1055  -0.1055  -0.1029  -0.1029
     1.3834   1.3834   1.9007   1.9007   3.0238   3.0238   3.3641   3.3641
     3.3863   3.3863   3.7234   3.7234

     occupation numbers 
     1.0000   1.0000   1.0000   1.0000   1.0000   1.0000   1.0000   1.0000
     1.0000   1.0000   1.0000   1.0000   1.0000   1.0000   1.0000   1.0000
     1.0000   1.0000   1.0000   1.0000   1.0000   1.0000   1.0000   1.0000
     1.0000   1.0000   1.0000   1.0000   1.0000   1.0000   1.0000   1.0000
     1.0000   1.0000   1.0000   1.0000

          k = 0.0000-0.2887 0.0000 (  4898 PWs)   bands (ev):

   -12.1731 -12.1731 -11.8874 -11.8874  -0.8242  -0.8242  -0.7314  -0.7313
    -0.6789  -0.6788  -0.5629  -0.5629  -0.4794  -0.4794  -0.2681  -0.2681
    -0.2201  -0.2201  -0.1705  -0.1705  -0.0698  -0.0698   0.0623   0.0623
     0.6689   0.6689   2.1235   2.1236   2.6091   2.6091   3.1700   3.1700
     3.7513   3.7513   3.9119   3.9120

     occupation numbers 
     1.0000   1.0000   1.0000   1.0000   1.0000   1.0000   1.0000   1.0000
     1.0000   1.0000   1.0000   1.0000   1.0000   1.0000   1.0000   1.0000
     1.0000   1.0000   1.0000   1.0000   1.0000   1.0000   1.0000   1.0000
     1.0000   1.0000   1.0000   1.0000   1.0000   1.0000   1.0000   1.0000
     1.0000   1.0000   1.0000   1.0000

          k = 0.0000-0.2887 0.0993 (  4894 PWs)   bands (ev):

   -12.1541 -12.1541 -11.9067 -11.9067  -0.8384  -0.8384  -0.7333  -0.7332
    -0.6676  -0.6676  -0.5753  -0.5753  -0.4952  -0.4952  -0.3642  -0.3642
    -0.2156  -0.2156  -0.1638  -0.1638  -0.0769  -0.0769  -0.0069  -0.0069
     0.9204   0.9204   2.1360   2.1360   2.5874   2.5874   3.2209   3.2210
     3.6973   3.6973   3.8630   3.8630

     occupation numbers 
     1.0000   1.0000   1.0000   1.0000   1.0000   1.0000   1.0000   1.0000
     1.0000   1.0000   1.0000   1.0000   1.0000   1.0000   1.0000   1.0000
     1.0000   1.0000   1.0000   1.0000   1.0000   1.0000   1.0000   1.0000
     1.0000   1.0000   1.0000   1.0000   1.0000   1.0000   1.0000   1.0000
     1.0000   1.0000   1.0000   1.0000

          k = 0.0000-0.2887 0.1985 (  4890 PWs)   bands (ev):

   -12.1021 -12.1021 -11.9592 -11.9592  -0.8552  -0.8552  -0.7650  -0.7650
    -0.6354  -0.6354  -0.5988  -0.5988  -0.5362  -0.5362  -0.5208  -0.5208
    -0.1749  -0.1749  -0.1457  -0.1457  -0.0958  -0.0958  -0.0683  -0.0683
     1.3422   1.3422   2.0103   2.0103   2.7430   2.7430   3.3588   3.3588
     3.4831   3.4831   3.7289   3.7289

     occupation numbers 
     1.0000   1.0000   1.0000   1.0000   1.0000   1.0000   1.0000   1.0000
     1.0000   1.0000   1.0000   1.0000   1.0000   1.0000   1.0000   1.0000
     1.0000   1.0000   1.0000   1.0000   1.0000   1.0000   1.0000   1.0000
     1.0000   1.0000   1.0000   1.0000   1.0000   1.0000   1.0000   1.0000
     1.0000   1.0000   1.0000   1.0000

          k = 0.0000-0.2887-0.2978 (  4872 PWs)   bands (ev):

   -12.0308 -12.0308 -12.0308 -12.0308  -0.8310  -0.8309  -0.8309  -0.8309
    -0.5878  -0.5878  -0.5878  -0.5878  -0.5876  -0.5876  -0.5876  -0.5876
    -0.1220  -0.1220  -0.1220  -0.1220  -0.1206  -0.1206  -0.1206  -0.1206
     1.7188   1.7188   1.7188   1.7188   3.1147   3.1147   3.1147   3.1147
     3.5448   3.5448   3.5448   3.5448

     occupation numbers 
     1.0000   1.0000   1.0000   1.0000   1.0000   1.0000   1.0000   1.0000
     1.0000   1.0000   1.0000   1.0000   1.0000   1.0000   1.0000   1.0000
     1.0000   1.0000   1.0000   1.0000   1.0000   1.0000   1.0000   1.0000
     1.0000   1.0000   1.0000   1.0000   1.0000   1.0000   1.0000   1.0000
     1.0000   1.0000   1.0000   1.0000

          k = 0.1667 0.0962 0.0000 (  4875 PWs)   bands (ev):

   -12.2677 -11.9537 -11.9281 -11.8304  -0.8038  -0.7769  -0.7694  -0.7168
    -0.6193  -0.6167  -0.5609  -0.5342  -0.3898  -0.3214  -0.2885  -0.2574
    -0.2191  -0.1861  -0.1814  -0.1450  -0.0742  -0.0311   0.0252   0.0960
     0.4432   0.9624   1.3982   2.0271   2.3378   2.7997   3.0996   3.1740
     3.3624   3.4003   3.9199   4.0401

     occupation numbers 
     1.0000   1.0000   1.0000   1.0000   1.0000   1.0000   1.0000   1.0000
     1.0000   1.0000   1.0000   1.0000   1.0000   1.0000   1.0000   1.0000
     1.0000   1.0000   1.0000   1.0000   1.0000   1.0000   1.0000   1.0000
     1.0000   1.0000   1.0000   1.0000   1.0000   1.0000   1.0000   1.0000
     1.0000   1.0000   1.0000   1.0000

          k = 0.1667 0.0962 0.0993 (  4875 PWs)   bands (ev):

   -12.2455 -11.9514 -11.9449 -11.8381  -0.8265  -0.7715  -0.7532  -0.7087
    -0.6403  -0.6328  -0.5739  -0.5556  -0.4090  -0.4031  -0.3425  -0.3174
    -0.2036  -0.1824  -0.1776  -0.1216  -0.0803  -0.0430  -0.0295   0.0816
     0.7732   0.9416   1.3624   2.1548   2.4527   2.7406   3.0512   3.2060
     3.3126   3.4440   3.8457   3.9978

     occupation numbers 
     1.0000   1.0000   1.0000   1.0000   1.0000   1.0000   1.0000   1.0000
     1.0000   1.0000   1.0000   1.0000   1.0000   1.0000   1.0000   1.0000
     1.0000   1.0000   1.0000   1.0000   1.0000   1.0000   1.0000   1.0000
     1.0000   1.0000   1.0000   1.0000   1.0000   1.0000   1.0000   1.0000
     1.0000   1.0000   1.0000   1.0000

          k = 0.1667 0.0962 0.1985 (  4882 PWs)   bands (ev):

   -12.1844 -12.0146 -11.9212 -11.8595  -0.8481  -0.7682  -0.7524  -0.6900
    -0.6850  -0.6760  -0.6075  -0.5935  -0.5775  -0.4284  -0.3976  -0.3658
    -0.1691  -0.1552  -0.1489  -0.1069  -0.0990  -0.0864  -0.0196   0.0455
     0.9699   1.2313   1.3311   2.4036   2.4276   2.7746   3.0496   3.1550
     3.3087   3.5624   3.6457   3.8820

     occupation numbers 
     1.0000   1.0000   1.0000   1.0000   1.0000   1.0000   1.0000   1.0000
     1.0000   1.0000   1.0000   1.0000   1.0000   1.0000   1.0000   1.0000
     1.0000   1.0000   1.0000   1.0000   1.0000   1.0000   1.0000   1.0000
     1.0000   1.0000   1.0000   1.0000   1.0000   1.0000   1.0000   1.0000
     1.0000   1.0000   1.0000   1.0000

          k = 0.1667 0.0962-0.2978 (  4872 PWs)   bands (ev):

   -12.1000 -12.1000 -11.8898 -11.8898  -0.8231  -0.8231  -0.7500  -0.7500
    -0.6609  -0.6609  -0.6486  -0.6486  -0.5178  -0.5178  -0.3925  -0.3925
    -0.1267  -0.1267  -0.1260  -0.1260  -0.1168  -0.1168   0.0062   0.0062
     1.0790   1.0790   1.9008   1.9008   2.7315   2.7315   3.1517   3.1517
     3.3866   3.3866   3.7229   3.7229

     occupation numbers 
     1.0000   1.0000   1.0000   1.0000   1.0000   1.0000   1.0000   1.0000
     1.0000   1.0000   1.0000   1.0000   1.0000   1.0000   1.0000   1.0000
     1.0000   1.0000   1.0000   1.0000   1.0000   1.0000   1.0000   1.0000
     1.0000   1.0000   1.0000   1.0000   1.0000   1.0000   1.0000   1.0000
     1.0000   1.0000   1.0000   1.0000

          k = 0.1667 0.1925 0.0000 (  4889 PWs)   bands (ev):

   -12.2085 -12.0314 -11.9019 -11.8413  -0.8020  -0.7585  -0.7381  -0.7100
    -0.6605  -0.6388  -0.5948  -0.5070  -0.4801  -0.3549  -0.2766  -0.2517
    -0.2303  -0.2145  -0.1822  -0.1591  -0.0723  -0.0549   0.0539   0.0980
     0.5799   0.9894   1.6449   2.0563   2.4509   2.5715   2.6897   3.2573
     3.4442   3.5077   3.8243   3.9183

     occupation numbers 
     1.0000   1.0000   1.0000   1.0000   1.0000   1.0000   1.0000   1.0000
     1.0000   1.0000   1.0000   1.0000   1.0000   1.0000   1.0000   1.0000
     1.0000   1.0000   1.0000   1.0000   1.0000   1.0000   1.0000   1.0000
     1.0000   1.0000   1.0000   1.0000   1.0000   1.0000   1.0000   1.0000
     1.0000   1.0000   1.0000   1.0000

          k = 0.1667 0.1925 0.0993 (  4887 PWs)   bands (ev):

   -12.1882 -12.0184 -11.9227 -11.8536  -0.8216  -0.7594  -0.7300  -0.7008
    -0.6996  -0.6096  -0.6090  -0.5213  -0.4908  -0.3784  -0.3781  -0.3397
    -0.2225  -0.2149  -0.1711  -0.1282  -0.0792  -0.0584  -0.0179   0.0603
     0.8671   1.0502   1.6313   2.2054   2.4106   2.6115   2.7084   3.2820
     3.4247   3.4732   3.7633   3.8711

     occupation numbers 
     1.0000   1.0000   1.0000   1.0000   1.0000   1.0000   1.0000   1.0000
     1.0000   1.0000   1.0000   1.0000   1.0000   1.0000   1.0000   1.0000
     1.0000   1.0000   1.0000   1.0000   1.0000   1.0000   1.0000   1.0000
     1.0000   1.0000   1.0000   1.0000   1.0000   1.0000   1.0000   1.0000
     1.0000   1.0000   1.0000   1.0000

          k = 0.1667 0.1925 0.1985 (  4884 PWs)   bands (ev):

   -12.1327 -11.9829 -11.9793 -11.8877  -0.8432  -0.7773  -0.7490  -0.7325
    -0.6765  -0.6343  -0.5794  -0.5577  -0.5489  -0.5113  -0.4576  -0.4368
    -0.1741  -0.1705  -0.1502  -0.1096  -0.0978  -0.0736  -0.0644  -0.0051
     1.1843   1.3542   1.5190   2.1816   2.6010   2.7708   2.8932   3.2432
     3.3793   3.4016   3.5588   3.7413

     occupation numbers 
     1.0000   1.0000   1.0000   1.0000   1.0000   1.0000   1.0000   1.0000
     1.0000   1.0000   1.0000   1.0000   1.0000   1.0000   1.0000   1.0000
     1.0000   1.0000   1.0000   1.0000   1.0000   1.0000   1.0000   1.0000
     1.0000   1.0000   1.0000   1.0000   1.0000   1.0000   1.0000   1.0000
     1.0000   1.0000   1.0000   1.0000

          k = 0.1667 0.1925-0.2978 (  4888 PWs)   bands (ev):

   -12.0563 -12.0563 -11.9350 -11.9349  -0.8193  -0.8193  -0.7717  -0.7717
    -0.6435  -0.6435  -0.5934  -0.5934  -0.5324  -0.5324  -0.4928  -0.4928
    -0.1267  -0.1267  -0.1205  -0.1205  -0.1177  -0.1177  -0.0565  -0.0565
     1.3501   1.3501   1.8123   1.8123   2.9349   2.9349   3.1481   3.1482
     3.2108   3.2108   3.5678   3.5678

     occupation numbers 
     1.0000   1.0000   1.0000   1.0000   1.0000   1.0000   1.0000   1.0000
     1.0000   1.0000   1.0000   1.0000   1.0000   1.0000   1.0000   1.0000
     1.0000   1.0000   1.0000   1.0000   1.0000   1.0000   1.0000   1.0000
     1.0000   1.0000   1.0000   1.0000   1.0000   1.0000   1.0000   1.0000
     1.0000   1.0000   1.0000   1.0000

          k = 0.1667 0.2887 0.0000 (  4918 PWs)   bands (ev):

   -12.1236 -12.1236 -11.8687 -11.8687  -0.7582  -0.7582  -0.7286  -0.7286
    -0.6881  -0.6880  -0.5511  -0.5511  -0.4299  -0.4299  -0.2476  -0.2476
    -0.2429  -0.2428  -0.1694  -0.1694  -0.0678  -0.0678   0.0756   0.0756
     0.7988   0.7988   2.0939   2.0939   2.2313   2.2313   2.9558   2.9558
     3.6677   3.6677   3.7136   3.7136

     occupation numbers 
     1.0000   1.0000   1.0000   1.0000   1.0000   1.0000   1.0000   1.0000
     1.0000   1.0000   1.0000   1.0000   1.0000   1.0000   1.0000   1.0000
     1.0000   1.0000   1.0000   1.0000   1.0000   1.0000   1.0000   1.0000
     1.0000   1.0000   1.0000   1.0000   1.0000   1.0000   1.0000   1.0000
     1.0000   1.0000   1.0000   1.0000

          k = 0.1667 0.2887 0.0993 (  4888 PWs)   bands (ev):

   -12.1065 -12.1065 -11.8857 -11.8857  -0.7836  -0.7836  -0.7260  -0.7260
    -0.6710  -0.6710  -0.5619  -0.5619  -0.4468  -0.4468  -0.3530  -0.3530
    -0.2271  -0.2271  -0.1504  -0.1504  -0.0740  -0.0740   0.0180   0.0180
     0.9944   0.9944   2.0356   2.0356   2.3482   2.3482   2.9764   2.9764
     3.6412   3.6412   3.6551   3.6551

     occupation numbers 
     1.0000   1.0000   1.0000   1.0000   1.0000   1.0000   1.0000   1.0000
     1.0000   1.0000   1.0000   1.0000   1.0000   1.0000   1.0000   1.0000
     1.0000   1.0000   1.0000   1.0000   1.0000   1.0000   1.0000   1.0000
     1.0000   1.0000   1.0000   1.0000   1.0000   1.0000   1.0000   1.0000
     1.0000   1.0000   1.0000   1.0000

          k = 0.1667 0.2887 0.1985 (  4878 PWs)   bands (ev):

   -12.0598 -12.0598 -11.9323 -11.9322  -0.8135  -0.8135  -0.7438  -0.7438
    -0.6411  -0.6411  -0.5804  -0.5804  -0.5066  -0.5066  -0.4908  -0.4908
    -0.1768  -0.1768  -0.1320  -0.1320  -0.0894  -0.0894  -0.0488  -0.0488
     1.3273   1.3273   1.8664   1.8664   2.6770   2.6770   3.0794   3.0794
     3.4810   3.4810   3.4985   3.4985

     occupation numbers 
     1.0000   1.0000   1.0000   1.0000   1.0000   1.0000   1.0000   1.0000
     1.0000   1.0000   1.0000   1.0000   1.0000   1.0000   1.0000   1.0000
     1.0000   1.0000   1.0000   1.0000   1.0000   1.0000   1.0000   1.0000
     1.0000   1.0000   1.0000   1.0000   1.0000   1.0000   1.0000   1.0000
     1.0000   1.0000   1.0000   1.0000

          k = 0.1667 0.2887-0.2978 (  4892 PWs)   bands (ev):

   -11.9960 -11.9960 -11.9960 -11.9960  -0.7982  -0.7982  -0.7982  -0.7982
    -0.6033  -0.6033  -0.6033  -0.6033  -0.5374  -0.5373  -0.5373  -0.5373
    -0.1229  -0.1229  -0.1229  -0.1229  -0.1010  -0.1010  -0.1010  -0.1010
     1.6228   1.6228   1.6228   1.6228   3.0915   3.0915   3.0916   3.0916
     3.3067   3.3067   3.3067   3.3067

     occupation numbers 
     1.0000   1.0000   1.0000   1.0000   1.0000   1.0000   1.0000   1.0000
     1.0000   1.0000   1.0000   1.0000   1.0000   1.0000   1.0000   1.0000
     1.0000   1.0000   1.0000   1.0000   1.0000   1.0000   1.0000   1.0000
     1.0000   1.0000   1.0000   1.0000   1.0000   1.0000   1.0000   1.0000
     1.0000   1.0000   1.0000   1.0000

          k = 0.1667 0.0000 0.0000 (  4881 PWs)   bands (ev):

   -12.2889 -11.9380 -11.9193 -11.8322  -0.7924  -0.7831  -0.7781  -0.7330
    -0.6251  -0.6116  -0.5779  -0.4696  -0.3839  -0.3042  -0.2607  -0.2568
    -0.2103  -0.1893  -0.1639  -0.1271  -0.0752   0.0094   0.0134   0.0294
     0.4020   0.8761   1.3686   1.9341   2.4044   3.0068   3.0870   3.0931
     3.3100   3.4968   3.9537   4.0536

     occupation numbers 
     1.0000   1.0000   1.0000   1.0000   1.0000   1.0000   1.0000   1.0000
     1.0000   1.0000   1.0000   1.0000   1.0000   1.0000   1.0000   1.0000
     1.0000   1.0000   1.0000   1.0000   1.0000   1.0000   1.0000   1.0000
     1.0000   1.0000   1.0000   1.0000   1.0000   1.0000   1.0000   1.0000
     1.0000   1.0000   1.0000   1.0000

          k = 0.1667 0.0000 0.0993 (  4879 PWs)   bands (ev):

   -12.2660 -11.9621 -11.9128 -11.8374  -0.8217  -0.7760  -0.7526  -0.7273
    -0.6412  -0.6187  -0.5903  -0.5392  -0.4223  -0.3767  -0.3270  -0.2725
    -0.1979  -0.1795  -0.1495  -0.1247  -0.0815  -0.0515   0.0194   0.0346
     0.7412   0.8540   1.2829   2.0585   2.5427   2.9207   3.0680   3.1441
     3.2525   3.5033   3.8901   4.0126

     occupation numbers 
     1.0000   1.0000   1.0000   1.0000   1.0000   1.0000   1.0000   1.0000
     1.0000   1.0000   1.0000   1.0000   1.0000   1.0000   1.0000   1.0000
     1.0000   1.0000   1.0000   1.0000   1.0000   1.0000   1.0000   1.0000
     1.0000   1.0000   1.0000   1.0000   1.0000   1.0000   1.0000   1.0000
     1.0000   1.0000   1.0000   1.0000

          k = 0.1667 0.0000 0.1985 (  4876 PWs)   bands (ev):

   -12.2030 -12.0275 -11.8956 -11.8520  -0.8442  -0.7670  -0.7343  -0.7211
    -0.6840  -0.6595  -0.6216  -0.6102  -0.5991  -0.4114  -0.3595  -0.3074
    -0.1658  -0.1561  -0.1270  -0.1206  -0.0996  -0.0892   0.0325   0.0435
     0.8625   1.1096   1.3175   2.3318   2.4838   2.8685   2.9514   3.2538
     3.2874   3.5860   3.7281   3.9008

     occupation numbers 
     1.0000   1.0000   1.0000   1.0000   1.0000   1.0000   1.0000   1.0000
     1.0000   1.0000   1.0000   1.0000   1.0000   1.0000   1.0000   1.0000
     1.0000   1.0000   1.0000   1.0000   1.0000   1.0000   1.0000   1.0000
     1.0000   1.0000   1.0000   1.0000   1.0000   1.0000   1.0000   1.0000
     1.0000   1.0000   1.0000   1.0000

          k = 0.1667 0.0000-0.2978 (  4864 PWs)   bands (ev):

   -12.1159 -12.1159 -11.8732 -11.8731  -0.8184  -0.8184  -0.7411  -0.7411
    -0.6850  -0.6850  -0.6552  -0.6552  -0.5203  -0.5203  -0.3356  -0.3356
    -0.1274  -0.1274  -0.1254  -0.1254  -0.1196  -0.1196   0.0433   0.0433
     0.9535   0.9535   1.9230   1.9230   2.6531   2.6531   3.1623   3.1623
     3.4914   3.4914   3.7512   3.7512

     occupation numbers 
     1.0000   1.0000   1.0000   1.0000   1.0000   1.0000   1.0000   1.0000
     1.0000   1.0000   1.0000   1.0000   1.0000   1.0000   1.0000   1.0000
     1.0000   1.0000   1.0000   1.0000   1.0000   1.0000   1.0000   1.0000
     1.0000   1.0000   1.0000   1.0000   1.0000   1.0000   1.0000   1.0000
     1.0000   1.0000   1.0000   1.0000

          k = 0.3333 0.1925 0.0000 (  4883 PWs)   bands (ev):

   -12.0706 -11.9537 -11.8521 -11.8304  -0.8209  -0.7768  -0.6970  -0.6520
    -0.6194  -0.5343  -0.4551  -0.3935  -0.3898  -0.3214  -0.3188  -0.2885
    -0.1865  -0.1813  -0.1450  -0.1380  -0.0640  -0.0311   0.0790   0.0960
     0.9236   0.9627   1.3982   1.5488   2.0272   2.1986   2.3375   2.9370
     3.1739   3.3622   3.5163   3.7780

     occupation numbers 
     1.0000   1.0000   1.0000   1.0000   1.0000   1.0000   1.0000   1.0000
     1.0000   1.0000   1.0000   1.0000   1.0000   1.0000   1.0000   1.0000
     1.0000   1.0000   1.0000   1.0000   1.0000   1.0000   1.0000   1.0000
     1.0000   1.0000   1.0000   1.0000   1.0000   1.0000   1.0000   1.0000
     1.0000   1.0000   1.0000   1.0000

          k = 0.3333 0.1925 0.0993 (  4870 PWs)   bands (ev):

   -12.0558 -11.9449 -11.8665 -11.8381  -0.8340  -0.7715  -0.7120  -0.6404
    -0.6367  -0.5556  -0.4642  -0.4128  -0.4031  -0.3647  -0.3425  -0.3174
    -0.1888  -0.1823  -0.1337  -0.1216  -0.0705  -0.0295   0.0288   0.0817
     0.9418   1.0137   1.3625   1.6172   2.1549   2.2343   2.4524   2.9954
     3.2059   3.3124   3.5093   3.7228

     occupation numbers 
     1.0000   1.0000   1.0000   1.0000   1.0000   1.0000   1.0000   1.0000
     1.0000   1.0000   1.0000   1.0000   1.0000   1.0000   1.0000   1.0000
     1.0000   1.0000   1.0000   1.0000   1.0000   1.0000   1.0000   1.0000
     1.0000   1.0000   1.0000   1.0000   1.0000   1.0000   1.0000   1.0000
     1.0000   1.0000   1.0000   1.0000

          k = 0.3333 0.1925 0.1985 (  4870 PWs)   bands (ev):

   -12.0154 -11.9212 -11.9060 -11.8595  -0.8512  -0.7682  -0.7655  -0.6900
    -0.5938  -0.5776  -0.4851  -0.4645  -0.4537  -0.4284  -0.3976  -0.3658
    -0.1569  -0.1488  -0.1223  -0.1069  -0.0866  -0.0414  -0.0196   0.0456
     0.9701   1.1865   1.2314   1.5691   2.4276   2.5488   2.7744   3.0494
     3.1527   3.3087   3.3788   3.5715

     occupation numbers 
     1.0000   1.0000   1.0000   1.0000   1.0000   1.0000   1.0000   1.0000
     1.0000   1.0000   1.0000   1.0000   1.0000   1.0000   1.0000   1.0000
     1.0000   1.0000   1.0000   1.0000   1.0000   1.0000   1.0000   1.0000
     1.0000   1.0000   1.0000   1.0000   1.0000   1.0000   1.0000   1.0000
     1.0000   1.0000   1.0000   1.0000

          k = 0.3333 0.1925-0.2978 (  4876 PWs)   bands (ev):

   -11.9605 -11.9605 -11.8898 -11.8898  -0.8306  -0.8306  -0.7500  -0.7500
    -0.5315  -0.5315  -0.5178  -0.5178  -0.4903  -0.4903  -0.3924  -0.3924
    -0.1167  -0.1167  -0.1054  -0.1054  -0.1029  -0.1029   0.0063   0.0063
     1.0791   1.0792   1.3836   1.3836   2.7313   2.7314   3.0239   3.0239
     3.1516   3.1516   3.3636   3.3636

     occupation numbers 
     1.0000   1.0000   1.0000   1.0000   1.0000   1.0000   1.0000   1.0000
     1.0000   1.0000   1.0000   1.0000   1.0000   1.0000   1.0000   1.0000
     1.0000   1.0000   1.0000   1.0000   1.0000   1.0000   1.0000   1.0000
     1.0000   1.0000   1.0000   1.0000   1.0000   1.0000   1.0000   1.0000
     1.0000   1.0000   1.0000   1.0000

          k = 0.3333 0.2887 0.0000 (  4858 PWs)   bands (ev):

   -12.0149 -12.0149 -11.8384 -11.8384  -0.7948  -0.7948  -0.6517  -0.6517
    -0.6450  -0.6450  -0.4012  -0.4012  -0.3631  -0.3631  -0.3196  -0.3196
    -0.1772  -0.1772  -0.1296  -0.1296  -0.0559  -0.0559   0.0888   0.0888
     0.9748   0.9748   1.4233   1.4233   2.0514   2.0514   2.7074   2.7074
     3.3709   3.3710   3.6286   3.6286

     occupation numbers 
     1.0000   1.0000   1.0000   1.0000   1.0000   1.0000   1.0000   1.0000
     1.0000   1.0000   1.0000   1.0000   1.0000   1.0000   1.0000   1.0000
     1.0000   1.0000   1.0000   1.0000   1.0000   1.0000   1.0000   1.0000
     1.0000   1.0000   1.0000   1.0000   1.0000   1.0000   1.0000   1.0000
     1.0000   1.0000   1.0000   1.0000

          k = 0.3333 0.2887 0.0993 (  4876 PWs)   bands (ev):

   -12.0027 -12.0027 -11.8498 -11.8498  -0.8061  -0.8061  -0.6805  -0.6805
    -0.6247  -0.6247  -0.4110  -0.4110  -0.3892  -0.3892  -0.3512  -0.3512
    -0.1781  -0.1781  -0.1177  -0.1177  -0.0606  -0.0606   0.0537   0.0537
     0.9776   0.9776   1.4676   1.4676   2.1612   2.1612   2.7708   2.7708
     3.3915   3.3915   3.5691   3.5691

     occupation numbers 
     1.0000   1.0000   1.0000   1.0000   1.0000   1.0000   1.0000   1.0000
     1.0000   1.0000   1.0000   1.0000   1.0000   1.0000   1.0000   1.0000
     1.0000   1.0000   1.0000   1.0000   1.0000   1.0000   1.0000   1.0000
     1.0000   1.0000   1.0000   1.0000   1.0000   1.0000   1.0000   1.0000
     1.0000   1.0000   1.0000   1.0000

          k = 0.3333 0.2887 0.1985 (  4868 PWs)   bands (ev):

   -11.9696 -11.9696 -11.8813 -11.8813  -0.8240  -0.8240  -0.7429  -0.7429
    -0.5822  -0.5822  -0.4421  -0.4421  -0.4321  -0.4321  -0.4190  -0.4190
    -0.1461  -0.1461  -0.1048  -0.1048  -0.0691  -0.0691  -0.0099  -0.0099
     1.0562   1.0562   1.3780   1.3780   2.5543   2.5543   2.9470   2.9470
     3.3085   3.3085   3.4263   3.4263

     occupation numbers 
     1.0000   1.0000   1.0000   1.0000   1.0000   1.0000   1.0000   1.0000
     1.0000   1.0000   1.0000   1.0000   1.0000   1.0000   1.0000   1.0000
     1.0000   1.0000   1.0000   1.0000   1.0000   1.0000   1.0000   1.0000
     1.0000   1.0000   1.0000   1.0000   1.0000   1.0000   1.0000   1.0000
     1.0000   1.0000   1.0000   1.0000

          k = 0.3333 0.2887-0.2978 (  4868 PWs)   bands (ev):

   -11.9251 -11.9250 -11.9250 -11.9250  -0.8072  -0.8072  -0.8072  -0.8072
    -0.5128  -0.5128  -0.5128  -0.5128  -0.4448  -0.4448  -0.4448  -0.4448
    -0.1074  -0.1074  -0.1074  -0.1074  -0.0611  -0.0611  -0.0611  -0.0611
     1.2066   1.2066   1.2066   1.2066   2.9940   2.9940   2.9940   2.9940
     3.2109   3.2109   3.2109   3.2109

     occupation numbers 
     1.0000   1.0000   1.0000   1.0000   1.0000   1.0000   1.0000   1.0000
     1.0000   1.0000   1.0000   1.0000   1.0000   1.0000   1.0000   1.0000
     1.0000   1.0000   1.0000   1.0000   1.0000   1.0000   1.0000   1.0000
     1.0000   1.0000   1.0000   1.0000   1.0000   1.0000   1.0000   1.0000
     1.0000   1.0000   1.0000   1.0000

          k = 0.3333-0.0962 0.0000 (  4868 PWs)   bands (ev):

   -12.1096 -11.8985 -11.8640 -11.8352  -0.8023  -0.7890  -0.7035  -0.6753
    -0.5552  -0.5194  -0.4520  -0.4218  -0.3348  -0.2838  -0.2785  -0.2475
    -0.2097  -0.2024  -0.1603  -0.1592  -0.0664   0.0031   0.0761   0.0767
     0.8343   1.0381   1.3139   1.7306   1.8365   2.3136   2.4017   2.9399
     2.9592   3.0941   3.6253   3.7634

     occupation numbers 
     1.0000   1.0000   1.0000   1.0000   1.0000   1.0000   1.0000   1.0000
     1.0000   1.0000   1.0000   1.0000   1.0000   1.0000   1.0000   1.0000
     1.0000   1.0000   1.0000   1.0000   1.0000   1.0000   1.0000   1.0000
     1.0000   1.0000   1.0000   1.0000   1.0000   1.0000   1.0000   1.0000
     1.0000   1.0000   1.0000   1.0000

          k = 0.3333-0.0962 0.0993 (  4877 PWs)   bands (ev):

   -12.0931 -11.8936 -11.8804 -11.8388  -0.8167  -0.7691  -0.7156  -0.6572
    -0.5860  -0.5298  -0.5009  -0.4396  -0.3540  -0.3453  -0.3156  -0.2628
    -0.2153  -0.1905  -0.1465  -0.1451  -0.0730   0.0140   0.0195   0.0837
     1.0044   1.0052   1.2589   1.8081   1.8618   2.3445   2.5668   2.9631
     3.0041   3.0761   3.5982   3.7103

     occupation numbers 
     1.0000   1.0000   1.0000   1.0000   1.0000   1.0000   1.0000   1.0000
     1.0000   1.0000   1.0000   1.0000   1.0000   1.0000   1.0000   1.0000
     1.0000   1.0000   1.0000   1.0000   1.0000   1.0000   1.0000   1.0000
     1.0000   1.0000   1.0000   1.0000   1.0000   1.0000   1.0000   1.0000
     1.0000   1.0000   1.0000   1.0000

          k = 0.3333-0.0962 0.1985 (  4871 PWs)   bands (ev):

   -12.0480 -11.9251 -11.8806 -11.8489  -0.8361  -0.7550  -0.7201  -0.6379
    -0.6189  -0.5841  -0.5494  -0.4909  -0.4819  -0.4414  -0.3232  -0.2903
    -0.1726  -0.1639  -0.1370  -0.1302  -0.0890  -0.0487   0.0425   0.0883
     0.9798   1.1343   1.2906   1.7687   2.0478   2.6158   2.7089   2.9269
     3.1413   3.2032   3.4312   3.5657

     occupation numbers 
[...]
    -0.1590  -0.1556  -0.1049  -0.0995  -0.0963  -0.0939  -0.0738  -0.0071
     0.9046   1.2183   1.2801   2.5735   2.6206   3.0001   3.2856   3.4547
     3.5794   3.7128   3.8888   3.9928

     occupation numbers 
     1.0000   1.0000   1.0000   1.0000   1.0000   1.0000   1.0000   1.0000
     1.0000   1.0000   1.0000   1.0000   1.0000   1.0000   1.0000   1.0000
     1.0000   1.0000   1.0000   1.0000   1.0000   1.0000   1.0000   1.0000
     1.0000   1.0000   1.0000   1.0000   1.0000   1.0000   1.0000   1.0000
     1.0000   1.0000   1.0000   1.0000

          k = 0.0000 0.1925-0.0993 (  4875 PWs)   bands (ev):

   -12.2455 -12.0558 -11.9514 -11.8665  -0.8341  -0.8266  -0.7533  -0.7120
    -0.7085  -0.6365  -0.6330  -0.5738  -0.4643  -0.4126  -0.4090  -0.3647
    -0.2036  -0.1889  -0.1776  -0.1338  -0.0803  -0.0705  -0.0431   0.0287
     0.7732   1.0136   1.6169   2.2341   2.7403   2.9959   3.0509   3.4444
     3.5093   3.7233   3.8456   3.9983

     occupation numbers 
     1.0000   1.0000   1.0000   1.0000   1.0000   1.0000   1.0000   1.0000
     1.0000   1.0000   1.0000   1.0000   1.0000   1.0000   1.0000   1.0000
     1.0000   1.0000   1.0000   1.0000   1.0000   1.0000   1.0000   1.0000
     1.0000   1.0000   1.0000   1.0000   1.0000   1.0000   1.0000   1.0000
     1.0000   1.0000   1.0000   1.0000

          k = 0.0000 0.1925-0.1985 (  4882 PWs)   bands (ev):

   -12.1844 -12.0154 -12.0146 -11.9060  -0.8512  -0.8481  -0.7656  -0.7524
    -0.6849  -0.6761  -0.6074  -0.5937  -0.5936  -0.4852  -0.4644  -0.4537
    -0.1691  -0.1569  -0.1553  -0.1223  -0.0990  -0.0866  -0.0864  -0.0415
     1.1863   1.3311   1.5689   2.4035   2.5487   3.1532   3.1546   3.3787
     3.5629   3.5720   3.6454   3.8825

     occupation numbers 
     1.0000   1.0000   1.0000   1.0000   1.0000   1.0000   1.0000   1.0000
     1.0000   1.0000   1.0000   1.0000   1.0000   1.0000   1.0000   1.0000
     1.0000   1.0000   1.0000   1.0000   1.0000   1.0000   1.0000   1.0000
     1.0000   1.0000   1.0000   1.0000   1.0000   1.0000   1.0000   1.0000
     1.0000   1.0000   1.0000   1.0000

          k =-0.1667 0.0962-0.0993 (  4875 PWs)   bands (ev):

   -12.2455 -11.9514 -11.9449 -11.8381  -0.8265  -0.7715  -0.7532  -0.7087
    -0.6403  -0.6328  -0.5739  -0.5556  -0.4090  -0.4031  -0.3425  -0.3174
    -0.2036  -0.1824  -0.1776  -0.1216  -0.0803  -0.0430  -0.0295   0.0816
     0.7732   0.9416   1.3624   2.1548   2.4527   2.7406   3.0512   3.2060
     3.3126   3.4440   3.8457   3.9978

     occupation numbers 
     1.0000   1.0000   1.0000   1.0000   1.0000   1.0000   1.0000   1.0000
     1.0000   1.0000   1.0000   1.0000   1.0000   1.0000   1.0000   1.0000
     1.0000   1.0000   1.0000   1.0000   1.0000   1.0000   1.0000   1.0000
     1.0000   1.0000   1.0000   1.0000   1.0000   1.0000   1.0000   1.0000
     1.0000   1.0000   1.0000   1.0000

          k =-0.1667 0.0962-0.1985 (  4882 PWs)   bands (ev):

   -12.1844 -12.0146 -11.9212 -11.8595  -0.8481  -0.7682  -0.7524  -0.6900
    -0.6850  -0.6760  -0.6075  -0.5935  -0.5775  -0.4284  -0.3976  -0.3658
    -0.1691  -0.1552  -0.1489  -0.1069  -0.0990  -0.0864  -0.0196   0.0455
     0.9699   1.2313   1.3311   2.4036   2.4276   2.7746   3.0496   3.1550
     3.3087   3.5624   3.6457   3.8820

     occupation numbers 
     1.0000   1.0000   1.0000   1.0000   1.0000   1.0000   1.0000   1.0000
     1.0000   1.0000   1.0000   1.0000   1.0000   1.0000   1.0000   1.0000
     1.0000   1.0000   1.0000   1.0000   1.0000   1.0000   1.0000   1.0000
     1.0000   1.0000   1.0000   1.0000   1.0000   1.0000   1.0000   1.0000
     1.0000   1.0000   1.0000   1.0000

          k =-0.1667 0.1925-0.0993 (  4887 PWs)   bands (ev):

   -12.1882 -12.0184 -11.9227 -11.8536  -0.8216  -0.7594  -0.7300  -0.7008
    -0.6996  -0.6096  -0.6090  -0.5213  -0.4908  -0.3784  -0.3781  -0.3397
    -0.2225  -0.2149  -0.1711  -0.1282  -0.0792  -0.0584  -0.0179   0.0603
     0.8671   1.0502   1.6313   2.2054   2.4106   2.6115   2.7084   3.2820
     3.4247   3.4732   3.7633   3.8711

     occupation numbers 
     1.0000   1.0000   1.0000   1.0000   1.0000   1.0000   1.0000   1.0000
     1.0000   1.0000   1.0000   1.0000   1.0000   1.0000   1.0000   1.0000
     1.0000   1.0000   1.0000   1.0000   1.0000   1.0000   1.0000   1.0000
     1.0000   1.0000   1.0000   1.0000   1.0000   1.0000   1.0000   1.0000
     1.0000   1.0000   1.0000   1.0000

          k =-0.1667 0.1925-0.1985 (  4884 PWs)   bands (ev):

   -12.1327 -11.9829 -11.9793 -11.8877  -0.8432  -0.7773  -0.7490  -0.7325
    -0.6765  -0.6343  -0.5794  -0.5577  -0.5489  -0.5113  -0.4576  -0.4368
    -0.1741  -0.1705  -0.1502  -0.1096  -0.0978  -0.0736  -0.0644  -0.0051
     1.1843   1.3542   1.5190   2.1816   2.6010   2.7708   2.8932   3.2432
     3.3793   3.4016   3.5588   3.7413

     occupation numbers 
     1.0000   1.0000   1.0000   1.0000   1.0000   1.0000   1.0000   1.0000
     1.0000   1.0000   1.0000   1.0000   1.0000   1.0000   1.0000   1.0000
     1.0000   1.0000   1.0000   1.0000   1.0000   1.0000   1.0000   1.0000
     1.0000   1.0000   1.0000   1.0000   1.0000   1.0000   1.0000   1.0000
     1.0000   1.0000   1.0000   1.0000

          k =-0.3333 0.1925-0.0993 (  4870 PWs)   bands (ev):

   -12.0558 -11.9449 -11.8665 -11.8381  -0.8340  -0.7715  -0.7120  -0.6404
    -0.6367  -0.5556  -0.4642  -0.4128  -0.4031  -0.3647  -0.3425  -0.3174
    -0.1888  -0.1823  -0.1337  -0.1216  -0.0705  -0.0295   0.0288   0.0817
     0.9418   1.0137   1.3626   1.6172   2.1549   2.2343   2.4524   2.9954
     3.2059   3.3124   3.5093   3.7228

     occupation numbers 
     1.0000   1.0000   1.0000   1.0000   1.0000   1.0000   1.0000   1.0000
     1.0000   1.0000   1.0000   1.0000   1.0000   1.0000   1.0000   1.0000
     1.0000   1.0000   1.0000   1.0000   1.0000   1.0000   1.0000   1.0000
     1.0000   1.0000   1.0000   1.0000   1.0000   1.0000   1.0000   1.0000
     1.0000   1.0000   1.0000   1.0000

          k =-0.3333 0.1925-0.1985 (  4870 PWs)   bands (ev):

   -12.0154 -11.9212 -11.9060 -11.8595  -0.8512  -0.7682  -0.7655  -0.6900
    -0.5938  -0.5776  -0.4851  -0.4645  -0.4537  -0.4284  -0.3976  -0.3658
    -0.1569  -0.1488  -0.1223  -0.1069  -0.0866  -0.0414  -0.0196   0.0456
     0.9701   1.1865   1.2314   1.5691   2.4276   2.5488   2.7744   3.0494
     3.1527   3.3087   3.3788   3.5715

     occupation numbers 
     1.0000   1.0000   1.0000   1.0000   1.0000   1.0000   1.0000   1.0000
     1.0000   1.0000   1.0000   1.0000   1.0000   1.0000   1.0000   1.0000
     1.0000   1.0000   1.0000   1.0000   1.0000   1.0000   1.0000   1.0000
     1.0000   1.0000   1.0000   1.0000   1.0000   1.0000   1.0000   1.0000
     1.0000   1.0000   1.0000   1.0000

          k =-0.3333-0.0962-0.0993 (  4877 PWs)   bands (ev):

   -12.0931 -11.8936 -11.8804 -11.8388  -0.8167  -0.7691  -0.7156  -0.6572
    -0.5860  -0.5298  -0.5009  -0.4396  -0.3540  -0.3453  -0.3156  -0.2628
    -0.2153  -0.1905  -0.1465  -0.1451  -0.0730   0.0140   0.0195   0.0837
     1.0044   1.0052   1.2589   1.8081   1.8618   2.3445   2.5668   2.9631
     3.0041   3.0761   3.5982   3.7103

     occupation numbers 
     1.0000   1.0000   1.0000   1.0000   1.0000   1.0000   1.0000   1.0000
     1.0000   1.0000   1.0000   1.0000   1.0000   1.0000   1.0000   1.0000
     1.0000   1.0000   1.0000   1.0000   1.0000   1.0000   1.0000   1.0000
     1.0000   1.0000   1.0000   1.0000   1.0000   1.0000   1.0000   1.0000
     1.0000   1.0000   1.0000   1.0000

          k =-0.3333-0.0962-0.1985 (  4871 PWs)   bands (ev):

   -12.0480 -11.9251 -11.8806 -11.8489  -0.8361  -0.7550  -0.7201  -0.6379
    -0.6189  -0.5841  -0.5494  -0.4909  -0.4819  -0.4414  -0.3232  -0.2903
    -0.1726  -0.1639  -0.1370  -0.1302  -0.0890  -0.0487   0.0425   0.0883
     0.9798   1.1343   1.2906   1.7687   2.0478   2.6158   2.7089   2.9269
     3.1413   3.2032   3.4312   3.5657

     occupation numbers 
     1.0000   1.0000   1.0000   1.0000   1.0000   1.0000   1.0000   1.0000
     1.0000   1.0000   1.0000   1.0000   1.0000   1.0000   1.0000   1.0000
     1.0000   1.0000   1.0000   1.0000   1.0000   1.0000   1.0000   1.0000
     1.0000   1.0000   1.0000   1.0000   1.0000   1.0000   1.0000   1.0000
     1.0000   1.0000   1.0000   1.0000

          k = 0.5000-0.1925-0.0993 (  4866 PWs)   bands (ev):

   -11.9428 -11.9428 -11.8391 -11.8391  -0.8007  -0.8007  -0.6320  -0.6320
    -0.6075  -0.6075  -0.4223  -0.4223  -0.3363  -0.3363  -0.2668  -0.2668
    -0.1293  -0.1293  -0.0988  -0.0988  -0.0366  -0.0366   0.0371   0.0371
     0.7985   0.7985   1.2963   1.2963   2.1670   2.1671   2.6694   2.6694
     3.2028   3.2028   3.4866   3.4866

     occupation numbers 
     1.0000   1.0000   1.0000   1.0000   1.0000   1.0000   1.0000   1.0000
     1.0000   1.0000   1.0000   1.0000   1.0000   1.0000   1.0000   1.0000
     1.0000   1.0000   1.0000   1.0000   1.0000   1.0000   1.0000   1.0000
     1.0000   1.0000   1.0000   1.0000   1.0000   1.0000   1.0000   1.0000
     1.0000   1.0000   1.0000   1.0000

          k = 0.5000-0.1925-0.1985 (  4878 PWs)   bands (ev):

   -11.9197 -11.9197 -11.8598 -11.8598  -0.8165  -0.8165  -0.7222  -0.7222
    -0.5754  -0.5754  -0.4063  -0.4063  -0.4010  -0.4010  -0.3160  -0.3160
    -0.1064  -0.1064  -0.0937  -0.0937  -0.0300  -0.0300   0.0161   0.0161
     0.8261   0.8261   1.1210   1.1210   2.5727   2.5727   2.8812   2.8812
     3.2026   3.2026   3.3455   3.3455

     occupation numbers 
     1.0000   1.0000   1.0000   1.0000   1.0000   1.0000   1.0000   1.0000
     1.0000   1.0000   1.0000   1.0000   1.0000   1.0000   1.0000   1.0000
     1.0000   1.0000   1.0000   1.0000   1.0000   1.0000   1.0000   1.0000
     1.0000   1.0000   1.0000   1.0000   1.0000   1.0000   1.0000   1.0000
     1.0000   1.0000   1.0000   1.0000

          k = 0.5000-0.0962-0.0993 (  4870 PWs)   bands (ev):

   -11.9449 -11.9449 -11.8381 -11.8381  -0.7715  -0.7715  -0.6404  -0.6404
    -0.5555  -0.5555  -0.4031  -0.4031  -0.3426  -0.3425  -0.3175  -0.3175
    -0.1824  -0.1824  -0.1216  -0.1216  -0.0294  -0.0294   0.0817   0.0817
     0.9419   0.9419   1.3627   1.3627   2.1546   2.1546   2.4524   2.4524
     3.2058   3.2058   3.3123   3.3124

     occupation numbers 
     1.0000   1.0000   1.0000   1.0000   1.0000   1.0000   1.0000   1.0000
     1.0000   1.0000   1.0000   1.0000   1.0000   1.0000   1.0000   1.0000
     1.0000   1.0000   1.0000   1.0000   1.0000   1.0000   1.0000   1.0000
     1.0000   1.0000   1.0000   1.0000   1.0000   1.0000   1.0000   1.0000
     1.0000   1.0000   1.0000   1.0000

          k = 0.5000-0.0962-0.1985 (  4870 PWs)   bands (ev):

   -11.9212 -11.9212 -11.8595 -11.8595  -0.7682  -0.7682  -0.6900  -0.6900
    -0.5776  -0.5776  -0.4283  -0.4283  -0.3976  -0.3976  -0.3658  -0.3658
    -0.1489  -0.1489  -0.1069  -0.1068  -0.0195  -0.0195   0.0456   0.0456
     0.9701   0.9701   1.2315   1.2315   2.4274   2.4274   2.7745   2.7745
     3.0493   3.0493   3.3087   3.3087

     occupation numbers 
     1.0000   1.0000   1.0000   1.0000   1.0000   1.0000   1.0000   1.0000
     1.0000   1.0000   1.0000   1.0000   1.0000   1.0000   1.0000   1.0000
     1.0000   1.0000   1.0000   1.0000   1.0000   1.0000   1.0000   1.0000
     1.0000   1.0000   1.0000   1.0000   1.0000   1.0000   1.0000   1.0000
     1.0000   1.0000   1.0000   1.0000

     highest occupied level (ev):     4.1634

!    total energy              =    -723.16674063 Ry
     estimated scf accuracy    <          6.7E-09 Ry

     The total energy is the sum of the following terms:
     one-electron contribution =    -356.30779159 Ry
     hartree contribution      =     253.65504177 Ry
     xc contribution           =    -218.30665661 Ry
     ewald contribution        =    -402.20733421 Ry

     convergence has been achieved in  42 iterations

     Forces acting on atoms (cartesian axes, Ry/au):

     atom    1 type  1   force =     0.00000000   -0.00000029    0.00586122
     atom    2 type  2   force =     0.00000000    0.00000351   -0.00585972
     atom    3 type  1   force =     0.00000000    0.00000104    0.00585983
     atom    4 type  2   force =     0.00000000   -0.00000271   -0.00586011
     atom    5 type  1   force =     0.00000000    0.00000268    0.00586081
     atom    6 type  2   force =     0.00000000    0.00000312   -0.00586016
     atom    7 type  1   force =     0.00000000   -0.00000406    0.00585835
     atom    8 type  2   force =     0.00000000   -0.00000330   -0.00586023
     The non-local contrib.  to forces
     atom    1 type  1   force =     0.00000000    0.00000967   -0.04426282
     atom    2 type  2   force =     0.00000000    0.00024185   -0.04800200
     atom    3 type  1   force =     0.00000000   -0.00000994   -0.04426522
     atom    4 type  2   force =     0.00000000   -0.00024166   -0.04800103
     atom    5 type  1   force =     0.00000000    0.00001283   -0.04426320
     atom    6 type  2   force =     0.00000000    0.00024283   -0.04800224
     atom    7 type  1   force =     0.00000000   -0.00001252   -0.04426552
     atom    8 type  2   force =     0.00000000   -0.00024457   -0.04800120
     The ionic contribution  to forces
     atom    1 type  1   force =    -0.00000000   -0.00000000   -0.41007870
     atom    2 type  2   force =     0.00000000    0.00000000    0.41007870
     atom    3 type  1   force =     0.00000000    0.00000000   -0.41007870
     atom    4 type  2   force =    -0.00000000   -0.00000000    0.41007870
     atom    5 type  1   force =    -0.00000000   -0.00000000   -0.41007870
     atom    6 type  2   force =    -0.00000000    0.00000000    0.41007870
     atom    7 type  1   force =    -0.00000000    0.00000000   -0.41007870
     atom    8 type  2   force =    -0.00000000   -0.00000000    0.41007870
     The local contribution  to forces
     atom    1 type  1   force =    -0.00000000   -0.00000095    0.45813438
     atom    2 type  2   force =    -0.00000000   -0.00023806   -0.36837193
     atom    3 type  1   force =     0.00000000    0.00000096    0.45813928
     atom    4 type  2   force =     0.00000000    0.00023703   -0.36837125
     atom    5 type  1   force =    -0.00000000   -0.00000805    0.45813635
     atom    6 type  2   force =    -0.00000000   -0.00023522   -0.36837412
     atom    7 type  1   force =     0.00000000    0.00000914    0.45814129
     atom    8 type  2   force =     0.00000000    0.00023562   -0.36837212
     The core correction contribution to forces
     atom    1 type  1   force =     0.00000000   -0.00000665    0.00206943
     atom    2 type  2   force =     0.00000000   -0.00000274    0.00043730
     atom    3 type  1   force =    -0.00000000    0.00000666    0.00206932
     atom    4 type  2   force =    -0.00000000    0.00000274    0.00043730
     atom    5 type  1   force =    -0.00000000   -0.00000649    0.00206931
     atom    6 type  2   force =     0.00000000   -0.00000275    0.00043730
     atom    7 type  1   force =     0.00000000    0.00000652    0.00206919
     atom    8 type  2   force =     0.00000000    0.00000277    0.00043730
     The Hubbard contrib.    to forces
     atom    1 type  1   force =     0.00000000    0.00000000    0.00000000
     atom    2 type  2   force =     0.00000000    0.00000000    0.00000000
     atom    3 type  1   force =     0.00000000    0.00000000    0.00000000
     atom    4 type  2   force =     0.00000000    0.00000000    0.00000000
     atom    5 type  1   force =     0.00000000    0.00000000    0.00000000
     atom    6 type  2   force =     0.00000000    0.00000000    0.00000000
     atom    7 type  1   force =     0.00000000    0.00000000    0.00000000
     atom    8 type  2   force =     0.00000000    0.00000000    0.00000000
     The SCF correction term to forces
     atom    1 type  1   force =     0.00000000   -0.00000262   -0.00000054
     atom    2 type  2   force =     0.00000000    0.00000221   -0.00000128
     atom    3 type  1   force =     0.00000000    0.00000310   -0.00000433
     atom    4 type  2   force =    -0.00000000   -0.00000107   -0.00000330
     atom    5 type  1   force =     0.00000000    0.00000413   -0.00000242
     atom    6 type  2   force =     0.00000000   -0.00000201    0.00000073
     atom    7 type  1   force =     0.00000000   -0.00000746   -0.00000739
     atom    8 type  2   force =    -0.00000000    0.00000263   -0.00000238

     Total force =     0.016575     Total SCF correction =     0.000014

     init_run     :      6.12s CPU      6.42s WALL (       1 calls)
     electrons    :    442.42s CPU    465.97s WALL (       1 calls)
     forces       :      1.77s CPU      1.84s WALL (       1 calls)

     Called by init_run:
     wfcinit      :      3.96s CPU      4.18s WALL (       1 calls)
     wfcinit:atom :      0.07s CPU      0.07s WALL (      40 calls)
     wfcinit:wfcr :      3.57s CPU      3.79s WALL (      40 calls)
     potinit      :      0.73s CPU      0.74s WALL (       1 calls)
     hinit0       :      1.20s CPU      1.22s WALL (       1 calls)

     Called by electrons:
     c_bands      :    380.04s CPU    397.33s WALL (      42 calls)
     sum_band     :     53.97s CPU     58.65s WALL (      42 calls)
     v_of_rho     :      2.99s CPU      3.10s WALL (      43 calls)
     v_h          :      0.14s CPU      0.16s WALL (      43 calls)
     v_xc         :      2.91s CPU      3.01s WALL (      44 calls)
     newd         :      4.96s CPU      6.43s WALL (      43 calls)
     mix_rho      :      0.43s CPU      0.47s WALL (      42 calls)

     Called by c_bands:
     init_us_2    :      4.14s CPU      4.21s WALL (    3440 calls)
     init_us_2:cp :      4.13s CPU      4.20s WALL (    3440 calls)
     cegterg      :    354.25s CPU    371.45s WALL (    1680 calls)

     Called by sum_band:
     sum_band:wei :      0.00s CPU      0.00s WALL (      42 calls)
     sum_band:loo :     47.91s CPU     50.96s WALL (      42 calls)
     sum_band:buf :      0.31s CPU      0.32s WALL (    1680 calls)
     sum_band:ini :      1.96s CPU      1.99s WALL (    1680 calls)
     sum_band:cal :      5.37s CPU      5.53s WALL (    1680 calls)
     sum_band:bec :      0.12s CPU      0.12s WALL (    1680 calls)
     addusdens    :      5.35s CPU      6.91s WALL (      42 calls)
                                        0.00s GPU  (      42 calls)
     addusd:skk   :      0.03s CPU      0.03s WALL (      84 calls)
                                        0.00s GPU  (      84 calls)

     Called by *egterg:
     cdiaghg      :     27.60s CPU     27.64s WALL (    7926 calls)
     cegterg:over :     15.85s CPU     16.25s WALL (    6246 calls)
     cegterg:upda :     10.28s CPU     10.31s WALL (    6246 calls)
     cegterg:last :     20.25s CPU     20.28s WALL (    4063 calls)
     h_psi        :    256.75s CPU    273.45s WALL (    7966 calls)
     s_psi        :     18.38s CPU     18.44s WALL (    7966 calls)
     g_psi        :      1.51s CPU      1.52s WALL (    6246 calls)

     Called by h_psi:
     h_psi:calbec :     16.94s CPU     17.63s WALL (    7966 calls)
     vloc_psi     :    219.89s CPU    235.79s WALL (    7966 calls)
     add_vuspsi   :     19.05s CPU     19.16s WALL (    7966 calls)

     General routines
     calbec       :     22.77s CPU     23.66s WALL (    9806 calls)
     fft          :      1.82s CPU      2.01s WALL (     568 calls)
     ffts         :      0.23s CPU      0.24s WALL (      85 calls)
     fftw         :    221.37s CPU    237.78s WALL (  411382 calls)
     interpolate  :      0.32s CPU      0.33s WALL (      43 calls)

     Parallel routines

     PWSCF        :   7m30.71s CPU   7m54.67s WALL


   This run was terminated on:  22: 2: 8  13Jul2025            

=------------------------------------------------------------------------------=
   JOB DONE.
=------------------------------------------------------------------------------=
Note: The following floating-point exceptions are signalling: IEEE_INVALID_FLAG
Note: The following floating-point exceptions are signalling: IEEE_INVALID_FLAG
