Authorization required, but no authorization protocol specified

Authorization required, but no authorization protocol specified

Authorization required, but no authorization protocol specified

Authorization required, but no authorization protocol specified

Authorization required, but no authorization protocol specified

Authorization required, but no authorization protocol specified

Authorization required, but no authorization protocol specified

Authorization required, but no authorization protocol specified

Authorization required, but no authorization protocol specified

Authorization required, but no authorization protocol specified


     Program PWSCF v.7.2 starts on 13Jul2025 at 17:45:25 

     This program is part of the open-source Quantum ESPRESSO suite
     for quantum simulation of materials; please cite
         "P. Giannozzi et al., J. Phys.:Condens. Matter 21 395502 (2009);
         "P. Giannozzi et al., J. Phys.:Condens. Matter 29 465901 (2017);
         "P. Giannozzi et al., J. Chem. Phys. 152 154105 (2020);
          URL http://www.quantum-espresso.org", 
     in publications or presentations arising from this work. More details at
     http://www.quantum-espresso.org/quote

     Parallel version (MPI), running on     8 processors

     MPI processes distributed on     1 nodes
     56491 MiB available memory on the printing compute node when the environment starts

     Reading input from /home/jvc/QEspresso7.2/ZnO_database/scripts/cell121.in/ZnO-3.27-1.68-121.in
Warning: card &CELL ignored
Warning: card / ignored
Warning: card &FCP ignored
Warning: card / ignored
Warning: card &RISM ignored
Warning: card / ignored

     Current dimensions of program PWSCF are:
     Max number of different atomic species (ntypx) = 10
     Max number of k-points (npk) =  40000
     Max angular momentum in pseudopotentials (lmaxx) =  4
     file Zn.upf: wavefunction(s)  3D renormalized
     Found identity + (  0.0000 -0.5000  0.0000) symmetry
     This is a supercell, fractional translations are disabled
     Message from routine setup:
     using ibrav=0 with symmetry is DISCOURAGED, use correct ibrav instead

     K-points division:     npool     =       2
     R & G space division:  proc/nbgrp/npool/nimage =       4
     Subspace diagonalization in iterative solution of the eigenvalue problem:
     a serial algorithm will be used


     Parallelization info
     --------------------
     sticks:   dense  smooth     PW     G-vecs:    dense   smooth      PW
     Min         525     261     82                23181     8187    1434
     Max         526     262     83                23184     8190    1436
     Sum        2103    1047    329                92729    32753    5739

     Using Slab Decomposition



     bravais-lattice index     =            0
     lattice parameter (alat)  =       6.1789  a.u.
     unit-cell volume          =     685.9899 (a.u.)^3
     number of atoms/cell      =            8
     number of atomic types    =            2
     number of electrons       =        72.00
     number of Kohn-Sham states=           36
     kinetic-energy cutoff     =      50.0000  Ry
     charge density cutoff     =     400.0000  Ry
     scf convergence threshold =      1.0E-08
     mixing beta               =       0.3000
     number of iterations used =            8  plain     mixing
     Exchange-correlation= PBE
                           (   1   4   3   4   0   0   0)

     celldm(1)=   6.178854  celldm(2)=   0.000000  celldm(3)=   0.000000
     celldm(4)=   0.000000  celldm(5)=   0.000000  celldm(6)=   0.000000

     crystal axes: (cart. coord. in units of alat)
               a(1) = (   1.000000   0.000000   0.000000 )  
               a(2) = (  -1.000000   1.732051   0.000000 )  
               a(3) = (   0.000000   0.000000   1.678933 )  

     reciprocal axes: (cart. coord. in units 2 pi/alat)
               b(1) = (  1.000000  0.577350 -0.000000 )  
               b(2) = (  0.000000  0.577350  0.000000 )  
               b(3) = (  0.000000 -0.000000  0.595616 )  


     PseudoPot. # 1 for Zn read from file:
     /home/jvc/QEspresso7.2/ZnO_database/pseudos/Zn.upf
     MD5 check sum: 7f56cabf9682ed8c977c2f7d0c5985c5
     Pseudo is Ultrasoft + core correction, Zval = 12.0
     Generated using &quot;atomic&quot; code by A. Dal Corso  v.6.2.2
     Using radial grid of 1201 points,  6 beta functions with: 
                l(1) =   0
                l(2) =   0
                l(3) =   1
                l(4) =   1
                l(5) =   2
                l(6) =   2
     Q(r) pseudized with 0 coefficients 


     PseudoPot. # 2 for O  read from file:
     /home/jvc/QEspresso7.2/ZnO_database/pseudos/O.upf
     MD5 check sum: 91400c9766925bcf19f520983a725ff0
     Pseudo is Ultrasoft + core correction, Zval =  6.0
     Generated using &quot;atomic&quot; code by A. Dal Corso  v.6.3MaX
     Using radial grid of 1095 points,  4 beta functions with: 
                l(1) =   0
                l(2) =   0
                l(3) =   1
                l(4) =   1
     Q(r) pseudized with 0 coefficients 


     atomic species   valence    mass     pseudopotential
        Zn            12.00    65.38000     Zn( 1.00)
        O              6.00    15.99900     O ( 1.00)

      2 Sym. Ops. (no inversion) found


                                    s                        frac. trans.

      isym =  1     identity                                     

 cryst.   s( 1) = (     1          0          0      )
                  (     0          1          0      )
                  (     0          0          1      )

 cart.    s( 1) = (  1.0000000  0.0000000  0.0000000 )
                  (  0.0000000  1.0000000  0.0000000 )
                  (  0.0000000  0.0000000  1.0000000 )


      isym =  2     inv. 180 deg rotation - cart. axis [1,0,0]   

 cryst.   s( 2) = (    -1          0          0      )
                  (     2          1          0      )
                  (     0          0          1      )

 cart.    s( 2) = ( -1.0000000  0.0000000  0.0000000 )
                  (  0.0000000  1.0000000  0.0000000 )
                  (  0.0000000  0.0000000  1.0000000 )


   Cartesian axes

     site n.     atom                  positions (alat units)
         1           Zn  tau(   1) = (   0.0000000   0.0000000   0.0000000  )
         2           O   tau(   2) = (   0.0000000   0.5773503   0.2211943  )
         3           Zn  tau(   3) = (   0.0000000   0.5773503   0.8394663  )
         4           O   tau(   4) = (   0.0000000   0.0000000   1.0606607  )
         5           Zn  tau(   5) = (  -0.5000000   0.8660254   0.0000000  )
         6           O   tau(   6) = (  -0.5000000   1.4433757   0.2211943  )
         7           Zn  tau(   7) = (  -0.5000000   1.4433757   0.8394663  )
         8           O   tau(   8) = (  -0.5000000   0.8660254   1.0606607  )

   Crystallographic axes

     site n.     atom                  positions (cryst. coord.)
         1           Zn  tau(   1) = (  0.0000000  0.0000000  0.0000000  )
         2           O   tau(   2) = (  0.3333333  0.3333333  0.1317470  )
         3           Zn  tau(   3) = (  0.3333333  0.3333333  0.5000000  )
         4           O   tau(   4) = (  0.0000000  0.0000000  0.6317470  )
         5           Zn  tau(   5) = (  0.0000000  0.5000000  0.0000000  )
         6           O   tau(   6) = (  0.3333333  0.8333333  0.1317470  )
         7           Zn  tau(   7) = (  0.3333333  0.8333333  0.5000000  )
         8           O   tau(   8) = (  0.0000000  0.5000000  0.6317470  )

     number of k points=    80
                       cart. coord. in units 2pi/alat
        k(    1) = (   0.0000000   0.0000000   0.0000000), wk =   0.0092593
        k(    2) = (   0.0000000   0.0000000   0.0992694), wk =   0.0185185
        k(    3) = (   0.0000000   0.0000000   0.1985388), wk =   0.0185185
        k(    4) = (   0.0000000   0.0000000  -0.2978082), wk =   0.0092593
        k(    5) = (   0.0000000   0.0962250   0.0000000), wk =   0.0185185
        k(    6) = (   0.0000000   0.0962250   0.0992694), wk =   0.0185185
        k(    7) = (   0.0000000   0.0962250   0.1985388), wk =   0.0185185
        k(    8) = (   0.0000000   0.0962250  -0.2978082), wk =   0.0185185
        k(    9) = (   0.0000000   0.1924501   0.0000000), wk =   0.0185185
        k(   10) = (   0.0000000   0.1924501   0.0992694), wk =   0.0185185
        k(   11) = (   0.0000000   0.1924501   0.1985388), wk =   0.0185185
        k(   12) = (   0.0000000   0.1924501  -0.2978082), wk =   0.0185185
        k(   13) = (   0.0000000  -0.2886751   0.0000000), wk =   0.0092593
        k(   14) = (   0.0000000  -0.2886751   0.0992694), wk =   0.0185185
        k(   15) = (   0.0000000  -0.2886751   0.1985388), wk =   0.0185185
        k(   16) = (   0.0000000  -0.2886751  -0.2978082), wk =   0.0092593
        k(   17) = (   0.1666667   0.0962250   0.0000000), wk =   0.0370370
        k(   18) = (   0.1666667   0.0962250   0.0992694), wk =   0.0370370
        k(   19) = (   0.1666667   0.0962250   0.1985388), wk =   0.0370370
        k(   20) = (   0.1666667   0.0962250  -0.2978082), wk =   0.0370370
        k(   21) = (   0.1666667   0.1924501   0.0000000), wk =   0.0370370
        k(   22) = (   0.1666667   0.1924501   0.0992694), wk =   0.0370370
        k(   23) = (   0.1666667   0.1924501   0.1985388), wk =   0.0370370
        k(   24) = (   0.1666667   0.1924501  -0.2978082), wk =   0.0370370
        k(   25) = (   0.1666667   0.2886751   0.0000000), wk =   0.0185185
        k(   26) = (   0.1666667   0.2886751   0.0992694), wk =   0.0370370
        k(   27) = (   0.1666667   0.2886751   0.1985388), wk =   0.0370370
        k(   28) = (   0.1666667   0.2886751  -0.2978082), wk =   0.0185185
        k(   29) = (   0.1666667   0.0000000   0.0000000), wk =   0.0185185
        k(   30) = (   0.1666667   0.0000000   0.0992694), wk =   0.0370370
        k(   31) = (   0.1666667   0.0000000   0.1985388), wk =   0.0370370
        k(   32) = (   0.1666667   0.0000000  -0.2978082), wk =   0.0185185
        k(   33) = (   0.3333333   0.1924501   0.0000000), wk =   0.0370370
        k(   34) = (   0.3333333   0.1924501   0.0992694), wk =   0.0370370
        k(   35) = (   0.3333333   0.1924501   0.1985388), wk =   0.0370370
        k(   36) = (   0.3333333   0.1924501  -0.2978082), wk =   0.0370370
        k(   37) = (   0.3333333   0.2886751   0.0000000), wk =   0.0185185
        k(   38) = (   0.3333333   0.2886751   0.0992694), wk =   0.0370370
        k(   39) = (   0.3333333   0.2886751   0.1985388), wk =   0.0370370
        k(   40) = (   0.3333333   0.2886751  -0.2978082), wk =   0.0185185
        k(   41) = (   0.3333333  -0.0962250   0.0000000), wk =   0.0370370
        k(   42) = (   0.3333333  -0.0962250   0.0992694), wk =   0.0370370
        k(   43) = (   0.3333333  -0.0962250   0.1985388), wk =   0.0370370
        k(   44) = (   0.3333333  -0.0962250  -0.2978082), wk =   0.0370370
        k(   45) = (   0.3333333  -0.0000000   0.0000000), wk =   0.0185185
        k(   46) = (   0.3333333  -0.0000000   0.0992694), wk =   0.0370370
        k(   47) = (   0.3333333  -0.0000000   0.1985388), wk =   0.0370370
        k(   48) = (   0.3333333  -0.0000000  -0.2978082), wk =   0.0185185
        k(   49) = (  -0.5000000  -0.2886751   0.0000000), wk =   0.0092593
        k(   50) = (  -0.5000000  -0.2886751   0.0992694), wk =   0.0185185
        k(   51) = (  -0.5000000  -0.2886751   0.1985388), wk =   0.0185185
        k(   52) = (  -0.5000000  -0.2886751  -0.2978082), wk =   0.0092593
        k(   53) = (  -0.5000000  -0.1924501   0.0000000), wk =   0.0185185
        k(   54) = (  -0.5000000  -0.1924501   0.0992694), wk =   0.0185185
        k(   55) = (  -0.5000000  -0.1924501   0.1985388), wk =   0.0185185
        k(   56) = (  -0.5000000  -0.1924501  -0.2978082), wk =   0.0185185
        k(   57) = (  -0.5000000  -0.0962250   0.0000000), wk =   0.0185185
        k(   58) = (  -0.5000000  -0.0962250   0.0992694), wk =   0.0185185
        k(   59) = (  -0.5000000  -0.0962250   0.1985388), wk =   0.0185185
        k(   60) = (  -0.5000000  -0.0962250  -0.2978082), wk =   0.0185185
        k(   61) = (  -0.5000000  -0.5773503   0.0000000), wk =   0.0092593
        k(   62) = (  -0.5000000  -0.5773503   0.0992694), wk =   0.0185185
        k(   63) = (  -0.5000000  -0.5773503   0.1985388), wk =   0.0185185
        k(   64) = (  -0.5000000  -0.5773503  -0.2978082), wk =   0.0092593
        k(   65) = (   0.0000000   0.0962250  -0.0992694), wk =   0.0185185
        k(   66) = (   0.0000000   0.0962250  -0.1985388), wk =   0.0185185
        k(   67) = (   0.0000000   0.1924501  -0.0992694), wk =   0.0185185
        k(   68) = (   0.0000000   0.1924501  -0.1985388), wk =   0.0185185
        k(   69) = (  -0.1666667   0.0962250  -0.0992694), wk =   0.0370370
        k(   70) = (  -0.1666667   0.0962250  -0.1985388), wk =   0.0370370
        k(   71) = (  -0.1666667   0.1924501  -0.0992694), wk =   0.0370370
        k(   72) = (  -0.1666667   0.1924501  -0.1985388), wk =   0.0370370
        k(   73) = (  -0.3333333   0.1924501  -0.0992694), wk =   0.0370370
        k(   74) = (  -0.3333333   0.1924501  -0.1985388), wk =   0.0370370
        k(   75) = (  -0.3333333  -0.0962250  -0.0992694), wk =   0.0370370
        k(   76) = (  -0.3333333  -0.0962250  -0.1985388), wk =   0.0370370
        k(   77) = (   0.5000000  -0.1924501  -0.0992694), wk =   0.0185185
        k(   78) = (   0.5000000  -0.1924501  -0.1985388), wk =   0.0185185
        k(   79) = (   0.5000000  -0.0962250  -0.0992694), wk =   0.0185185
        k(   80) = (   0.5000000  -0.0962250  -0.1985388), wk =   0.0185185

                       cryst. coord.
        k(    1) = (   0.0000000   0.0000000   0.0000000), wk =   0.0092593
        k(    2) = (   0.0000000   0.0000000   0.1666667), wk =   0.0185185
        k(    3) = (   0.0000000   0.0000000   0.3333333), wk =   0.0185185
        k(    4) = (   0.0000000   0.0000000  -0.5000000), wk =   0.0092593
        k(    5) = (   0.0000000   0.1666667   0.0000000), wk =   0.0185185
        k(    6) = (   0.0000000   0.1666667   0.1666667), wk =   0.0185185
        k(    7) = (   0.0000000   0.1666667   0.3333333), wk =   0.0185185
        k(    8) = (   0.0000000   0.1666667  -0.5000000), wk =   0.0185185
        k(    9) = (   0.0000000   0.3333333   0.0000000), wk =   0.0185185
        k(   10) = (   0.0000000   0.3333333   0.1666667), wk =   0.0185185
        k(   11) = (   0.0000000   0.3333333   0.3333333), wk =   0.0185185
        k(   12) = (   0.0000000   0.3333333  -0.5000000), wk =   0.0185185
        k(   13) = (   0.0000000  -0.5000000   0.0000000), wk =   0.0092593
        k(   14) = (   0.0000000  -0.5000000   0.1666667), wk =   0.0185185
        k(   15) = (   0.0000000  -0.5000000   0.3333333), wk =   0.0185185
        k(   16) = (   0.0000000  -0.5000000  -0.5000000), wk =   0.0092593
        k(   17) = (   0.1666667   0.0000000   0.0000000), wk =   0.0370370
        k(   18) = (   0.1666667   0.0000000   0.1666667), wk =   0.0370370
        k(   19) = (   0.1666667   0.0000000   0.3333333), wk =   0.0370370
        k(   20) = (   0.1666667   0.0000000  -0.5000000), wk =   0.0370370
        k(   21) = (   0.1666667   0.1666667   0.0000000), wk =   0.0370370
        k(   22) = (   0.1666667   0.1666667   0.1666667), wk =   0.0370370
        k(   23) = (   0.1666667   0.1666667   0.3333333), wk =   0.0370370
        k(   24) = (   0.1666667   0.1666667  -0.5000000), wk =   0.0370370
        k(   25) = (   0.1666667   0.3333333   0.0000000), wk =   0.0185185
        k(   26) = (   0.1666667   0.3333333   0.1666667), wk =   0.0370370
        k(   27) = (   0.1666667   0.3333333   0.3333333), wk =   0.0370370
        k(   28) = (   0.1666667   0.3333333  -0.5000000), wk =   0.0185185
        k(   29) = (   0.1666667  -0.1666667   0.0000000), wk =   0.0185185
        k(   30) = (   0.1666667  -0.1666667   0.1666667), wk =   0.0370370
        k(   31) = (   0.1666667  -0.1666667   0.3333333), wk =   0.0370370
        k(   32) = (   0.1666667  -0.1666667  -0.5000000), wk =   0.0185185
        k(   33) = (   0.3333333   0.0000000   0.0000000), wk =   0.0370370
        k(   34) = (   0.3333333   0.0000000   0.1666667), wk =   0.0370370
        k(   35) = (   0.3333333   0.0000000   0.3333333), wk =   0.0370370
        k(   36) = (   0.3333333   0.0000000  -0.5000000), wk =   0.0370370
        k(   37) = (   0.3333333   0.1666667   0.0000000), wk =   0.0185185
        k(   38) = (   0.3333333   0.1666667   0.1666667), wk =   0.0370370
        k(   39) = (   0.3333333   0.1666667   0.3333333), wk =   0.0370370
        k(   40) = (   0.3333333   0.1666667  -0.5000000), wk =   0.0185185
        k(   41) = (   0.3333333  -0.5000000   0.0000000), wk =   0.0370370
        k(   42) = (   0.3333333  -0.5000000   0.1666667), wk =   0.0370370
        k(   43) = (   0.3333333  -0.5000000   0.3333333), wk =   0.0370370
        k(   44) = (   0.3333333  -0.5000000  -0.5000000), wk =   0.0370370
        k(   45) = (   0.3333333  -0.3333333   0.0000000), wk =   0.0185185
        k(   46) = (   0.3333333  -0.3333333   0.1666667), wk =   0.0370370
        k(   47) = (   0.3333333  -0.3333333   0.3333333), wk =   0.0370370
        k(   48) = (   0.3333333  -0.3333333  -0.5000000), wk =   0.0185185
        k(   49) = (  -0.5000000   0.0000000   0.0000000), wk =   0.0092593
        k(   50) = (  -0.5000000   0.0000000   0.1666667), wk =   0.0185185
        k(   51) = (  -0.5000000   0.0000000   0.3333333), wk =   0.0185185
        k(   52) = (  -0.5000000   0.0000000  -0.5000000), wk =   0.0092593
        k(   53) = (  -0.5000000   0.1666667   0.0000000), wk =   0.0185185
        k(   54) = (  -0.5000000   0.1666667   0.1666667), wk =   0.0185185
        k(   55) = (  -0.5000000   0.1666667   0.3333333), wk =   0.0185185
        k(   56) = (  -0.5000000   0.1666667  -0.5000000), wk =   0.0185185
        k(   57) = (  -0.5000000   0.3333333   0.0000000), wk =   0.0185185
        k(   58) = (  -0.5000000   0.3333333   0.1666667), wk =   0.0185185
        k(   59) = (  -0.5000000   0.3333333   0.3333333), wk =   0.0185185
        k(   60) = (  -0.5000000   0.3333333  -0.5000000), wk =   0.0185185
        k(   61) = (  -0.5000000  -0.5000000   0.0000000), wk =   0.0092593
        k(   62) = (  -0.5000000  -0.5000000   0.1666667), wk =   0.0185185
        k(   63) = (  -0.5000000  -0.5000000   0.3333333), wk =   0.0185185
        k(   64) = (  -0.5000000  -0.5000000  -0.5000000), wk =   0.0092593
        k(   65) = (   0.0000000   0.1666667  -0.1666667), wk =   0.0185185
        k(   66) = (   0.0000000   0.1666667  -0.3333333), wk =   0.0185185
        k(   67) = (   0.0000000   0.3333333  -0.1666667), wk =   0.0185185
        k(   68) = (   0.0000000   0.3333333  -0.3333333), wk =   0.0185185
        k(   69) = (  -0.1666667   0.3333333  -0.1666667), wk =   0.0370370
        k(   70) = (  -0.1666667   0.3333333  -0.3333333), wk =   0.0370370
        k(   71) = (  -0.1666667   0.5000000  -0.1666667), wk =   0.0370370
        k(   72) = (  -0.1666667   0.5000000  -0.3333333), wk =   0.0370370
        k(   73) = (  -0.3333333   0.6666667  -0.1666667), wk =   0.0370370
        k(   74) = (  -0.3333333   0.6666667  -0.3333333), wk =   0.0370370
        k(   75) = (  -0.3333333   0.1666667  -0.1666667), wk =   0.0370370
        k(   76) = (  -0.3333333   0.1666667  -0.3333333), wk =   0.0370370
        k(   77) = (   0.5000000  -0.8333333  -0.1666667), wk =   0.0185185
        k(   78) = (   0.5000000  -0.8333333  -0.3333333), wk =   0.0185185
        k(   79) = (   0.5000000  -0.6666667  -0.1666667), wk =   0.0185185
        k(   80) = (   0.5000000  -0.6666667  -0.3333333), wk =   0.0185185

     Dense  grid:    92729 G-vectors     FFT dimensions: (  40,  80,  72)

     Smooth grid:    32753 G-vectors     FFT dimensions: (  27,  60,  48)

     Dynamical RAM for                 wfc:       0.56 MB

     Dynamical RAM for     wfc (w. buffer):      23.06 MB

     Dynamical RAM for           str. fact:       0.71 MB

     Dynamical RAM for           local pot:       0.00 MB

     Dynamical RAM for          nlocal pot:       1.62 MB

     Dynamical RAM for                qrad:       3.21 MB

     Dynamical RAM for          rho,v,vnew:       2.38 MB

     Dynamical RAM for               rhoin:       0.79 MB

     Dynamical RAM for            rho*nmix:       5.66 MB

     Dynamical RAM for           G-vectors:       1.39 MB

     Dynamical RAM for          h,s,v(r/c):       0.24 MB

     Dynamical RAM for          <psi|beta>:       0.06 MB

     Dynamical RAM for                 psi:       1.12 MB

     Dynamical RAM for                hpsi:       1.12 MB

     Dynamical RAM for                spsi:       1.12 MB

     Dynamical RAM for      wfcinit/wfcrot:       1.69 MB

     Dynamical RAM for           addusdens:      33.78 MB

     Dynamical RAM for          addusforce:      34.86 MB

     Estimated static dynamical RAM per process >      36.43 MB

     Estimated max dynamical RAM per process >      76.95 MB

     Estimated total dynamical RAM >     592.94 MB

     Check: negative core charge=   -0.000002

     Initial potential from superposition of free atoms

     starting charge      71.9851, renormalised to      72.0000
     Starting wfcs are   52 randomized atomic wfcs

     total cpu time spent up to now is        8.6 secs

     Self-consistent Calculation

     iteration #  1     ecut=    50.00 Ry     beta= 0.30
     Davidson diagonalization with overlap

---- Real-time Memory Report at c_bands before calling an iterative solver
            79 MiB given to the printing process from OS
             0 MiB allocation reported by mallinfo(arena+hblkhd)
         55872 MiB available memory on the node where the printing process lives
------------------
     ethr =  1.00E-02,  avg # of iterations =  1.9

     total cpu time spent up to now is       19.4 secs

     total energy              =    -722.94305093 Ry
     estimated scf accuracy    <       1.41000441 Ry

     iteration #  2     ecut=    50.00 Ry     beta= 0.30
     Davidson diagonalization with overlap

---- Real-time Memory Report at c_bands before calling an iterative solver
           108 MiB given to the printing process from OS
             0 MiB allocation reported by mallinfo(arena+hblkhd)
         55683 MiB available memory on the node where the printing process lives
------------------
     ethr =  1.96E-03,  avg # of iterations =  2.0

     total cpu time spent up to now is       33.0 secs

     total energy              =    -723.15958648 Ry
     estimated scf accuracy    <       0.16656485 Ry

     iteration #  3     ecut=    50.00 Ry     beta= 0.30
     Davidson diagonalization with overlap

---- Real-time Memory Report at c_bands before calling an iterative solver
           109 MiB given to the printing process from OS
             0 MiB allocation reported by mallinfo(arena+hblkhd)
         55554 MiB available memory on the node where the printing process lives
------------------
     ethr =  2.31E-04,  avg # of iterations =  6.6

     total cpu time spent up to now is       56.0 secs

     total energy              =    -723.21445286 Ry
     estimated scf accuracy    <       0.11657881 Ry

     iteration #  4     ecut=    50.00 Ry     beta= 0.30
     Davidson diagonalization with overlap

---- Real-time Memory Report at c_bands before calling an iterative solver
           109 MiB given to the printing process from OS
             0 MiB allocation reported by mallinfo(arena+hblkhd)
         55747 MiB available memory on the node where the printing process lives
------------------
     ethr =  1.62E-04,  avg # of iterations =  8.5

     total cpu time spent up to now is       84.4 secs

     total energy              =    -723.28460176 Ry
     estimated scf accuracy    <       0.43007721 Ry

     iteration #  5     ecut=    50.00 Ry     beta= 0.30
     Davidson diagonalization with overlap

---- Real-time Memory Report at c_bands before calling an iterative solver
           110 MiB given to the printing process from OS
             0 MiB allocation reported by mallinfo(arena+hblkhd)
         55593 MiB available memory on the node where the printing process lives
------------------
     ethr =  1.62E-04,  avg # of iterations =  2.0

     total cpu time spent up to now is       95.7 secs

     total energy              =    -723.10897321 Ry
     estimated scf accuracy    <       0.23941396 Ry

     iteration #  6     ecut=    50.00 Ry     beta= 0.30
     Davidson diagonalization with overlap

---- Real-time Memory Report at c_bands before calling an iterative solver
           110 MiB given to the printing process from OS
             0 MiB allocation reported by mallinfo(arena+hblkhd)
         55581 MiB available memory on the node where the printing process lives
------------------
     ethr =  1.62E-04,  avg # of iterations = 11.5

     total cpu time spent up to now is      129.5 secs

     total energy              =    -722.98229331 Ry
     estimated scf accuracy    <       3.00563889 Ry

     iteration #  7     ecut=    50.00 Ry     beta= 0.30
     Davidson diagonalization with overlap

---- Real-time Memory Report at c_bands before calling an iterative solver
           111 MiB given to the printing process from OS
             0 MiB allocation reported by mallinfo(arena+hblkhd)
         55797 MiB available memory on the node where the printing process lives
------------------
     ethr =  1.62E-04,  avg # of iterations = 10.0

     total cpu time spent up to now is      160.3 secs

     total energy              =    -723.26190987 Ry
     estimated scf accuracy    <       0.16703023 Ry

     iteration #  8     ecut=    50.00 Ry     beta= 0.30
     Davidson diagonalization with overlap

---- Real-time Memory Report at c_bands before calling an iterative solver
           111 MiB given to the printing process from OS
             0 MiB allocation reported by mallinfo(arena+hblkhd)
         55569 MiB available memory on the node where the printing process lives
------------------
     ethr =  1.62E-04,  avg # of iterations =  1.9

     total cpu time spent up to now is      171.3 secs

     total energy              =    -723.26036680 Ry
     estimated scf accuracy    <       0.08650333 Ry

     iteration #  9     ecut=    50.00 Ry     beta= 0.30
     Davidson diagonalization with overlap

---- Real-time Memory Report at c_bands before calling an iterative solver
           111 MiB given to the printing process from OS
             0 MiB allocation reported by mallinfo(arena+hblkhd)
         55818 MiB available memory on the node where the printing process lives
------------------
     ethr =  1.20E-04,  avg # of iterations =  2.0

     total cpu time spent up to now is      182.4 secs

     total energy              =    -723.24607764 Ry
     estimated scf accuracy    <       0.05725505 Ry

     iteration # 10     ecut=    50.00 Ry     beta= 0.30
     Davidson diagonalization with overlap

---- Real-time Memory Report at c_bands before calling an iterative solver
           111 MiB given to the printing process from OS
             0 MiB allocation reported by mallinfo(arena+hblkhd)
         55700 MiB available memory on the node where the printing process lives
------------------
     ethr =  7.95E-05,  avg # of iterations =  4.7

     total cpu time spent up to now is      199.1 secs

     total energy              =    -723.26798040 Ry
     estimated scf accuracy    <       0.00033862 Ry

     iteration # 11     ecut=    50.00 Ry     beta= 0.30
     Davidson diagonalization with overlap

---- Real-time Memory Report at c_bands before calling an iterative solver
           111 MiB given to the printing process from OS
             0 MiB allocation reported by mallinfo(arena+hblkhd)
         55670 MiB available memory on the node where the printing process lives
------------------
     c_bands:  1 eigenvalues not converged
     ethr =  4.70E-07,  avg # of iterations = 11.4

     total cpu time spent up to now is      230.8 secs

     total energy              =    -723.27003104 Ry
     estimated scf accuracy    <       0.00366325 Ry

     iteration # 12     ecut=    50.00 Ry     beta= 0.30
     Davidson diagonalization with overlap

---- Real-time Memory Report at c_bands before calling an iterative solver
           111 MiB given to the printing process from OS
             0 MiB allocation reported by mallinfo(arena+hblkhd)
         55610 MiB available memory on the node where the printing process lives
------------------
     ethr =  4.70E-07,  avg # of iterations =  1.5

     total cpu time spent up to now is      241.2 secs

     total energy              =    -723.26773847 Ry
     estimated scf accuracy    <       0.00435021 Ry

     iteration # 13     ecut=    50.00 Ry     beta= 0.30
     Davidson diagonalization with overlap

---- Real-time Memory Report at c_bands before calling an iterative solver
           111 MiB given to the printing process from OS
             0 MiB allocation reported by mallinfo(arena+hblkhd)
         55806 MiB available memory on the node where the printing process lives
------------------
     ethr =  4.70E-07,  avg # of iterations = 10.2

     total cpu time spent up to now is      272.5 secs

     total energy              =    -723.26867267 Ry
     estimated scf accuracy    <       0.00015992 Ry

     iteration # 14     ecut=    50.00 Ry     beta= 0.30
     Davidson diagonalization with overlap

---- Real-time Memory Report at c_bands before calling an iterative solver
           111 MiB given to the printing process from OS
             0 MiB allocation reported by mallinfo(arena+hblkhd)
         55789 MiB available memory on the node where the printing process lives
------------------
     ethr =  2.22E-07,  avg # of iterations =  8.6

     total cpu time spent up to now is      300.5 secs

     total energy              =    -723.26898615 Ry
     estimated scf accuracy    <       0.00078112 Ry

     iteration # 15     ecut=    50.00 Ry     beta= 0.30
     Davidson diagonalization with overlap

---- Real-time Memory Report at c_bands before calling an iterative solver
           111 MiB given to the printing process from OS
             0 MiB allocation reported by mallinfo(arena+hblkhd)
         55784 MiB available memory on the node where the printing process lives
------------------
     ethr =  2.22E-07,  avg # of iterations =  1.3

     total cpu time spent up to now is      311.0 secs

     total energy              =    -723.26908272 Ry
     estimated scf accuracy    <       0.00083100 Ry

     iteration # 16     ecut=    50.00 Ry     beta= 0.30
     Davidson diagonalization with overlap

---- Real-time Memory Report at c_bands before calling an iterative solver
           111 MiB given to the printing process from OS
             0 MiB allocation reported by mallinfo(arena+hblkhd)
         55609 MiB available memory on the node where the printing process lives
------------------
     ethr =  2.22E-07,  avg # of iterations =  1.9

     total cpu time spent up to now is      322.0 secs

     total energy              =    -723.26904249 Ry
     estimated scf accuracy    <       0.00111981 Ry

     iteration # 17     ecut=    50.00 Ry     beta= 0.30
     Davidson diagonalization with overlap

---- Real-time Memory Report at c_bands before calling an iterative solver
           111 MiB given to the printing process from OS
             0 MiB allocation reported by mallinfo(arena+hblkhd)
         55811 MiB available memory on the node where the printing process lives
------------------
     ethr =  2.22E-07,  avg # of iterations =  1.0

     total cpu time spent up to now is      332.0 secs

     total energy              =    -723.26907727 Ry
     estimated scf accuracy    <       0.00105638 Ry

     iteration # 18     ecut=    50.00 Ry     beta= 0.30
     Davidson diagonalization with overlap

---- Real-time Memory Report at c_bands before calling an iterative solver
           111 MiB given to the printing process from OS
             0 MiB allocation reported by mallinfo(arena+hblkhd)
         55723 MiB available memory on the node where the printing process lives
------------------
     ethr =  2.22E-07,  avg # of iterations =  1.0

     total cpu time spent up to now is      342.4 secs

     total energy              =    -723.26861574 Ry
     estimated scf accuracy    <       0.00114815 Ry

     iteration # 19     ecut=    50.00 Ry     beta= 0.30
     Davidson diagonalization with overlap

---- Real-time Memory Report at c_bands before calling an iterative solver
           111 MiB given to the printing process from OS
             0 MiB allocation reported by mallinfo(arena+hblkhd)
         55630 MiB available memory on the node where the printing process lives
------------------
     ethr =  2.22E-07,  avg # of iterations =  6.8

     total cpu time spent up to now is      366.3 secs

     total energy              =    -723.26873932 Ry
     estimated scf accuracy    <       0.00003300 Ry

     iteration # 20     ecut=    50.00 Ry     beta= 0.30
     Davidson diagonalization with overlap

---- Real-time Memory Report at c_bands before calling an iterative solver
           111 MiB given to the printing process from OS
             0 MiB allocation reported by mallinfo(arena+hblkhd)
         55602 MiB available memory on the node where the printing process lives
------------------
     ethr =  4.58E-08,  avg # of iterations =  7.0

     total cpu time spent up to now is      389.4 secs

     total energy              =    -723.26873941 Ry
     estimated scf accuracy    <       0.00003968 Ry

     iteration # 21     ecut=    50.00 Ry     beta= 0.30
     Davidson diagonalization with overlap

---- Real-time Memory Report at c_bands before calling an iterative solver
           111 MiB given to the printing process from OS
             0 MiB allocation reported by mallinfo(arena+hblkhd)
         55633 MiB available memory on the node where the printing process lives
------------------
     ethr =  4.58E-08,  avg # of iterations =  7.6

     total cpu time spent up to now is      414.7 secs

     total energy              =    -723.26875153 Ry
     estimated scf accuracy    <       0.00007735 Ry

     iteration # 22     ecut=    50.00 Ry     beta= 0.30
     Davidson diagonalization with overlap

---- Real-time Memory Report at c_bands before calling an iterative solver
           111 MiB given to the printing process from OS
             0 MiB allocation reported by mallinfo(arena+hblkhd)
         55640 MiB available memory on the node where the printing process lives
------------------
     ethr =  4.58E-08,  avg # of iterations =  2.0

     total cpu time spent up to now is      426.8 secs

     total energy              =    -723.26874391 Ry
     estimated scf accuracy    <       0.00002685 Ry

     iteration # 23     ecut=    50.00 Ry     beta= 0.30
     Davidson diagonalization with overlap

---- Real-time Memory Report at c_bands before calling an iterative solver
           111 MiB given to the printing process from OS
             0 MiB allocation reported by mallinfo(arena+hblkhd)
         55646 MiB available memory on the node where the printing process lives
------------------
     ethr =  3.73E-08,  avg # of iterations =  5.8

     total cpu time spent up to now is      446.9 secs

     total energy              =    -723.26875751 Ry
     estimated scf accuracy    <       0.00000580 Ry

     iteration # 24     ecut=    50.00 Ry     beta= 0.30
     Davidson diagonalization with overlap

---- Real-time Memory Report at c_bands before calling an iterative solver
           111 MiB given to the printing process from OS
             0 MiB allocation reported by mallinfo(arena+hblkhd)
         55779 MiB available memory on the node where the printing process lives
------------------
     ethr =  8.06E-09,  avg # of iterations =  2.4

     total cpu time spent up to now is      459.4 secs

     total energy              =    -723.26875705 Ry
     estimated scf accuracy    <       0.00000148 Ry

     iteration # 25     ecut=    50.00 Ry     beta= 0.30
     Davidson diagonalization with overlap

---- Real-time Memory Report at c_bands before calling an iterative solver
           111 MiB given to the printing process from OS
             0 MiB allocation reported by mallinfo(arena+hblkhd)
         55608 MiB available memory on the node where the printing process lives
------------------
     ethr =  2.06E-09,  avg # of iterations =  9.0

     total cpu time spent up to now is      489.5 secs

     total energy              =    -723.26875802 Ry
     estimated scf accuracy    <       0.00001143 Ry

     iteration # 26     ecut=    50.00 Ry     beta= 0.30
     Davidson diagonalization with overlap

---- Real-time Memory Report at c_bands before calling an iterative solver
           111 MiB given to the printing process from OS
             0 MiB allocation reported by mallinfo(arena+hblkhd)
         55588 MiB available memory on the node where the printing process lives
------------------
     ethr =  2.06E-09,  avg # of iterations =  4.5

     total cpu time spent up to now is      507.0 secs

     total energy              =    -723.26875814 Ry
     estimated scf accuracy    <       0.00000224 Ry

     iteration # 27     ecut=    50.00 Ry     beta= 0.30
     Davidson diagonalization with overlap

---- Real-time Memory Report at c_bands before calling an iterative solver
           111 MiB given to the printing process from OS
             0 MiB allocation reported by mallinfo(arena+hblkhd)
         55667 MiB available memory on the node where the printing process lives
------------------
     ethr =  2.06E-09,  avg # of iterations =  3.2

     total cpu time spent up to now is      519.4 secs

     total energy              =    -723.26875826 Ry
     estimated scf accuracy    <       0.00000075 Ry

     iteration # 28     ecut=    50.00 Ry     beta= 0.30
     Davidson diagonalization with overlap

---- Real-time Memory Report at c_bands before calling an iterative solver
           111 MiB given to the printing process from OS
             0 MiB allocation reported by mallinfo(arena+hblkhd)
         55565 MiB available memory on the node where the printing process lives
------------------
     ethr =  1.04E-09,  avg # of iterations =  4.0

     total cpu time spent up to now is      533.4 secs

     total energy              =    -723.26875829 Ry
     estimated scf accuracy    <       0.00000027 Ry

     iteration # 29     ecut=    50.00 Ry     beta= 0.30
     Davidson diagonalization with overlap

---- Real-time Memory Report at c_bands before calling an iterative solver
           111 MiB given to the printing process from OS
             0 MiB allocation reported by mallinfo(arena+hblkhd)
         55576 MiB available memory on the node where the printing process lives
------------------
     ethr =  3.77E-10,  avg # of iterations =  5.6

     total cpu time spent up to now is      551.8 secs

     End of self-consistent calculation

          k = 0.0000 0.0000 0.0000 (  4079 PWs)   bands (ev):

   -11.2597 -10.6781 -10.6485 -10.4720   0.7534   0.8521   0.9493   0.9496
     0.9733   1.0031   1.1290   1.1404   1.1406   1.3657   1.6112   1.6414
     1.9184   1.9185   1.9350   2.0774   2.0828   2.0828   2.1260   2.2047
     2.3116   2.6102   3.0932   3.6535   4.3801   5.0449   5.6355   5.6360
     5.6579   6.2194   6.3460   6.3464

     occupation numbers 
     1.0000   1.0000   1.0000   1.0000   1.0000   1.0000   1.0000   1.0000
     1.0000   1.0000   1.0000   1.0000   1.0000   1.0000   1.0000   1.0000
     1.0000   1.0000   1.0000   1.0000   1.0000   1.0000   1.0000   1.0000
     1.0000   1.0000   1.0000   1.0000   1.0000   1.0000   1.0000   1.0000
     1.0000   1.0000   1.0000   1.0000

          k = 0.0000 0.0000 0.0993 (  4061 PWs)   bands (ev):

   -11.2227 -10.7191 -10.6356 -10.4826   0.7183   0.8197   0.8884   0.8917
     0.9579   0.9582   1.1229   1.1230   1.1565   1.3715   1.5654   1.5985
     1.9326   1.9327   1.9895   2.0756   2.0756   2.0787   2.1178   2.2035
     2.5968   2.5992   3.0154   3.8979   4.4764   5.1168   5.5777   5.6312
     5.6839   5.6844   6.2992   6.2996

     occupation numbers 
     1.0000   1.0000   1.0000   1.0000   1.0000   1.0000   1.0000   1.0000
     1.0000   1.0000   1.0000   1.0000   1.0000   1.0000   1.0000   1.0000
     1.0000   1.0000   1.0000   1.0000   1.0000   1.0000   1.0000   1.0000
     1.0000   1.0000   1.0000   1.0000   1.0000   1.0000   1.0000   1.0000
     1.0000   1.0000   1.0000   1.0000

          k = 0.0000 0.0000 0.1985 (  4076 PWs)   bands (ev):

   -11.1202 -10.8296 -10.6009 -10.5125   0.6540   0.7325   0.7457   0.7479
     0.9843   0.9845   1.0789   1.0791   1.2346   1.3908   1.4877   1.4892
     1.9691   1.9691   2.0521   2.0521   2.0826   2.0856   2.1022   2.1929
     2.6163   2.8548   3.2408   4.4254   4.7268   4.8210   5.1573   5.3570
     5.8155   5.8160   6.1707   6.1712

     occupation numbers 
     1.0000   1.0000   1.0000   1.0000   1.0000   1.0000   1.0000   1.0000
     1.0000   1.0000   1.0000   1.0000   1.0000   1.0000   1.0000   1.0000
     1.0000   1.0000   1.0000   1.0000   1.0000   1.0000   1.0000   1.0000
     1.0000   1.0000   1.0000   1.0000   1.0000   1.0000   1.0000   1.0000
     1.0000   1.0000   1.0000   1.0000

          k = 0.0000 0.0000-0.2978 (  4084 PWs)   bands (ev):

   -10.9770 -10.9769 -10.5556 -10.5555   0.6422   0.6422   0.7020   0.7020
     1.0273   1.0273   1.0275   1.0275   1.3531   1.3531   1.4288   1.4288
     2.0136   2.0136   2.0136   2.0136   2.0902   2.0902   2.1579   2.1580
     2.7064   2.7065   4.0123   4.0123   4.9218   4.9219   5.0488   5.0489
     5.9939   5.9940   5.9943   5.9944

     occupation numbers 
     1.0000   1.0000   1.0000   1.0000   1.0000   1.0000   1.0000   1.0000
     1.0000   1.0000   1.0000   1.0000   1.0000   1.0000   1.0000   1.0000
     1.0000   1.0000   1.0000   1.0000   1.0000   1.0000   1.0000   1.0000
     1.0000   1.0000   1.0000   1.0000   1.0000   1.0000   1.0000   1.0000
     1.0000   1.0000   1.0000   1.0000

          k = 0.0000 0.0962 0.0000 (  4082 PWs)   bands (ev):

   -11.2248 -10.7032 -10.6607 -10.4747   0.7203   0.8724   0.9149   0.9673
     0.9719   1.0613   1.1240   1.1416   1.1682   1.4119   1.5221   1.6019
     1.9039   1.9168   1.9224   2.0503   2.0852   2.1058   2.1199   2.3030
     2.3105   2.6114   3.0164   3.7988   4.4737   5.2044   5.3868   5.5550
     5.7089   5.8413   6.1812   6.3050

     occupation numbers 
     1.0000   1.0000   1.0000   1.0000   1.0000   1.0000   1.0000   1.0000
     1.0000   1.0000   1.0000   1.0000   1.0000   1.0000   1.0000   1.0000
     1.0000   1.0000   1.0000   1.0000   1.0000   1.0000   1.0000   1.0000
     1.0000   1.0000   1.0000   1.0000   1.0000   1.0000   1.0000   1.0000
     1.0000   1.0000   1.0000   1.0000

          k = 0.0000 0.0962 0.0993 (  4078 PWs)   bands (ev):

   -11.1888 -10.7003 -10.6870 -10.4889   0.6893   0.8216   0.8985   0.9143
     0.9581   0.9766   1.1307   1.1496   1.1501   1.3927   1.4787   1.5621
     1.9200   1.9308   1.9543   2.0530   2.0772   2.0859   2.1111   2.2579
     2.6108   2.6368   3.1270   3.9089   4.5655   5.2515   5.4033   5.5057
     5.6062   5.6308   6.1417   6.2556

     occupation numbers 
     1.0000   1.0000   1.0000   1.0000   1.0000   1.0000   1.0000   1.0000
     1.0000   1.0000   1.0000   1.0000   1.0000   1.0000   1.0000   1.0000
     1.0000   1.0000   1.0000   1.0000   1.0000   1.0000   1.0000   1.0000
     1.0000   1.0000   1.0000   1.0000   1.0000   1.0000   1.0000   1.0000
     1.0000   1.0000   1.0000   1.0000

          k = 0.0000 0.0962 0.1985 (  4081 PWs)   bands (ev):

   -11.0891 -10.8072 -10.6433 -10.5288   0.6360   0.7420   0.7432   0.7581
     0.9865   1.0049   1.0876   1.1043   1.2234   1.3708   1.4223   1.4596
     1.9612   1.9674   2.0198   2.0522   2.0554   2.0613   2.0926   2.1721
     2.7543   3.0866   3.2604   4.3702   4.7722   4.8058   5.2240   5.4162
     5.5931   5.7454   5.9952   6.1202

     occupation numbers 
     1.0000   1.0000   1.0000   1.0000   1.0000   1.0000   1.0000   1.0000
     1.0000   1.0000   1.0000   1.0000   1.0000   1.0000   1.0000   1.0000
     1.0000   1.0000   1.0000   1.0000   1.0000   1.0000   1.0000   1.0000
     1.0000   1.0000   1.0000   1.0000   1.0000   1.0000   1.0000   1.0000
     1.0000   1.0000   1.0000   1.0000

          k = 0.0000 0.0962-0.2978 (  4084 PWs)   bands (ev):

   -10.9500 -10.9499 -10.5852 -10.5850   0.6393   0.6393   0.7011   0.7011
     1.0340   1.0340   1.0502   1.0502   1.3344   1.3345   1.3830   1.3830
     2.0114   2.0114   2.0124   2.0125   2.0748   2.0748   2.0941   2.0941
     2.9216   2.9217   4.0159   4.0160   4.9104   4.9105   5.1169   5.1170
     5.7919   5.7920   5.9337   5.9338

     occupation numbers 
     1.0000   1.0000   1.0000   1.0000   1.0000   1.0000   1.0000   1.0000
     1.0000   1.0000   1.0000   1.0000   1.0000   1.0000   1.0000   1.0000
     1.0000   1.0000   1.0000   1.0000   1.0000   1.0000   1.0000   1.0000
     1.0000   1.0000   1.0000   1.0000   1.0000   1.0000   1.0000   1.0000
     1.0000   1.0000   1.0000   1.0000

          k = 0.0000 0.1925 0.0000 (  4084 PWs)   bands (ev):

   -11.1270 -10.8318 -10.6140 -10.5008   0.6927   0.8220   0.9292   0.9747
     1.0129   1.1050   1.1184   1.2469   1.2643   1.3007   1.4968   1.5560
     1.8647   1.8750   1.9198   1.9930   2.0905   2.1075   2.1776   2.2683
     2.2809   2.5338   3.2830   4.1769   4.7171   4.7391   5.2355   5.3346
     5.5291   5.8441   6.0557   6.1880

     occupation numbers 
     1.0000   1.0000   1.0000   1.0000   1.0000   1.0000   1.0000   1.0000
     1.0000   1.0000   1.0000   1.0000   1.0000   1.0000   1.0000   1.0000
     1.0000   1.0000   1.0000   1.0000   1.0000   1.0000   1.0000   1.0000
     1.0000   1.0000   1.0000   1.0000   1.0000   1.0000   1.0000   1.0000
     1.0000   1.0000   1.0000   1.0000

          k = 0.0000 0.1925 0.0993 (  4089 PWs)   bands (ev):

   -11.0938 -10.8093 -10.6496 -10.5226   0.6667   0.7789   0.9141   0.9212
     1.0245   1.0357   1.1261   1.1949   1.2265   1.2790   1.4481   1.4646
     1.8855   1.8880   1.9329   1.9993   2.0810   2.0974   2.1138   2.1970
     2.6514   2.7977   3.4076   4.1432   4.7703   4.7984   5.1009   5.3935
     5.5182   5.7718   5.9538   6.1321

     occupation numbers 
     1.0000   1.0000   1.0000   1.0000   1.0000   1.0000   1.0000   1.0000
     1.0000   1.0000   1.0000   1.0000   1.0000   1.0000   1.0000   1.0000
     1.0000   1.0000   1.0000   1.0000   1.0000   1.0000   1.0000   1.0000
     1.0000   1.0000   1.0000   1.0000   1.0000   1.0000   1.0000   1.0000
     1.0000   1.0000   1.0000   1.0000

          k = 0.0000 0.1925 0.1985 (  4085 PWs)   bands (ev):

   -11.0024 -10.7480 -10.7459 -10.5823   0.6250   0.7079   0.7585   0.7752
     1.0247   1.0591   1.1311   1.1748   1.1875   1.2545   1.3350   1.3818
     1.9421   1.9468   1.9675   2.0174   2.0532   2.0658   2.0728   2.1166
     3.1136   3.3058   3.5267   4.3496   4.5487   5.0143   5.0884   5.3498
     5.5528   5.5734   5.6867   5.9787

     occupation numbers 
     1.0000   1.0000   1.0000   1.0000   1.0000   1.0000   1.0000   1.0000
     1.0000   1.0000   1.0000   1.0000   1.0000   1.0000   1.0000   1.0000
     1.0000   1.0000   1.0000   1.0000   1.0000   1.0000   1.0000   1.0000
     1.0000   1.0000   1.0000   1.0000   1.0000   1.0000   1.0000   1.0000
     1.0000   1.0000   1.0000   1.0000

          k = 0.0000 0.1925-0.2978 (  4080 PWs)   bands (ev):

   -10.8754 -10.8753 -10.6648 -10.6647   0.6414   0.6414   0.6880   0.6880
     1.0721   1.0721   1.1128   1.1128   1.2752   1.2752   1.2793   1.2793
     2.0070   2.0070   2.0121   2.0121   2.0313   2.0313   2.0436   2.0436
     3.3611   3.3612   3.9843   3.9844   4.9047   4.9048   5.2979   5.2980
     5.3579   5.3580   5.7672   5.7673

     occupation numbers 
     1.0000   1.0000   1.0000   1.0000   1.0000   1.0000   1.0000   1.0000
     1.0000   1.0000   1.0000   1.0000   1.0000   1.0000   1.0000   1.0000
     1.0000   1.0000   1.0000   1.0000   1.0000   1.0000   1.0000   1.0000
     1.0000   1.0000   1.0000   1.0000   1.0000   1.0000   1.0000   1.0000
     1.0000   1.0000   1.0000   1.0000

          k = 0.0000-0.2887 0.0000 (  4080 PWs)   bands (ev):

   -10.9858 -10.9858 -10.5535 -10.5535   0.7320   0.7320   0.9710   0.9710
     1.0657   1.0657   1.1703   1.1703   1.3651   1.3651   1.4889   1.4889
     1.8254   1.8254   1.9433   1.9433   2.0976   2.0976   2.2426   2.2426
     2.3297   2.3297   3.9680   3.9680   4.6770   4.6770   5.0311   5.0311
     5.8357   5.8357   6.0205   6.0205

     occupation numbers 
     1.0000   1.0000   1.0000   1.0000   1.0000   1.0000   1.0000   1.0000
     1.0000   1.0000   1.0000   1.0000   1.0000   1.0000   1.0000   1.0000
     1.0000   1.0000   1.0000   1.0000   1.0000   1.0000   1.0000   1.0000
     1.0000   1.0000   1.0000   1.0000   1.0000   1.0000   1.0000   1.0000
     1.0000   1.0000   1.0000   1.0000

          k = 0.0000-0.2887 0.0993 (  4086 PWs)   bands (ev):

   -10.9573 -10.9573 -10.5828 -10.5828   0.7033   0.7033   0.9266   0.9266
     1.0816   1.0816   1.1370   1.1370   1.3401   1.3402   1.3462   1.3462
     1.8584   1.8584   1.9536   1.9536   2.0870   2.0870   2.1498   2.1498
     2.7320   2.7321   4.0343   4.0343   4.5960   4.5960   5.1007   5.1007
     5.7641   5.7642   5.9562   5.9562

     occupation numbers 
     1.0000   1.0000   1.0000   1.0000   1.0000   1.0000   1.0000   1.0000
     1.0000   1.0000   1.0000   1.0000   1.0000   1.0000   1.0000   1.0000
     1.0000   1.0000   1.0000   1.0000   1.0000   1.0000   1.0000   1.0000
     1.0000   1.0000   1.0000   1.0000   1.0000   1.0000   1.0000   1.0000
     1.0000   1.0000   1.0000   1.0000

          k = 0.0000-0.2887 0.1985 (  4082 PWs)   bands (ev):

   -10.8791 -10.8790 -10.6628 -10.6627   0.6545   0.6545   0.7724   0.7724
     1.1209   1.1210   1.1280   1.1280   1.2263   1.2263   1.2761   1.2761
     1.9273   1.9273   1.9820   1.9820   2.0586   2.0586   2.0850   2.0850
     3.3125   3.3125   4.0667   4.0667   4.5999   4.5999   5.2873   5.2873
     5.4831   5.4832   5.7798   5.7798

     occupation numbers 
     1.0000   1.0000   1.0000   1.0000   1.0000   1.0000   1.0000   1.0000
     1.0000   1.0000   1.0000   1.0000   1.0000   1.0000   1.0000   1.0000
     1.0000   1.0000   1.0000   1.0000   1.0000   1.0000   1.0000   1.0000
     1.0000   1.0000   1.0000   1.0000   1.0000   1.0000   1.0000   1.0000
     1.0000   1.0000   1.0000   1.0000

          k = 0.0000-0.2887-0.2978 (  4088 PWs)   bands (ev):

   -10.7714 -10.7714 -10.7713 -10.7712   0.6609   0.6610   0.6610   0.6610
     1.1583   1.1583   1.1583   1.1584   1.1976   1.1976   1.1977   1.1977
     2.0089   2.0089   2.0089   2.0089   2.0202   2.0202   2.0202   2.0202
     3.7821   3.7821   3.7821   3.7821   5.0113   5.0113   5.0113   5.0114
     5.5360   5.5360   5.5361   5.5361

     occupation numbers 
     1.0000   1.0000   1.0000   1.0000   1.0000   1.0000   1.0000   1.0000
     1.0000   1.0000   1.0000   1.0000   1.0000   1.0000   1.0000   1.0000
     1.0000   1.0000   1.0000   1.0000   1.0000   1.0000   1.0000   1.0000
     1.0000   1.0000   1.0000   1.0000   1.0000   1.0000   1.0000   1.0000
     1.0000   1.0000   1.0000   1.0000

          k = 0.1667 0.0962 0.0000 (  4096 PWs)   bands (ev):

   -11.1270 -10.6551 -10.6140 -10.4687   0.8222   0.8239   0.9292   1.0127
     1.0811   1.1185   1.1462   1.2468   1.2644   1.4094   1.5349   1.6579
     1.8646   1.9021   1.9199   1.9471   2.0905   2.1488   2.1776   2.2809
     2.3450   2.6179   3.1902   3.7304   3.9795   4.7394   5.0829   5.2357
     5.3342   5.3505   6.0557   6.1876

     occupation numbers 
     1.0000   1.0000   1.0000   1.0000   1.0000   1.0000   1.0000   1.0000
     1.0000   1.0000   1.0000   1.0000   1.0000   1.0000   1.0000   1.0000
     1.0000   1.0000   1.0000   1.0000   1.0000   1.0000   1.0000   1.0000
     1.0000   1.0000   1.0000   1.0000   1.0000   1.0000   1.0000   1.0000
     1.0000   1.0000   1.0000   1.0000

          k = 0.1667 0.0962 0.0993 (  4094 PWs)   bands (ev):

   -11.0938 -10.6496 -10.6415 -10.4800   0.7791   0.8081   0.9212   1.0013
     1.0243   1.0358   1.1521   1.1950   1.2264   1.3757   1.5055   1.5909
     1.8880   1.9009   1.9329   2.0072   2.0810   2.1139   2.1496   2.3261
     2.6441   2.6514   3.2173   3.8280   4.1356   4.7706   5.1011   5.1152
     5.2837   5.3932   5.9539   6.1317

     occupation numbers 
     1.0000   1.0000   1.0000   1.0000   1.0000   1.0000   1.0000   1.0000
     1.0000   1.0000   1.0000   1.0000   1.0000   1.0000   1.0000   1.0000
     1.0000   1.0000   1.0000   1.0000   1.0000   1.0000   1.0000   1.0000
     1.0000   1.0000   1.0000   1.0000   1.0000   1.0000   1.0000   1.0000
     1.0000   1.0000   1.0000   1.0000

          k = 0.1667 0.0962 0.1985 (  4089 PWs)   bands (ev):

   -11.0024 -10.7459 -10.6052 -10.5119   0.7080   0.7637   0.7752   0.8586
     1.0249   1.0589   1.1312   1.1630   1.1747   1.3308   1.4571   1.4896
     1.9421   1.9597   1.9675   2.0362   2.0532   2.0658   2.1616   2.2631
     2.7670   3.1155   3.3058   4.1461   4.5368   4.5488   4.9447   5.0887
     5.2372   5.5525   5.6869   5.9783

     occupation numbers 
     1.0000   1.0000   1.0000   1.0000   1.0000   1.0000   1.0000   1.0000
     1.0000   1.0000   1.0000   1.0000   1.0000   1.0000   1.0000   1.0000
     1.0000   1.0000   1.0000   1.0000   1.0000   1.0000   1.0000   1.0000
     1.0000   1.0000   1.0000   1.0000   1.0000   1.0000   1.0000   1.0000
     1.0000   1.0000   1.0000   1.0000

          k = 0.1667 0.0962-0.2978 (  4094 PWs)   bands (ev):

   -10.8754 -10.8753 -10.5575 -10.5573   0.6881   0.6881   0.7612   0.7613
     1.0722   1.0722   1.1126   1.1126   1.2426   1.2426   1.4458   1.4458
     2.0070   2.0070   2.0121   2.0121   2.0167   2.0167   2.1987   2.1987
     2.9404   2.9404   3.9844   3.9844   4.5261   4.5262   5.0309   5.0309
     5.3582   5.3582   5.7668   5.7669

     occupation numbers 
     1.0000   1.0000   1.0000   1.0000   1.0000   1.0000   1.0000   1.0000
     1.0000   1.0000   1.0000   1.0000   1.0000   1.0000   1.0000   1.0000
     1.0000   1.0000   1.0000   1.0000   1.0000   1.0000   1.0000   1.0000
     1.0000   1.0000   1.0000   1.0000   1.0000   1.0000   1.0000   1.0000
     1.0000   1.0000   1.0000   1.0000

          k = 0.1667 0.1925 0.0000 (  4106 PWs)   bands (ev):

   -11.0388 -10.7729 -10.5750 -10.4847   0.7914   0.8306   0.9512   0.9694
     0.9959   1.1057   1.1511   1.3074   1.3211   1.4146   1.5283   1.6409
     1.8291   1.8413   1.9233   1.9377   2.0936   2.1197   2.2428   2.2863
     2.3286   2.6043   3.4688   3.8522   4.3019   4.3499   4.7148   5.1916
     5.4378   5.5281   5.9312   6.0355

     occupation numbers 
     1.0000   1.0000   1.0000   1.0000   1.0000   1.0000   1.0000   1.0000
     1.0000   1.0000   1.0000   1.0000   1.0000   1.0000   1.0000   1.0000
     1.0000   1.0000   1.0000   1.0000   1.0000   1.0000   1.0000   1.0000
     1.0000   1.0000   1.0000   1.0000   1.0000   1.0000   1.0000   1.0000
     1.0000   1.0000   1.0000   1.0000

          k = 0.1667 0.1925 0.0993 (  4089 PWs)   bands (ev):

   -11.0085 -10.7530 -10.6068 -10.5033   0.7538   0.7960   0.9140   0.9305
     1.0135   1.1139   1.1274   1.2749   1.2891   1.2990   1.4765   1.5062
     1.8481   1.8683   1.9409   2.0011   2.0832   2.1139   2.1402   2.2624
     2.7015   2.8032   3.5552   3.9339   4.3421   4.4016   4.6691   5.2073
     5.4144   5.4727   5.8471   5.9729

     occupation numbers 
     1.0000   1.0000   1.0000   1.0000   1.0000   1.0000   1.0000   1.0000
     1.0000   1.0000   1.0000   1.0000   1.0000   1.0000   1.0000   1.0000
     1.0000   1.0000   1.0000   1.0000   1.0000   1.0000   1.0000   1.0000
     1.0000   1.0000   1.0000   1.0000   1.0000   1.0000   1.0000   1.0000
     1.0000   1.0000   1.0000   1.0000

          k = 0.1667 0.1925 0.1985 (  4089 PWs)   bands (ev):

   -10.9250 -10.6990 -10.6930 -10.5547   0.6899   0.7295   0.7794   0.8124
     1.0515   1.1032   1.1645   1.1919   1.2242   1.2426   1.3622   1.4114
     1.9289   1.9318   1.9743   2.0352   2.0550   2.0800   2.1032   2.1717
     3.0800   3.3269   3.5101   4.2981   4.3507   4.5398   4.7576   5.1884
     5.3304   5.3600   5.5677   5.8009

     occupation numbers 
     1.0000   1.0000   1.0000   1.0000   1.0000   1.0000   1.0000   1.0000
     1.0000   1.0000   1.0000   1.0000   1.0000   1.0000   1.0000   1.0000
     1.0000   1.0000   1.0000   1.0000   1.0000   1.0000   1.0000   1.0000
     1.0000   1.0000   1.0000   1.0000   1.0000   1.0000   1.0000   1.0000
     1.0000   1.0000   1.0000   1.0000

          k = 0.1667 0.1925-0.2978 (  4084 PWs)   bands (ev):

   -10.8098 -10.8097 -10.6263 -10.6262   0.6806   0.6806   0.7226   0.7227
     1.0974   1.0974   1.1820   1.1820   1.2078   1.2078   1.3404   1.3404
     2.0069   2.0069   2.0160   2.0160   2.0175   2.0175   2.1062   2.1062
     3.3169   3.3169   3.8944   3.8944   4.7638   4.7639   5.0428   5.0428
     5.1291   5.1291   5.5691   5.5691

     occupation numbers 
     1.0000   1.0000   1.0000   1.0000   1.0000   1.0000   1.0000   1.0000
     1.0000   1.0000   1.0000   1.0000   1.0000   1.0000   1.0000   1.0000
     1.0000   1.0000   1.0000   1.0000   1.0000   1.0000   1.0000   1.0000
     1.0000   1.0000   1.0000   1.0000   1.0000   1.0000   1.0000   1.0000
     1.0000   1.0000   1.0000   1.0000

          k = 0.1667 0.2887 0.0000 (  4114 PWs)   bands (ev):

   -10.9118 -10.9118 -10.5256 -10.5256   0.8037   0.8037   0.9374   0.9374
     1.0447   1.0447   1.2153   1.2154   1.4268   1.4268   1.5686   1.5686
     1.8174   1.8174   1.9358   1.9358   2.1008   2.1008   2.2621   2.2621
     2.4367   2.4368   3.9647   3.9647   4.1239   4.1239   4.8166   4.8166
     5.7285   5.7286   5.7817   5.7817

     occupation numbers 
     1.0000   1.0000   1.0000   1.0000   1.0000   1.0000   1.0000   1.0000
     1.0000   1.0000   1.0000   1.0000   1.0000   1.0000   1.0000   1.0000
     1.0000   1.0000   1.0000   1.0000   1.0000   1.0000   1.0000   1.0000
     1.0000   1.0000   1.0000   1.0000   1.0000   1.0000   1.0000   1.0000
     1.0000   1.0000   1.0000   1.0000

          k = 0.1667 0.2887 0.0993 (  4104 PWs)   bands (ev):

   -10.8860 -10.8860 -10.5515 -10.5514   0.7632   0.7632   0.9081   0.9081
     1.0622   1.0622   1.1861   1.1861   1.4000   1.4000   1.4020   1.4020
     1.8481   1.8481   1.9697   1.9697   2.0913   2.0913   2.1846   2.1846
     2.7874   2.7874   4.0814   4.0814   4.0902   4.0902   4.8286   4.8286
     5.6869   5.6869   5.7053   5.7053

     occupation numbers 
     1.0000   1.0000   1.0000   1.0000   1.0000   1.0000   1.0000   1.0000
     1.0000   1.0000   1.0000   1.0000   1.0000   1.0000   1.0000   1.0000
     1.0000   1.0000   1.0000   1.0000   1.0000   1.0000   1.0000   1.0000
     1.0000   1.0000   1.0000   1.0000   1.0000   1.0000   1.0000   1.0000
     1.0000   1.0000   1.0000   1.0000

          k = 0.1667 0.2887 0.1985 (  4104 PWs)   bands (ev):

   -10.8154 -10.8154 -10.6222 -10.6221   0.6966   0.6966   0.7888   0.7888
     1.0993   1.0993   1.1547   1.1547   1.2737   1.2737   1.3332   1.3332
     1.9240   1.9240   2.0015   2.0015   2.0676   2.0676   2.1092   2.1092
     3.2886   3.2886   3.9390   3.9390   4.4457   4.4457   4.9523   4.9523
     5.4662   5.4662   5.4999   5.4999

     occupation numbers 
     1.0000   1.0000   1.0000   1.0000   1.0000   1.0000   1.0000   1.0000
     1.0000   1.0000   1.0000   1.0000   1.0000   1.0000   1.0000   1.0000
     1.0000   1.0000   1.0000   1.0000   1.0000   1.0000   1.0000   1.0000
     1.0000   1.0000   1.0000   1.0000   1.0000   1.0000   1.0000   1.0000
     1.0000   1.0000   1.0000   1.0000

          k = 0.1667 0.2887-0.2978 (  4076 PWs)   bands (ev):

   -10.7189 -10.7188 -10.7188 -10.7187   0.6910   0.6910   0.6910   0.6910
     1.1405   1.1405   1.1405   1.1405   1.2660   1.2660   1.2660   1.2660
     2.0106   2.0106   2.0107   2.0107   2.0438   2.0438   2.0438   2.0438
     3.6699   3.6700   3.6700   3.6700   4.9636   4.9636   4.9636   4.9636
     5.2435   5.2435   5.2436   5.2436

     occupation numbers 
     1.0000   1.0000   1.0000   1.0000   1.0000   1.0000   1.0000   1.0000
     1.0000   1.0000   1.0000   1.0000   1.0000   1.0000   1.0000   1.0000
     1.0000   1.0000   1.0000   1.0000   1.0000   1.0000   1.0000   1.0000
     1.0000   1.0000   1.0000   1.0000   1.0000   1.0000   1.0000   1.0000
     1.0000   1.0000   1.0000   1.0000

          k = 0.1667 0.0000 0.0000 (  4076 PWs)   bands (ev):

   -11.1585 -10.6286 -10.6025 -10.4718   0.8197   0.8646   0.9154   0.9718
     1.1196   1.1369   1.2085   1.2122   1.2217   1.4607   1.4935   1.6747
     1.8802   1.8972   1.9145   1.9998   2.0884   2.1545   2.1880   2.1995
     2.2876   2.6936   3.1373   3.4830   4.1177   4.8595   5.0084   5.2007
     5.2862   5.5320   6.0994   6.2076

     occupation numbers 
     1.0000   1.0000   1.0000   1.0000   1.0000   1.0000   1.0000   1.0000
     1.0000   1.0000   1.0000   1.0000   1.0000   1.0000   1.0000   1.0000
     1.0000   1.0000   1.0000   1.0000   1.0000   1.0000   1.0000   1.0000
     1.0000   1.0000   1.0000   1.0000   1.0000   1.0000   1.0000   1.0000
     1.0000   1.0000   1.0000   1.0000

          k = 0.1667 0.0000 0.0993 (  4092 PWs)   bands (ev):

   -11.1243 -10.6655 -10.5925 -10.4793   0.8062   0.8095   0.9337   0.9524
     1.0432   1.0846   1.1219   1.1676   1.2023   1.4702   1.4825   1.6226
     1.8993   1.9296   1.9439   2.0057   2.0791   2.1062   2.2056   2.2119
     2.6372   2.6598   3.0607   3.6585   4.2835   4.9216   5.0691   5.0874
     5.2142   5.4944   6.0077   6.1531

     occupation numbers 
     1.0000   1.0000   1.0000   1.0000   1.0000   1.0000   1.0000   1.0000
     1.0000   1.0000   1.0000   1.0000   1.0000   1.0000   1.0000   1.0000
     1.0000   1.0000   1.0000   1.0000   1.0000   1.0000   1.0000   1.0000
     1.0000   1.0000   1.0000   1.0000   1.0000   1.0000   1.0000   1.0000
     1.0000   1.0000   1.0000   1.0000

          k = 0.1667 0.0000 0.1985 (  4076 PWs)   bands (ev):

   -11.0302 -10.7653 -10.5660 -10.5005   0.7259   0.7711   0.7764   0.8893
     0.9993   1.0442   1.1155   1.1445   1.1537   1.3854   1.4900   1.5533
     1.9485   1.9660   1.9962   2.0141   2.0521   2.0632   2.2414   2.2511
     2.6543   2.9007   3.2936   4.0248   4.6406   4.6764   4.8008   5.1693
     5.2408   5.5910   5.7856   6.0043

     occupation numbers 
     1.0000   1.0000   1.0000   1.0000   1.0000   1.0000   1.0000   1.0000
     1.0000   1.0000   1.0000   1.0000   1.0000   1.0000   1.0000   1.0000
     1.0000   1.0000   1.0000   1.0000   1.0000   1.0000   1.0000   1.0000
     1.0000   1.0000   1.0000   1.0000   1.0000   1.0000   1.0000   1.0000
     1.0000   1.0000   1.0000   1.0000

          k = 0.1667 0.0000-0.2978 (  4082 PWs)   bands (ev):

   -10.8992 -10.8991 -10.5320 -10.5319   0.6953   0.6953   0.7795   0.7796
     1.0493   1.0493   1.0988   1.0988   1.2449   1.2449   1.5158   1.5158
     2.0081   2.0081   2.0117   2.0117   2.0136   2.0136   2.2650   2.2650
     2.7458   2.7458   4.0036   4.0036   4.4354   4.4355   5.0379   5.0380
     5.4907   5.4908   5.8037   5.8038

     occupation numbers 
     1.0000   1.0000   1.0000   1.0000   1.0000   1.0000   1.0000   1.0000
     1.0000   1.0000   1.0000   1.0000   1.0000   1.0000   1.0000   1.0000
     1.0000   1.0000   1.0000   1.0000   1.0000   1.0000   1.0000   1.0000
     1.0000   1.0000   1.0000   1.0000   1.0000   1.0000   1.0000   1.0000
     1.0000   1.0000   1.0000   1.0000

          k = 0.3333 0.1925 0.0000 (  4096 PWs)   bands (ev):

   -10.8318 -10.6551 -10.5008 -10.4687   0.6928   0.8240   0.9747   1.0810
     1.1048   1.1462   1.3008   1.4095   1.4966   1.5349   1.5560   1.6578
     1.8750   1.9021   1.9472   1.9930   2.1076   2.1488   2.2683   2.3450
     2.5338   2.6180   3.1903   3.2832   3.7304   3.9793   4.1771   4.7168
     5.0829   5.3503   5.5291   5.8438

     occupation numbers 
     1.0000   1.0000   1.0000   1.0000   1.0000   1.0000   1.0000   1.0000
     1.0000   1.0000   1.0000   1.0000   1.0000   1.0000   1.0000   1.0000
     1.0000   1.0000   1.0000   1.0000   1.0000   1.0000   1.0000   1.0000
     1.0000   1.0000   1.0000   1.0000   1.0000   1.0000   1.0000   1.0000
     1.0000   1.0000   1.0000   1.0000

          k = 0.3333 0.1925 0.0993 (  4105 PWs)   bands (ev):

   -10.8093 -10.6415 -10.5226 -10.4800   0.6669   0.8082   0.9142   1.0012
     1.1259   1.1520   1.2791   1.3757   1.4481   1.4644   1.5056   1.5907
     1.8855   1.9009   1.9993   2.0072   2.0974   2.1497   2.1970   2.3262
     2.6442   2.7978   3.2174   3.4078   3.8280   4.1355   4.1434   4.7981
     5.1151   5.2836   5.5182   5.7715

     occupation numbers 
     1.0000   1.0000   1.0000   1.0000   1.0000   1.0000   1.0000   1.0000
     1.0000   1.0000   1.0000   1.0000   1.0000   1.0000   1.0000   1.0000
     1.0000   1.0000   1.0000   1.0000   1.0000   1.0000   1.0000   1.0000
     1.0000   1.0000   1.0000   1.0000   1.0000   1.0000   1.0000   1.0000
     1.0000   1.0000   1.0000   1.0000

          k = 0.3333 0.1925 0.1985 (  4104 PWs)   bands (ev):

   -10.7480 -10.6052 -10.5823 -10.5119   0.6251   0.7586   0.7638   0.8586
     1.1629   1.1873   1.2546   1.3308   1.3351   1.3816   1.4572   1.4895
     1.9469   1.9597   2.0174   2.0362   2.0728   2.1167   2.1616   2.2631
     2.7671   3.1136   3.1156   3.5269   4.1460   4.3497   4.5367   4.9446
     5.0140   5.2372   5.3499   5.5731

     occupation numbers 
     1.0000   1.0000   1.0000   1.0000   1.0000   1.0000   1.0000   1.0000
     1.0000   1.0000   1.0000   1.0000   1.0000   1.0000   1.0000   1.0000
     1.0000   1.0000   1.0000   1.0000   1.0000   1.0000   1.0000   1.0000
     1.0000   1.0000   1.0000   1.0000   1.0000   1.0000   1.0000   1.0000
     1.0000   1.0000   1.0000   1.0000

          k = 0.3333 0.1925-0.2978 (  4110 PWs)   bands (ev):

   -10.6648 -10.6647 -10.5575 -10.5573   0.6415   0.6415   0.7613   0.7613
     1.2425   1.2425   1.2752   1.2753   1.2791   1.2791   1.4458   1.4458
     2.0168   2.0168   2.0313   2.0313   2.0437   2.0437   2.1987   2.1987
     2.9405   2.9405   3.3613   3.3613   4.5260   4.5260   4.9048   4.9048
     5.0308   5.0309   5.2976   5.2977

     occupation numbers 
     1.0000   1.0000   1.0000   1.0000   1.0000   1.0000   1.0000   1.0000
     1.0000   1.0000   1.0000   1.0000   1.0000   1.0000   1.0000   1.0000
     1.0000   1.0000   1.0000   1.0000   1.0000   1.0000   1.0000   1.0000
     1.0000   1.0000   1.0000   1.0000   1.0000   1.0000   1.0000   1.0000
     1.0000   1.0000   1.0000   1.0000

          k = 0.3333 0.2887 0.0000 (  4112 PWs)   bands (ev):

   -10.7476 -10.7475 -10.4805 -10.4805   0.7379   0.7379   0.9933   0.9933
     1.1039   1.1039   1.3806   1.3806   1.5078   1.5078   1.5900   1.5900
     1.9015   1.9015   1.9910   1.9910   2.1187   2.1187   2.3246   2.3246
     2.6208   2.6208   3.1259   3.1259   3.9384   3.9384   4.4147   4.4147
     5.3403   5.3403   5.6619   5.6619

     occupation numbers 
     1.0000   1.0000   1.0000   1.0000   1.0000   1.0000   1.0000   1.0000
     1.0000   1.0000   1.0000   1.0000   1.0000   1.0000   1.0000   1.0000
     1.0000   1.0000   1.0000   1.0000   1.0000   1.0000   1.0000   1.0000
     1.0000   1.0000   1.0000   1.0000   1.0000   1.0000   1.0000   1.0000
     1.0000   1.0000   1.0000   1.0000

          k = 0.3333 0.2887 0.0993 (  4094 PWs)   bands (ev):

   -10.7290 -10.7289 -10.4976 -10.4975   0.7093   0.7093   0.9284   0.9284
     1.1284   1.1284   1.3542   1.3542   1.4533   1.4533   1.5324   1.5324
     1.9057   1.9057   2.0197   2.0197   2.1115   2.1115   2.2567   2.2567
     2.7405   2.7405   3.2722   3.2723   3.9724   3.9724   4.5049   4.5050
     5.3619   5.3620   5.5833   5.5833

     occupation numbers 
     1.0000   1.0000   1.0000   1.0000   1.0000   1.0000   1.0000   1.0000
     1.0000   1.0000   1.0000   1.0000   1.0000   1.0000   1.0000   1.0000
     1.0000   1.0000   1.0000   1.0000   1.0000   1.0000   1.0000   1.0000
     1.0000   1.0000   1.0000   1.0000   1.0000   1.0000   1.0000   1.0000
     1.0000   1.0000   1.0000   1.0000

          k = 0.3333 0.2887 0.1985 (  4100 PWs)   bands (ev):

   -10.6786 -10.6786 -10.5449 -10.5448   0.6601   0.6601   0.7778   0.7778
     1.1910   1.1910   1.3141   1.3141   1.3856   1.3856   1.4295   1.4295
     1.9630   1.9630   2.0429   2.0429   2.0968   2.0968   2.1645   2.1645
     2.9307   2.9307   3.3032   3.3033   4.3395   4.3396   4.7463   4.7463
     5.2602   5.2602   5.3861   5.3862

     occupation numbers 
     1.0000   1.0000   1.0000   1.0000   1.0000   1.0000   1.0000   1.0000
     1.0000   1.0000   1.0000   1.0000   1.0000   1.0000   1.0000   1.0000
     1.0000   1.0000   1.0000   1.0000   1.0000   1.0000   1.0000   1.0000
     1.0000   1.0000   1.0000   1.0000   1.0000   1.0000   1.0000   1.0000
     1.0000   1.0000   1.0000   1.0000

          k = 0.3333 0.2887-0.2978 (  4108 PWs)   bands (ev):

   -10.6111 -10.6110 -10.6109 -10.6109   0.6685   0.6685   0.6686   0.6686
     1.2784   1.2784   1.2784   1.2784   1.3561   1.3561   1.3561   1.3561
     2.0327   2.0327   2.0327   2.0327   2.0983   2.0983   2.0983   2.0983
     3.1325   3.1325   3.1325   3.1325   4.8629   4.8629   4.8629   4.8629
     5.1026   5.1027   5.1027   5.1027

     occupation numbers 
     1.0000   1.0000   1.0000   1.0000   1.0000   1.0000   1.0000   1.0000
     1.0000   1.0000   1.0000   1.0000   1.0000   1.0000   1.0000   1.0000
     1.0000   1.0000   1.0000   1.0000   1.0000   1.0000   1.0000   1.0000
     1.0000   1.0000   1.0000   1.0000   1.0000   1.0000   1.0000   1.0000
     1.0000   1.0000   1.0000   1.0000

          k = 0.3333-0.0962 0.0000 (  4100 PWs)   bands (ev):

   -10.8907 -10.5716 -10.5186 -10.4761   0.7369   0.8409   0.9809   1.0599
     1.1972   1.2390   1.3303   1.4132   1.4438   1.5724   1.6108   1.7343
     1.8322   1.8655   1.9328   1.9543   2.1029   2.1652   2.2182   2.2585
     2.4572   2.7332   3.0750   3.2621   3.6335   4.1386   4.2982   4.7733
     4.7936   5.0216   5.6714   5.8367

     occupation numbers 
     1.0000   1.0000   1.0000   1.0000   1.0000   1.0000   1.0000   1.0000
     1.0000   1.0000   1.0000   1.0000   1.0000   1.0000   1.0000   1.0000
     1.0000   1.0000   1.0000   1.0000   1.0000   1.0000   1.0000   1.0000
     1.0000   1.0000   1.0000   1.0000   1.0000   1.0000   1.0000   1.0000
     1.0000   1.0000   1.0000   1.0000

          k = 0.3333-0.0962 0.0993 (  4106 PWs)   bands (ev):

   -10.8657 -10.5639 -10.5434 -10.4811   0.7076   0.8585   0.9270   1.0842
     1.1154   1.2147   1.2254   1.4127   1.4133   1.4250   1.5780   1.6767
     1.8558   1.8862   1.9726   1.9774   2.0931   2.1838   2.1842   2.2717
     2.7016   2.7925   3.0707   3.3481   3.7230   4.2656   4.3193   4.8221
     4.8286   4.9855   5.6339   5.7656

     occupation numbers 
     1.0000   1.0000   1.0000   1.0000   1.0000   1.0000   1.0000   1.0000
     1.0000   1.0000   1.0000   1.0000   1.0000   1.0000   1.0000   1.0000
     1.0000   1.0000   1.0000   1.0000   1.0000   1.0000   1.0000   1.0000
     1.0000   1.0000   1.0000   1.0000   1.0000   1.0000   1.0000   1.0000
     1.0000   1.0000   1.0000   1.0000

          k = 0.3333-0.0962 0.1985 (  4093 PWs)   bands (ev):

   -10.7975 -10.6113 -10.5437 -10.4959   0.6586   0.7791   0.8825   0.9783
     1.1048   1.1350   1.1921   1.2902   1.3093   1.3443   1.5599   1.6132
     1.9281   1.9340   1.9846   2.0046   2.0686   2.1086   2.2410   2.3361
     2.7020   2.9482   3.2449   3.6781   3.7862   4.4151   4.4982   4.7656
     5.0119   5.0984   5.4155   5.5720

     occupation numbers 
     1.0000   1.0000   1.0000   1.0000   1.0000   1.0000   1.0000   1.0000
     1.0000   1.0000   1.0000   1.0000   1.0000   1.0000   1.0000   1.0000
     1.0000   1.0000   1.0000   1.0000   1.0000   1.0000   1.0000   1.0000
     1.0000   1.0000   1.0000   1.0000   1.0000   1.0000   1.0000   1.0000
     1.0000   1.0000   1.0000   1.0000

          k = 0.3333-0.0962-0.2978 (  4106 PWs)   bands (ev):

   -10.7044 -10.7043 -10.5185 -10.5183   0.6672   0.6672   0.8904   0.8905
     1.1657   1.1658   1.1870   1.1870   1.2693   1.2694   1.5767   1.5767
     1.9681   1.9681   2.0138   2.0138   2.0426   2.0426   2.3093   2.3093
     2.8035   2.8036   3.5752   3.5753   4.1057   4.1058   4.9297   4.9298
     5.0507   5.0508   5.3042   5.3043

     occupation numbers 
     1.0000   1.0000   1.0000   1.0000   1.0000   1.0000   1.0000   1.0000
     1.0000   1.0000   1.0000   1.0000   1.0000   1.0000   1.0000   1.0000
     1.0000   1.0000   1.0000   1.0000   1.0000   1.0000   1.0000   1.0000
     1.0000   1.0000   1.0000   1.0000   1.0000   1.0000   1.0000   1.0000
     1.0000   1.0000   1.0000   1.0000

          k = 0.3333-0.0000 0.0000 (  4094 PWs)   bands (ev):

   -10.9118 -10.5256 -10.5101 -10.5099   0.8038   0.8365   0.9373   1.0446
     1.2154   1.2844   1.2844   1.4267   1.5687   1.5822   1.7204   1.7204
     1.8173   1.8531   1.9359   1.9533   2.1008   2.1150   2.1150   2.2620
     2.4368   2.9224   2.9402   2.9403   3.9649   4.1241   4.5012   4.5013
     4.8164   4.8360   5.7285   5.7814

     occupation numbers 
     1.0000   1.0000   1.0000   1.0000   1.0000   1.0000   1.0000   1.0000
     1.0000   1.0000   1.0000   1.0000   1.0000   1.0000   1.0000   1.0000
     1.0000   1.0000   1.0000   1.0000   1.0000   1.0000   1.0000   1.0000
     1.0000   1.0000   1.0000   1.0000   1.0000   1.0000   1.0000   1.0000
     1.0000   1.0000   1.0000   1.0000

          k = 0.3333-0.0000 0.0993 (  4089 PWs)   bands (ev):

   -10.8860 -10.5515 -10.5086 -10.5085   0.7633   0.8660   0.9081   1.0622
     1.1860   1.1979   1.1979   1.3999   1.4020   1.4817   1.7013   1.7013
     1.8481   1.8679   1.9480   1.9698   2.0913   2.1846   2.1892   2.1892
     2.7874   2.8887   2.8888   3.0804   4.0815   4.0904   4.6482   4.6483
     4.7096   4.8284   5.6869   5.7050

     occupation numbers 
     1.0000   1.0000   1.0000   1.0000   1.0000   1.0000   1.0000   1.0000
     1.0000   1.0000   1.0000   1.0000   1.0000   1.0000   1.0000   1.0000
     1.0000   1.0000   1.0000   1.0000   1.0000   1.0000   1.0000   1.0000
     1.0000   1.0000   1.0000   1.0000   1.0000   1.0000   1.0000   1.0000
     1.0000   1.0000   1.0000   1.0000

          k = 0.3333-0.0000 0.1985 (  4104 PWs)   bands (ev):

   -10.8154 -10.6221 -10.5057 -10.5056   0.6967   0.7889   0.9536   1.0473
     1.0473   1.0993   1.1546   1.2738   1.2852   1.3331   1.6806   1.6807
     1.8900   1.9240   1.9334   2.0015   2.0677   2.1093   2.3092   2.3093
     2.7948   2.7949   3.2887   3.4581   3.9391   4.3731   4.4459   4.9268
     4.9269   4.9521   5.4662   5.4996

     occupation numbers 
     1.0000   1.0000   1.0000   1.0000   1.0000   1.0000   1.0000   1.0000
     1.0000   1.0000   1.0000   1.0000   1.0000   1.0000   1.0000   1.0000
     1.0000   1.0000   1.0000   1.0000   1.0000   1.0000   1.0000   1.0000
     1.0000   1.0000   1.0000   1.0000   1.0000   1.0000   1.0000   1.0000
     1.0000   1.0000   1.0000   1.0000

          k = 0.3333-0.0000-0.2978 (  4084 PWs)   bands (ev):

   -10.7189 -10.7187 -10.5042 -10.5041   0.6911   0.6911   0.9802   0.9802
     1.0972   1.0972   1.1405   1.1405   1.2659   1.2659   1.6737   1.6737
     1.9129   1.9129   2.0106   2.0107   2.0438   2.0438   2.3662   2.3662
     2.7472   2.7472   3.6700   3.6701   3.9225   3.9225   4.9637   4.9637
     5.0616   5.0617   5.2432   5.2433

     occupation numbers 
     1.0000   1.0000   1.0000   1.0000   1.0000   1.0000   1.0000   1.0000
     1.0000   1.0000   1.0000   1.0000   1.0000   1.0000   1.0000   1.0000
     1.0000   1.0000   1.0000   1.0000   1.0000   1.0000   1.0000   1.0000
     1.0000   1.0000   1.0000   1.0000   1.0000   1.0000   1.0000   1.0000
     1.0000   1.0000   1.0000   1.0000

          k =-0.5000-0.2887 0.0000 (  4092 PWs)   bands (ev):

   -10.6485 -10.6485 -10.4720 -10.4719   0.7535   0.7535   0.9734   0.9734
     1.1289   1.1289   1.3658   1.3658   1.6113   1.6113   1.6412   1.6412
     1.9350   1.9350   2.0775   2.0775   2.1261   2.1261   2.2048   2.2048
     2.6104   2.6104   3.0933   3.0933   3.6535   3.6535   4.3798   4.3798
     5.0449   5.0449   5.6575   5.6576

     occupation numbers 
     1.0000   1.0000   1.0000   1.0000   1.0000   1.0000   1.0000   1.0000
     1.0000   1.0000   1.0000   1.0000   1.0000   1.0000   1.0000   1.0000
     1.0000   1.0000   1.0000   1.0000   1.0000   1.0000   1.0000   1.0000
     1.0000   1.0000   1.0000   1.0000   1.0000   1.0000   1.0000   1.0000
     1.0000   1.0000   1.0000   1.0000

          k =-0.5000-0.2887 0.0993 (  4080 PWs)   bands (ev):

   -10.6356 -10.6355 -10.4826 -10.4826   0.7184   0.7184   0.8885   0.8885
     1.1563   1.1563   1.3716   1.3716   1.5655   1.5655   1.5983   1.5983
     1.9896   1.9896   2.0787   2.0787   2.1178   2.1178   2.2035   2.2035
     2.5969   2.5969   3.0155   3.0155   3.8980   3.8980   4.4761   4.4761
     5.1168   5.1169   5.5774   5.5774

     occupation numbers 
     1.0000   1.0000   1.0000   1.0000   1.0000   1.0000   1.0000   1.0000
     1.0000   1.0000   1.0000   1.0000   1.0000   1.0000   1.0000   1.0000
     1.0000   1.0000   1.0000   1.0000   1.0000   1.0000   1.0000   1.0000
     1.0000   1.0000   1.0000   1.0000   1.0000   1.0000   1.0000   1.0000
     1.0000   1.0000   1.0000   1.0000

          k =-0.5000-0.2887 0.1985 (  4108 PWs)   bands (ev):

   -10.6010 -10.6009 -10.5125 -10.5125   0.6541   0.6541   0.7326   0.7326
     1.2345   1.2345   1.3909   1.3909   1.4876   1.4876   1.4893   1.4893
     2.0827   2.0827   2.0856   2.0856   2.1022   2.1022   2.1929   2.1929
     2.6164   2.6164   2.8550   2.8550   4.4255   4.4255   4.7265   4.7265
     5.1574   5.1574   5.3567   5.3567

     occupation numbers 
     1.0000   1.0000   1.0000   1.0000   1.0000   1.0000   1.0000   1.0000
     1.0000   1.0000   1.0000   1.0000   1.0000   1.0000   1.0000   1.0000
     1.0000   1.0000   1.0000   1.0000   1.0000   1.0000   1.0000   1.0000
     1.0000   1.0000   1.0000   1.0000   1.0000   1.0000   1.0000   1.0000
     1.0000   1.0000   1.0000   1.0000

          k =-0.5000-0.2887-0.2978 (  4112 PWs)   bands (ev):

   -10.5557 -10.5556 -10.5555 -10.5555   0.6422   0.6422   0.6423   0.6423
     1.3529   1.3529   1.3530   1.3530   1.4289   1.4289   1.4289   1.4289
     2.0903   2.0903   2.0903   2.0903   2.1580   2.1580   2.1580   2.1580
     2.7065   2.7066   2.7066   2.7066   4.9218   4.9219   4.9219   4.9219
     5.0484   5.0485   5.0485   5.0485

     occupation numbers 
     1.0000   1.0000   1.0000   1.0000   1.0000   1.0000   1.0000   1.0000
     1.0000   1.0000   1.0000   1.0000   1.0000   1.0000   1.0000   1.0000
     1.0000   1.0000   1.0000   1.0000   1.0000   1.0000   1.0000   1.0000
     1.0000   1.0000   1.0000   1.0000   1.0000   1.0000   1.0000   1.0000
     1.0000   1.0000   1.0000   1.0000

          k =-0.5000-0.1925 0.0000 (  4096 PWs)   bands (ev):

   -10.6508 -10.6507 -10.4709 -10.4708   0.7700   0.7700   1.0276   1.0276
     1.1210   1.1210   1.4106   1.4106   1.5378   1.5378   1.6485   1.6485
     1.9213   1.9213   2.0431   2.0431   2.1395   2.1395   2.2560   2.2560
     2.6208   2.6208   3.0986   3.0986   3.6841   3.6841   4.2648   4.2649
     5.0475   5.0475   5.5589   5.5589

     occupation numbers 
     1.0000   1.0000   1.0000   1.0000   1.0000   1.0000   1.0000   1.0000
     1.0000   1.0000   1.0000   1.0000   1.0000   1.0000   1.0000   1.0000
     1.0000   1.0000   1.0000   1.0000   1.0000   1.0000   1.0000   1.0000
     1.0000   1.0000   1.0000   1.0000   1.0000   1.0000   1.0000   1.0000
[...]
     1.9612   1.9674   2.0198   2.0522   2.0554   2.0613   2.0926   2.1721
     2.7543   3.0866   3.2604   4.3701   4.7722   4.8058   5.2240   5.4162
     5.5931   5.7454   5.9952   6.1202

     occupation numbers 
     1.0000   1.0000   1.0000   1.0000   1.0000   1.0000   1.0000   1.0000
     1.0000   1.0000   1.0000   1.0000   1.0000   1.0000   1.0000   1.0000
     1.0000   1.0000   1.0000   1.0000   1.0000   1.0000   1.0000   1.0000
     1.0000   1.0000   1.0000   1.0000   1.0000   1.0000   1.0000   1.0000
     1.0000   1.0000   1.0000   1.0000

          k = 0.0000 0.1925-0.0993 (  4089 PWs)   bands (ev):

   -11.0938 -10.8093 -10.6496 -10.5226   0.6667   0.7789   0.9142   0.9212
     1.0245   1.0357   1.1261   1.1949   1.2265   1.2790   1.4481   1.4646
     1.8855   1.8880   1.9329   1.9993   2.0810   2.0974   2.1138   2.1970
     2.6514   2.7977   3.4076   4.1432   4.7703   4.7984   5.1009   5.3935
     5.5182   5.7718   5.9538   6.1321

     occupation numbers 
     1.0000   1.0000   1.0000   1.0000   1.0000   1.0000   1.0000   1.0000
     1.0000   1.0000   1.0000   1.0000   1.0000   1.0000   1.0000   1.0000
     1.0000   1.0000   1.0000   1.0000   1.0000   1.0000   1.0000   1.0000
     1.0000   1.0000   1.0000   1.0000   1.0000   1.0000   1.0000   1.0000
     1.0000   1.0000   1.0000   1.0000

          k = 0.0000 0.1925-0.1985 (  4085 PWs)   bands (ev):

   -11.0024 -10.7480 -10.7459 -10.5823   0.6250   0.7079   0.7586   0.7752
     1.0248   1.0591   1.1311   1.1748   1.1875   1.2545   1.3350   1.3818
     1.9421   1.9468   1.9675   2.0174   2.0532   2.0658   2.0728   2.1166
     3.1135   3.3058   3.5268   4.3496   4.5487   5.0143   5.0884   5.3498
     5.5528   5.5734   5.6867   5.9787

     occupation numbers 
     1.0000   1.0000   1.0000   1.0000   1.0000   1.0000   1.0000   1.0000
     1.0000   1.0000   1.0000   1.0000   1.0000   1.0000   1.0000   1.0000
     1.0000   1.0000   1.0000   1.0000   1.0000   1.0000   1.0000   1.0000
     1.0000   1.0000   1.0000   1.0000   1.0000   1.0000   1.0000   1.0000
     1.0000   1.0000   1.0000   1.0000

          k =-0.1667 0.0962-0.0993 (  4094 PWs)   bands (ev):

   -11.0938 -10.6496 -10.6415 -10.4800   0.7790   0.8081   0.9212   1.0013
     1.0243   1.0358   1.1521   1.1950   1.2264   1.3756   1.5055   1.5909
     1.8880   1.9009   1.9329   2.0072   2.0810   2.1139   2.1496   2.3261
     2.6441   2.6514   3.2173   3.8280   4.1356   4.7706   5.1011   5.1152
     5.2837   5.3932   5.9539   6.1317

     occupation numbers 
     1.0000   1.0000   1.0000   1.0000   1.0000   1.0000   1.0000   1.0000
     1.0000   1.0000   1.0000   1.0000   1.0000   1.0000   1.0000   1.0000
     1.0000   1.0000   1.0000   1.0000   1.0000   1.0000   1.0000   1.0000
     1.0000   1.0000   1.0000   1.0000   1.0000   1.0000   1.0000   1.0000
     1.0000   1.0000   1.0000   1.0000

          k =-0.1667 0.0962-0.1985 (  4089 PWs)   bands (ev):

   -11.0024 -10.7459 -10.6052 -10.5119   0.7080   0.7637   0.7753   0.8586
     1.0248   1.0589   1.1312   1.1630   1.1747   1.3308   1.4572   1.4896
     1.9421   1.9597   1.9675   2.0362   2.0532   2.0658   2.1616   2.2631
     2.7670   3.1155   3.3058   4.1461   4.5368   4.5488   4.9447   5.0887
     5.2372   5.5525   5.6869   5.9783

     occupation numbers 
     1.0000   1.0000   1.0000   1.0000   1.0000   1.0000   1.0000   1.0000
     1.0000   1.0000   1.0000   1.0000   1.0000   1.0000   1.0000   1.0000
     1.0000   1.0000   1.0000   1.0000   1.0000   1.0000   1.0000   1.0000
     1.0000   1.0000   1.0000   1.0000   1.0000   1.0000   1.0000   1.0000
     1.0000   1.0000   1.0000   1.0000

          k =-0.1667 0.1925-0.0993 (  4089 PWs)   bands (ev):

   -11.0085 -10.7530 -10.6068 -10.5033   0.7538   0.7960   0.9140   0.9305
     1.0135   1.1139   1.1274   1.2749   1.2891   1.2990   1.4765   1.5062
     1.8481   1.8683   1.9409   2.0011   2.0832   2.1139   2.1402   2.2624
     2.7015   2.8032   3.5552   3.9339   4.3421   4.4016   4.6691   5.2073
     5.4144   5.4727   5.8471   5.9729

     occupation numbers 
     1.0000   1.0000   1.0000   1.0000   1.0000   1.0000   1.0000   1.0000
     1.0000   1.0000   1.0000   1.0000   1.0000   1.0000   1.0000   1.0000
     1.0000   1.0000   1.0000   1.0000   1.0000   1.0000   1.0000   1.0000
     1.0000   1.0000   1.0000   1.0000   1.0000   1.0000   1.0000   1.0000
     1.0000   1.0000   1.0000   1.0000

          k =-0.1667 0.1925-0.1985 (  4089 PWs)   bands (ev):

   -10.9250 -10.6990 -10.6930 -10.5547   0.6899   0.7295   0.7794   0.8125
     1.0514   1.1032   1.1645   1.1919   1.2242   1.2426   1.3622   1.4114
     1.9289   1.9318   1.9743   2.0352   2.0550   2.0800   2.1032   2.1717
     3.0800   3.3269   3.5101   4.2981   4.3507   4.5398   4.7576   5.1884
     5.3304   5.3600   5.5677   5.8009

     occupation numbers 
     1.0000   1.0000   1.0000   1.0000   1.0000   1.0000   1.0000   1.0000
     1.0000   1.0000   1.0000   1.0000   1.0000   1.0000   1.0000   1.0000
     1.0000   1.0000   1.0000   1.0000   1.0000   1.0000   1.0000   1.0000
     1.0000   1.0000   1.0000   1.0000   1.0000   1.0000   1.0000   1.0000
     1.0000   1.0000   1.0000   1.0000

          k =-0.3333 0.1925-0.0993 (  4105 PWs)   bands (ev):

   -10.8093 -10.6415 -10.5226 -10.4800   0.6669   0.8082   0.9142   1.0012
     1.1259   1.1520   1.2791   1.3757   1.4481   1.4644   1.5056   1.5907
     1.8855   1.9009   1.9993   2.0072   2.0974   2.1497   2.1970   2.3262
     2.6442   2.7978   3.2174   3.4078   3.8280   4.1355   4.1433   4.7981
     5.1151   5.2836   5.5182   5.7715

     occupation numbers 
     1.0000   1.0000   1.0000   1.0000   1.0000   1.0000   1.0000   1.0000
     1.0000   1.0000   1.0000   1.0000   1.0000   1.0000   1.0000   1.0000
     1.0000   1.0000   1.0000   1.0000   1.0000   1.0000   1.0000   1.0000
     1.0000   1.0000   1.0000   1.0000   1.0000   1.0000   1.0000   1.0000
     1.0000   1.0000   1.0000   1.0000

          k =-0.3333 0.1925-0.1985 (  4104 PWs)   bands (ev):

   -10.7480 -10.6052 -10.5823 -10.5119   0.6251   0.7586   0.7638   0.8586
     1.1629   1.1873   1.2546   1.3308   1.3351   1.3816   1.4572   1.4895
     1.9469   1.9597   2.0174   2.0362   2.0728   2.1167   2.1616   2.2631
     2.7671   3.1136   3.1156   3.5269   4.1460   4.3497   4.5367   4.9446
     5.0140   5.2372   5.3499   5.5731

     occupation numbers 
     1.0000   1.0000   1.0000   1.0000   1.0000   1.0000   1.0000   1.0000
     1.0000   1.0000   1.0000   1.0000   1.0000   1.0000   1.0000   1.0000
     1.0000   1.0000   1.0000   1.0000   1.0000   1.0000   1.0000   1.0000
     1.0000   1.0000   1.0000   1.0000   1.0000   1.0000   1.0000   1.0000
     1.0000   1.0000   1.0000   1.0000

          k =-0.3333-0.0962-0.0993 (  4106 PWs)   bands (ev):

   -10.8657 -10.5639 -10.5434 -10.4811   0.7076   0.8585   0.9269   1.0842
     1.1154   1.2147   1.2254   1.4127   1.4133   1.4250   1.5780   1.6767
     1.8558   1.8862   1.9726   1.9774   2.0931   2.1838   2.1842   2.2717
     2.7016   2.7925   3.0707   3.3481   3.7230   4.2656   4.3193   4.8221
     4.8286   4.9855   5.6339   5.7656

     occupation numbers 
     1.0000   1.0000   1.0000   1.0000   1.0000   1.0000   1.0000   1.0000
     1.0000   1.0000   1.0000   1.0000   1.0000   1.0000   1.0000   1.0000
     1.0000   1.0000   1.0000   1.0000   1.0000   1.0000   1.0000   1.0000
     1.0000   1.0000   1.0000   1.0000   1.0000   1.0000   1.0000   1.0000
     1.0000   1.0000   1.0000   1.0000

          k =-0.3333-0.0962-0.1985 (  4093 PWs)   bands (ev):

   -10.7975 -10.6113 -10.5437 -10.4959   0.6586   0.7791   0.8825   0.9783
     1.1048   1.1350   1.1921   1.2902   1.3093   1.3443   1.5599   1.6132
     1.9281   1.9340   1.9846   2.0046   2.0686   2.1086   2.2409   2.3361
     2.7020   2.9482   3.2449   3.6781   3.7862   4.4151   4.4982   4.7656
     5.0119   5.0984   5.4155   5.5720

     occupation numbers 
     1.0000   1.0000   1.0000   1.0000   1.0000   1.0000   1.0000   1.0000
     1.0000   1.0000   1.0000   1.0000   1.0000   1.0000   1.0000   1.0000
     1.0000   1.0000   1.0000   1.0000   1.0000   1.0000   1.0000   1.0000
     1.0000   1.0000   1.0000   1.0000   1.0000   1.0000   1.0000   1.0000
     1.0000   1.0000   1.0000   1.0000

          k = 0.5000-0.1925-0.0993 (  4096 PWs)   bands (ev):

   -10.6376 -10.6376 -10.4817 -10.4817   0.7398   0.7398   0.9402   0.9402
     1.1403   1.1403   1.4052   1.4052   1.5116   1.5116   1.5962   1.5962
     1.9645   1.9645   2.0489   2.0489   2.1369   2.1369   2.2487   2.2487
     2.6053   2.6053   3.0738   3.0738   3.8818   3.8818   4.3721   4.3721
     5.1142   5.1142   5.4763   5.4763

     occupation numbers 
     1.0000   1.0000   1.0000   1.0000   1.0000   1.0000   1.0000   1.0000
     1.0000   1.0000   1.0000   1.0000   1.0000   1.0000   1.0000   1.0000
     1.0000   1.0000   1.0000   1.0000   1.0000   1.0000   1.0000   1.0000
     1.0000   1.0000   1.0000   1.0000   1.0000   1.0000   1.0000   1.0000
     1.0000   1.0000   1.0000   1.0000

          k = 0.5000-0.1925-0.1985 (  4104 PWs)   bands (ev):

   -10.6024 -10.6024 -10.5123 -10.5123   0.6828   0.6828   0.7768   0.7768
     1.2043   1.2043   1.4084   1.4084   1.4433   1.4433   1.4976   1.4976
     2.0269   2.0269   2.0588   2.0588   2.1435   2.1435   2.2202   2.2202
     2.6522   2.6522   2.9400   2.9400   4.3541   4.3541   4.6613   4.6613
     5.1138   5.1138   5.2819   5.2819

     occupation numbers 
     1.0000   1.0000   1.0000   1.0000   1.0000   1.0000   1.0000   1.0000
     1.0000   1.0000   1.0000   1.0000   1.0000   1.0000   1.0000   1.0000
     1.0000   1.0000   1.0000   1.0000   1.0000   1.0000   1.0000   1.0000
     1.0000   1.0000   1.0000   1.0000   1.0000   1.0000   1.0000   1.0000
     1.0000   1.0000   1.0000   1.0000

          k = 0.5000-0.0962-0.0993 (  4110 PWs)   bands (ev):

   -10.6416 -10.6415 -10.4801 -10.4800   0.8082   0.8082   1.0013   1.0013
     1.1520   1.1520   1.3757   1.3757   1.5055   1.5055   1.5907   1.5907
     1.9009   1.9009   2.0072   2.0072   2.1497   2.1497   2.3262   2.3262
     2.6442   2.6442   3.2175   3.2175   3.8278   3.8278   4.1355   4.1355
     5.1150   5.1151   5.2836   5.2836

     occupation numbers 
     1.0000   1.0000   1.0000   1.0000   1.0000   1.0000   1.0000   1.0000
     1.0000   1.0000   1.0000   1.0000   1.0000   1.0000   1.0000   1.0000
     1.0000   1.0000   1.0000   1.0000   1.0000   1.0000   1.0000   1.0000
     1.0000   1.0000   1.0000   1.0000   1.0000   1.0000   1.0000   1.0000
     1.0000   1.0000   1.0000   1.0000

          k = 0.5000-0.0962-0.1985 (  4108 PWs)   bands (ev):

   -10.6052 -10.6052 -10.5119 -10.5118   0.7638   0.7638   0.8586   0.8586
     1.1629   1.1629   1.3308   1.3308   1.4571   1.4571   1.4895   1.4895
     1.9597   1.9597   2.0362   2.0362   2.1616   2.1616   2.2631   2.2631
     2.7671   2.7671   3.1156   3.1156   4.1459   4.1459   4.5367   4.5368
     4.9445   4.9445   5.2372   5.2372

     occupation numbers 
     1.0000   1.0000   1.0000   1.0000   1.0000   1.0000   1.0000   1.0000
     1.0000   1.0000   1.0000   1.0000   1.0000   1.0000   1.0000   1.0000
     1.0000   1.0000   1.0000   1.0000   1.0000   1.0000   1.0000   1.0000
     1.0000   1.0000   1.0000   1.0000   1.0000   1.0000   1.0000   1.0000
     1.0000   1.0000   1.0000   1.0000

     highest occupied level (ev):     6.3464

!    total energy              =    -723.26875843 Ry
     estimated scf accuracy    <          2.3E-09 Ry

     The total energy is the sum of the following terms:
     one-electron contribution =    -317.49314427 Ry
     hartree contribution      =     239.48836781 Ry
     xc contribution           =    -218.92420771 Ry
     ewald contribution        =    -426.33977426 Ry

     convergence has been achieved in  29 iterations

     Forces acting on atoms (cartesian axes, Ry/au):

     atom    1 type  1   force =     0.00000000    0.00001736    0.00280516
     atom    2 type  2   force =     0.00000000    0.00000025   -0.00278456
     atom    3 type  1   force =     0.00000000   -0.00002077    0.00276294
     atom    4 type  2   force =     0.00000000    0.00000143   -0.00278941
     atom    5 type  1   force =     0.00000000   -0.00000149    0.00281100
     atom    6 type  2   force =     0.00000000    0.00000050   -0.00278213
     atom    7 type  1   force =     0.00000000    0.00000041    0.00276633
     atom    8 type  2   force =     0.00000000    0.00000231   -0.00278933
     The non-local contrib.  to forces
     atom    1 type  1   force =     0.00000000   -0.00001242   -0.04707984
     atom    2 type  2   force =     0.00000000    0.00022354   -0.04725613
     atom    3 type  1   force =     0.00000000    0.00001165   -0.04708850
     atom    4 type  2   force =     0.00000000   -0.00022432   -0.04725295
     atom    5 type  1   force =     0.00000000   -0.00001748   -0.04708086
     atom    6 type  2   force =     0.00000000    0.00022103   -0.04725506
     atom    7 type  1   force =     0.00000000    0.00001920   -0.04708901
     atom    8 type  2   force =     0.00000000   -0.00022151   -0.04725571
     The ionic contribution  to forces
     atom    1 type  1   force =    -0.00000000   -0.00000000   -0.46076443
     atom    2 type  2   force =     0.00000000    0.00000000    0.46076443
     atom    3 type  1   force =     0.00000000    0.00000000   -0.46076443
     atom    4 type  2   force =     0.00000000   -0.00000000    0.46076443
     atom    5 type  1   force =     0.00000000   -0.00000000   -0.46076443
     atom    6 type  2   force =    -0.00000000    0.00000000    0.46076443
     atom    7 type  1   force =    -0.00000000    0.00000000   -0.46076443
     atom    8 type  2   force =     0.00000000   -0.00000000    0.46076443
     The local contribution  to forces
     atom    1 type  1   force =    -0.00000000    0.00002101    0.50810404
     atom    2 type  2   force =     0.00000000   -0.00022014   -0.41670084
     atom    3 type  1   force =     0.00000000   -0.00001879    0.50814305
     atom    4 type  2   force =     0.00000000    0.00021508   -0.41668155
     atom    5 type  1   force =    -0.00000000    0.00004168    0.50809943
     atom    6 type  2   force =     0.00000000   -0.00022009   -0.41670346
     atom    7 type  1   force =     0.00000000   -0.00004316    0.50813992
     atom    8 type  2   force =    -0.00000000    0.00022792   -0.41667959
     The core correction contribution to forces
     atom    1 type  1   force =    -0.00000000   -0.00000551    0.00251060
     atom    2 type  2   force =     0.00000000   -0.00000255    0.00040001
     atom    3 type  1   force =    -0.00000000    0.00000557    0.00251026
     atom    4 type  2   force =    -0.00000000    0.00000254    0.00039995
     atom    5 type  1   force =    -0.00000000   -0.00000576    0.00251087
     atom    6 type  2   force =    -0.00000000   -0.00000251    0.00040000
     atom    7 type  1   force =     0.00000000    0.00000571    0.00251049
     atom    8 type  2   force =     0.00000000    0.00000255    0.00040002
     The Hubbard contrib.    to forces
     atom    1 type  1   force =     0.00000000    0.00000000    0.00000000
     atom    2 type  2   force =     0.00000000    0.00000000    0.00000000
     atom    3 type  1   force =     0.00000000    0.00000000    0.00000000
     atom    4 type  2   force =     0.00000000    0.00000000    0.00000000
     atom    5 type  1   force =     0.00000000    0.00000000    0.00000000
     atom    6 type  2   force =     0.00000000    0.00000000    0.00000000
     atom    7 type  1   force =     0.00000000    0.00000000    0.00000000
     atom    8 type  2   force =     0.00000000    0.00000000    0.00000000
     The SCF correction term to forces
     atom    1 type  1   force =     0.00000000    0.00001335    0.00003924
     atom    2 type  2   force =    -0.00000000   -0.00000153    0.00001244
     atom    3 type  1   force =    -0.00000000   -0.00002015   -0.00003299
     atom    4 type  2   force =    -0.00000000    0.00000721   -0.00001484
     atom    5 type  1   force =     0.00000000   -0.00002086    0.00005043
     atom    6 type  2   force =    -0.00000000    0.00000114    0.00001643
     atom    7 type  1   force =    -0.00000000    0.00001771   -0.00002617
     atom    8 type  2   force =    -0.00000000   -0.00000758   -0.00001401

     Total force =     0.007881     Total SCF correction =     0.000090

     init_run     :      7.77s CPU      8.11s WALL (       1 calls)
     electrons    :    522.97s CPU    543.25s WALL (       1 calls)
     forces       :      2.07s CPU      2.10s WALL (       1 calls)

     Called by init_run:
     wfcinit      :      5.41s CPU      5.67s WALL (       1 calls)
     wfcinit:atom :      0.07s CPU      0.07s WALL (      40 calls)
     wfcinit:wfcr :      5.02s CPU      5.27s WALL (      40 calls)
     potinit      :      0.82s CPU      0.84s WALL (       1 calls)
     hinit0       :      1.34s CPU      1.36s WALL (       1 calls)

     Called by electrons:
     c_bands      :    466.50s CPU    484.07s WALL (      29 calls)
     sum_band     :     50.59s CPU     53.18s WALL (      29 calls)
     v_of_rho     :      2.05s CPU      2.13s WALL (      30 calls)
     v_h          :      0.13s CPU      0.14s WALL (      30 calls)
     v_xc         :      1.98s CPU      2.05s WALL (      31 calls)
     newd         :      3.47s CPU      3.53s WALL (      30 calls)
     mix_rho      :      0.36s CPU      0.38s WALL (      29 calls)

     Called by c_bands:
     init_us_2    :      3.15s CPU      3.20s WALL (    2400 calls)
     init_us_2:cp :      3.13s CPU      3.19s WALL (    2400 calls)
     cegterg      :    437.30s CPU    454.79s WALL (    1160 calls)

     Called by sum_band:
     sum_band:wei :      0.00s CPU      0.01s WALL (      29 calls)
     sum_band:loo :     46.27s CPU     48.71s WALL (      29 calls)
     sum_band:buf :      0.24s CPU      0.26s WALL (    1160 calls)
     sum_band:ini :      1.51s CPU      1.54s WALL (    1160 calls)
     sum_band:cal :      5.14s CPU      5.28s WALL (    1160 calls)
     sum_band:bec :      0.13s CPU      0.13s WALL (    1160 calls)
     addusdens    :      3.93s CPU      4.03s WALL (      29 calls)
                                        0.00s GPU  (      29 calls)
     addusd:skk   :      0.03s CPU      0.03s WALL (      58 calls)
                                        0.00s GPU  (      58 calls)

     Called by *egterg:
     cdiaghg      :     31.71s CPU     31.77s WALL (    7215 calls)
     cegterg:over :     20.47s CPU     20.99s WALL (    6055 calls)
     cegterg:upda :     13.13s CPU     13.17s WALL (    6055 calls)
     cegterg:last :     30.92s CPU     30.95s WALL (    4107 calls)
     h_psi        :    316.11s CPU    332.99s WALL (    7255 calls)
     s_psi        :     21.65s CPU     21.73s WALL (    7255 calls)
     g_psi        :      1.29s CPU      1.30s WALL (    6055 calls)

     Called by h_psi:
     h_psi:calbec :     20.27s CPU     21.00s WALL (    7255 calls)
     vloc_psi     :    272.80s CPU    288.85s WALL (    7255 calls)
     add_vuspsi   :     22.21s CPU     22.30s WALL (    7255 calls)

     General routines
     calbec       :     26.08s CPU     26.97s WALL (    8575 calls)
     fft          :      1.53s CPU      1.64s WALL (     399 calls)
     ffts         :      0.25s CPU      0.26s WALL (      59 calls)
     fftw         :    267.31s CPU    283.13s WALL (  351566 calls)
     interpolate  :      0.32s CPU      0.33s WALL (      30 calls)

     Parallel routines

     PWSCF        :   8m53.27s CPU   9m13.93s WALL


   This run was terminated on:  17:54:39  13Jul2025            

=------------------------------------------------------------------------------=
   JOB DONE.
=------------------------------------------------------------------------------=
Note: The following floating-point exceptions are signalling: IEEE_INVALID_FLAG
Note: The following floating-point exceptions are signalling: IEEE_INVALID_FLAG
