Authorization required, but no authorization protocol specified

Authorization required, but no authorization protocol specified

Authorization required, but no authorization protocol specified

Authorization required, but no authorization protocol specified

Authorization required, but no authorization protocol specified

Authorization required, but no authorization protocol specified

Authorization required, but no authorization protocol specified

Authorization required, but no authorization protocol specified

Authorization required, but no authorization protocol specified

Authorization required, but no authorization protocol specified


     Program PWSCF v.7.2 starts on 13Jul2025 at 16:41:40 

     This program is part of the open-source Quantum ESPRESSO suite
     for quantum simulation of materials; please cite
         "P. Giannozzi et al., J. Phys.:Condens. Matter 21 395502 (2009);
         "P. Giannozzi et al., J. Phys.:Condens. Matter 29 465901 (2017);
         "P. Giannozzi et al., J. Chem. Phys. 152 154105 (2020);
          URL http://www.quantum-espresso.org", 
     in publications or presentations arising from this work. More details at
     http://www.quantum-espresso.org/quote

     Parallel version (MPI), running on     8 processors

     MPI processes distributed on     1 nodes
     56438 MiB available memory on the printing compute node when the environment starts

     Reading input from /home/jvc/QEspresso7.2/ZnO_database/scripts/cell121.in/ZnO-3.27-1.45-121.in
Warning: card &CELL ignored
Warning: card / ignored
Warning: card &FCP ignored
Warning: card / ignored
Warning: card &RISM ignored
Warning: card / ignored

     Current dimensions of program PWSCF are:
     Max number of different atomic species (ntypx) = 10
     Max number of k-points (npk) =  40000
     Max angular momentum in pseudopotentials (lmaxx) =  4
     file Zn.upf: wavefunction(s)  3D renormalized
     Found identity + (  0.0000 -0.5000  0.0000) symmetry
     This is a supercell, fractional translations are disabled
     Message from routine setup:
     using ibrav=0 with symmetry is DISCOURAGED, use correct ibrav instead

     K-points division:     npool     =       2
     R & G space division:  proc/nbgrp/npool/nimage =       4
     Subspace diagonalization in iterative solution of the eigenvalue problem:
     a serial algorithm will be used


     Parallelization info
     --------------------
     sticks:   dense  smooth     PW     G-vecs:    dense   smooth      PW
     Min         525     261     82                20079     7081    1254
     Max         526     262     83                20080     7082    1256
     Sum        2103    1047    329                80319    28327    5019

     Using Slab Decomposition



     bravais-lattice index     =            0
     lattice parameter (alat)  =       6.1789  a.u.
     unit-cell volume          =     593.6451 (a.u.)^3
     number of atoms/cell      =            8
     number of atomic types    =            2
     number of electrons       =        72.00
     number of Kohn-Sham states=           36
     kinetic-energy cutoff     =      50.0000  Ry
     charge density cutoff     =     400.0000  Ry
     scf convergence threshold =      1.0E-08
     mixing beta               =       0.3000
     number of iterations used =            8  plain     mixing
     Exchange-correlation= PBE
                           (   1   4   3   4   0   0   0)

     celldm(1)=   6.178854  celldm(2)=   0.000000  celldm(3)=   0.000000
     celldm(4)=   0.000000  celldm(5)=   0.000000  celldm(6)=   0.000000

     crystal axes: (cart. coord. in units of alat)
               a(1) = (   1.000000   0.000000   0.000000 )  
               a(2) = (  -1.000000   1.732051   0.000000 )  
               a(3) = (   0.000000   0.000000   1.452923 )  

     reciprocal axes: (cart. coord. in units 2 pi/alat)
               b(1) = (  1.000000  0.577350 -0.000000 )  
               b(2) = (  0.000000  0.577350  0.000000 )  
               b(3) = (  0.000000 -0.000000  0.688268 )  


     PseudoPot. # 1 for Zn read from file:
     /home/jvc/QEspresso7.2/ZnO_database/pseudos/Zn.upf
     MD5 check sum: 7f56cabf9682ed8c977c2f7d0c5985c5
     Pseudo is Ultrasoft + core correction, Zval = 12.0
     Generated using &quot;atomic&quot; code by A. Dal Corso  v.6.2.2
     Using radial grid of 1201 points,  6 beta functions with: 
                l(1) =   0
                l(2) =   0
                l(3) =   1
                l(4) =   1
                l(5) =   2
                l(6) =   2
     Q(r) pseudized with 0 coefficients 


     PseudoPot. # 2 for O  read from file:
     /home/jvc/QEspresso7.2/ZnO_database/pseudos/O.upf
     MD5 check sum: 91400c9766925bcf19f520983a725ff0
     Pseudo is Ultrasoft + core correction, Zval =  6.0
     Generated using &quot;atomic&quot; code by A. Dal Corso  v.6.3MaX
     Using radial grid of 1095 points,  4 beta functions with: 
                l(1) =   0
                l(2) =   0
                l(3) =   1
                l(4) =   1
     Q(r) pseudized with 0 coefficients 


     atomic species   valence    mass     pseudopotential
        Zn            12.00    65.38000     Zn( 1.00)
        O              6.00    15.99900     O ( 1.00)

      2 Sym. Ops. (no inversion) found


                                    s                        frac. trans.

      isym =  1     identity                                     

 cryst.   s( 1) = (     1          0          0      )
                  (     0          1          0      )
                  (     0          0          1      )

 cart.    s( 1) = (  1.0000000  0.0000000  0.0000000 )
                  (  0.0000000  1.0000000  0.0000000 )
                  (  0.0000000  0.0000000  1.0000000 )


      isym =  2     inv. 180 deg rotation - cart. axis [1,0,0]   

 cryst.   s( 2) = (    -1          0          0      )
                  (     2          1          0      )
                  (     0          0          1      )

 cart.    s( 2) = ( -1.0000000  0.0000000  0.0000000 )
                  (  0.0000000  1.0000000  0.0000000 )
                  (  0.0000000  0.0000000  1.0000000 )


   Cartesian axes

     site n.     atom                  positions (alat units)
         1           Zn  tau(   1) = (   0.0000000   0.0000000   0.0000000  )
         2           O   tau(   2) = (   0.0000000   0.5773503   0.1338080  )
         3           Zn  tau(   3) = (   0.0000000   0.5773503   0.7264613  )
         4           O   tau(   4) = (   0.0000000   0.0000000   0.8602692  )
         5           Zn  tau(   5) = (  -0.5000000   0.8660254   0.0000000  )
         6           O   tau(   6) = (  -0.5000000   1.4433757   0.1338080  )
         7           Zn  tau(   7) = (  -0.5000000   1.4433757   0.7264613  )
         8           O   tau(   8) = (  -0.5000000   0.8660254   0.8602692  )

   Crystallographic axes

     site n.     atom                  positions (cryst. coord.)
         1           Zn  tau(   1) = (  0.0000000  0.0000000  0.0000000  )
         2           O   tau(   2) = (  0.3333333  0.3333333  0.0920957  )
         3           Zn  tau(   3) = (  0.3333333  0.3333333  0.5000000  )
         4           O   tau(   4) = (  0.0000000  0.0000000  0.5920957  )
         5           Zn  tau(   5) = (  0.0000000  0.5000000  0.0000000  )
         6           O   tau(   6) = (  0.3333333  0.8333333  0.0920957  )
         7           Zn  tau(   7) = (  0.3333333  0.8333333  0.5000000  )
         8           O   tau(   8) = (  0.0000000  0.5000000  0.5920957  )

     number of k points=    80
                       cart. coord. in units 2pi/alat
        k(    1) = (   0.0000000   0.0000000   0.0000000), wk =   0.0092593
        k(    2) = (   0.0000000   0.0000000   0.1147113), wk =   0.0185185
        k(    3) = (   0.0000000   0.0000000   0.2294226), wk =   0.0185185
        k(    4) = (   0.0000000   0.0000000  -0.3441340), wk =   0.0092593
        k(    5) = (   0.0000000   0.0962250   0.0000000), wk =   0.0185185
        k(    6) = (   0.0000000   0.0962250   0.1147113), wk =   0.0185185
        k(    7) = (   0.0000000   0.0962250   0.2294226), wk =   0.0185185
        k(    8) = (   0.0000000   0.0962250  -0.3441340), wk =   0.0185185
        k(    9) = (   0.0000000   0.1924501   0.0000000), wk =   0.0185185
        k(   10) = (   0.0000000   0.1924501   0.1147113), wk =   0.0185185
        k(   11) = (   0.0000000   0.1924501   0.2294226), wk =   0.0185185
        k(   12) = (   0.0000000   0.1924501  -0.3441340), wk =   0.0185185
        k(   13) = (   0.0000000  -0.2886751   0.0000000), wk =   0.0092593
        k(   14) = (   0.0000000  -0.2886751   0.1147113), wk =   0.0185185
        k(   15) = (   0.0000000  -0.2886751   0.2294226), wk =   0.0185185
        k(   16) = (   0.0000000  -0.2886751  -0.3441340), wk =   0.0092593
        k(   17) = (   0.1666667   0.0962250   0.0000000), wk =   0.0370370
        k(   18) = (   0.1666667   0.0962250   0.1147113), wk =   0.0370370
        k(   19) = (   0.1666667   0.0962250   0.2294226), wk =   0.0370370
        k(   20) = (   0.1666667   0.0962250  -0.3441340), wk =   0.0370370
        k(   21) = (   0.1666667   0.1924501   0.0000000), wk =   0.0370370
        k(   22) = (   0.1666667   0.1924501   0.1147113), wk =   0.0370370
        k(   23) = (   0.1666667   0.1924501   0.2294226), wk =   0.0370370
        k(   24) = (   0.1666667   0.1924501  -0.3441340), wk =   0.0370370
        k(   25) = (   0.1666667   0.2886751   0.0000000), wk =   0.0185185
        k(   26) = (   0.1666667   0.2886751   0.1147113), wk =   0.0370370
        k(   27) = (   0.1666667   0.2886751   0.2294226), wk =   0.0370370
        k(   28) = (   0.1666667   0.2886751  -0.3441340), wk =   0.0185185
        k(   29) = (   0.1666667   0.0000000   0.0000000), wk =   0.0185185
        k(   30) = (   0.1666667   0.0000000   0.1147113), wk =   0.0370370
        k(   31) = (   0.1666667   0.0000000   0.2294226), wk =   0.0370370
        k(   32) = (   0.1666667   0.0000000  -0.3441340), wk =   0.0185185
        k(   33) = (   0.3333333   0.1924501   0.0000000), wk =   0.0370370
        k(   34) = (   0.3333333   0.1924501   0.1147113), wk =   0.0370370
        k(   35) = (   0.3333333   0.1924501   0.2294226), wk =   0.0370370
        k(   36) = (   0.3333333   0.1924501  -0.3441340), wk =   0.0370370
        k(   37) = (   0.3333333   0.2886751   0.0000000), wk =   0.0185185
        k(   38) = (   0.3333333   0.2886751   0.1147113), wk =   0.0370370
        k(   39) = (   0.3333333   0.2886751   0.2294226), wk =   0.0370370
        k(   40) = (   0.3333333   0.2886751  -0.3441340), wk =   0.0185185
        k(   41) = (   0.3333333  -0.0962250   0.0000000), wk =   0.0370370
        k(   42) = (   0.3333333  -0.0962250   0.1147113), wk =   0.0370370
        k(   43) = (   0.3333333  -0.0962250   0.2294226), wk =   0.0370370
        k(   44) = (   0.3333333  -0.0962250  -0.3441340), wk =   0.0370370
        k(   45) = (   0.3333333  -0.0000000   0.0000000), wk =   0.0185185
        k(   46) = (   0.3333333  -0.0000000   0.1147113), wk =   0.0370370
        k(   47) = (   0.3333333  -0.0000000   0.2294226), wk =   0.0370370
        k(   48) = (   0.3333333  -0.0000000  -0.3441340), wk =   0.0185185
        k(   49) = (  -0.5000000  -0.2886751   0.0000000), wk =   0.0092593
        k(   50) = (  -0.5000000  -0.2886751   0.1147113), wk =   0.0185185
        k(   51) = (  -0.5000000  -0.2886751   0.2294226), wk =   0.0185185
        k(   52) = (  -0.5000000  -0.2886751  -0.3441340), wk =   0.0092593
        k(   53) = (  -0.5000000  -0.1924501   0.0000000), wk =   0.0185185
        k(   54) = (  -0.5000000  -0.1924501   0.1147113), wk =   0.0185185
        k(   55) = (  -0.5000000  -0.1924501   0.2294226), wk =   0.0185185
        k(   56) = (  -0.5000000  -0.1924501  -0.3441340), wk =   0.0185185
        k(   57) = (  -0.5000000  -0.0962250   0.0000000), wk =   0.0185185
        k(   58) = (  -0.5000000  -0.0962250   0.1147113), wk =   0.0185185
        k(   59) = (  -0.5000000  -0.0962250   0.2294226), wk =   0.0185185
        k(   60) = (  -0.5000000  -0.0962250  -0.3441340), wk =   0.0185185
        k(   61) = (  -0.5000000  -0.5773503   0.0000000), wk =   0.0092593
        k(   62) = (  -0.5000000  -0.5773503   0.1147113), wk =   0.0185185
        k(   63) = (  -0.5000000  -0.5773503   0.2294226), wk =   0.0185185
        k(   64) = (  -0.5000000  -0.5773503  -0.3441340), wk =   0.0092593
        k(   65) = (   0.0000000   0.0962250  -0.1147113), wk =   0.0185185
        k(   66) = (   0.0000000   0.0962250  -0.2294226), wk =   0.0185185
        k(   67) = (   0.0000000   0.1924501  -0.1147113), wk =   0.0185185
        k(   68) = (   0.0000000   0.1924501  -0.2294226), wk =   0.0185185
        k(   69) = (  -0.1666667   0.0962250  -0.1147113), wk =   0.0370370
        k(   70) = (  -0.1666667   0.0962250  -0.2294226), wk =   0.0370370
        k(   71) = (  -0.1666667   0.1924501  -0.1147113), wk =   0.0370370
        k(   72) = (  -0.1666667   0.1924501  -0.2294226), wk =   0.0370370
        k(   73) = (  -0.3333333   0.1924501  -0.1147113), wk =   0.0370370
        k(   74) = (  -0.3333333   0.1924501  -0.2294226), wk =   0.0370370
        k(   75) = (  -0.3333333  -0.0962250  -0.1147113), wk =   0.0370370
        k(   76) = (  -0.3333333  -0.0962250  -0.2294226), wk =   0.0370370
        k(   77) = (   0.5000000  -0.1924501  -0.1147113), wk =   0.0185185
        k(   78) = (   0.5000000  -0.1924501  -0.2294226), wk =   0.0185185
        k(   79) = (   0.5000000  -0.0962250  -0.1147113), wk =   0.0185185
        k(   80) = (   0.5000000  -0.0962250  -0.2294226), wk =   0.0185185

                       cryst. coord.
        k(    1) = (   0.0000000   0.0000000   0.0000000), wk =   0.0092593
        k(    2) = (   0.0000000   0.0000000   0.1666667), wk =   0.0185185
        k(    3) = (   0.0000000   0.0000000   0.3333333), wk =   0.0185185
        k(    4) = (   0.0000000   0.0000000  -0.5000000), wk =   0.0092593
        k(    5) = (   0.0000000   0.1666667   0.0000000), wk =   0.0185185
        k(    6) = (   0.0000000   0.1666667   0.1666667), wk =   0.0185185
        k(    7) = (   0.0000000   0.1666667   0.3333333), wk =   0.0185185
        k(    8) = (   0.0000000   0.1666667  -0.5000000), wk =   0.0185185
        k(    9) = (   0.0000000   0.3333333   0.0000000), wk =   0.0185185
        k(   10) = (   0.0000000   0.3333333   0.1666667), wk =   0.0185185
        k(   11) = (   0.0000000   0.3333333   0.3333333), wk =   0.0185185
        k(   12) = (   0.0000000   0.3333333  -0.5000000), wk =   0.0185185
        k(   13) = (   0.0000000  -0.5000000   0.0000000), wk =   0.0092593
        k(   14) = (   0.0000000  -0.5000000   0.1666667), wk =   0.0185185
        k(   15) = (   0.0000000  -0.5000000   0.3333333), wk =   0.0185185
        k(   16) = (   0.0000000  -0.5000000  -0.5000000), wk =   0.0092593
        k(   17) = (   0.1666667   0.0000000   0.0000000), wk =   0.0370370
        k(   18) = (   0.1666667   0.0000000   0.1666667), wk =   0.0370370
        k(   19) = (   0.1666667   0.0000000   0.3333333), wk =   0.0370370
        k(   20) = (   0.1666667   0.0000000  -0.5000000), wk =   0.0370370
        k(   21) = (   0.1666667   0.1666667   0.0000000), wk =   0.0370370
        k(   22) = (   0.1666667   0.1666667   0.1666667), wk =   0.0370370
        k(   23) = (   0.1666667   0.1666667   0.3333333), wk =   0.0370370
        k(   24) = (   0.1666667   0.1666667  -0.5000000), wk =   0.0370370
        k(   25) = (   0.1666667   0.3333333   0.0000000), wk =   0.0185185
        k(   26) = (   0.1666667   0.3333333   0.1666667), wk =   0.0370370
        k(   27) = (   0.1666667   0.3333333   0.3333333), wk =   0.0370370
        k(   28) = (   0.1666667   0.3333333  -0.5000000), wk =   0.0185185
        k(   29) = (   0.1666667  -0.1666667   0.0000000), wk =   0.0185185
        k(   30) = (   0.1666667  -0.1666667   0.1666667), wk =   0.0370370
        k(   31) = (   0.1666667  -0.1666667   0.3333333), wk =   0.0370370
        k(   32) = (   0.1666667  -0.1666667  -0.5000000), wk =   0.0185185
        k(   33) = (   0.3333333   0.0000000   0.0000000), wk =   0.0370370
        k(   34) = (   0.3333333   0.0000000   0.1666667), wk =   0.0370370
        k(   35) = (   0.3333333   0.0000000   0.3333333), wk =   0.0370370
        k(   36) = (   0.3333333   0.0000000  -0.5000000), wk =   0.0370370
        k(   37) = (   0.3333333   0.1666667   0.0000000), wk =   0.0185185
        k(   38) = (   0.3333333   0.1666667   0.1666667), wk =   0.0370370
        k(   39) = (   0.3333333   0.1666667   0.3333333), wk =   0.0370370
        k(   40) = (   0.3333333   0.1666667  -0.5000000), wk =   0.0185185
        k(   41) = (   0.3333333  -0.5000000   0.0000000), wk =   0.0370370
        k(   42) = (   0.3333333  -0.5000000   0.1666667), wk =   0.0370370
        k(   43) = (   0.3333333  -0.5000000   0.3333333), wk =   0.0370370
        k(   44) = (   0.3333333  -0.5000000  -0.5000000), wk =   0.0370370
        k(   45) = (   0.3333333  -0.3333333   0.0000000), wk =   0.0185185
        k(   46) = (   0.3333333  -0.3333333   0.1666667), wk =   0.0370370
        k(   47) = (   0.3333333  -0.3333333   0.3333333), wk =   0.0370370
        k(   48) = (   0.3333333  -0.3333333  -0.5000000), wk =   0.0185185
        k(   49) = (  -0.5000000   0.0000000   0.0000000), wk =   0.0092593
        k(   50) = (  -0.5000000   0.0000000   0.1666667), wk =   0.0185185
        k(   51) = (  -0.5000000   0.0000000   0.3333333), wk =   0.0185185
        k(   52) = (  -0.5000000   0.0000000  -0.5000000), wk =   0.0092593
        k(   53) = (  -0.5000000   0.1666667   0.0000000), wk =   0.0185185
        k(   54) = (  -0.5000000   0.1666667   0.1666667), wk =   0.0185185
        k(   55) = (  -0.5000000   0.1666667   0.3333333), wk =   0.0185185
        k(   56) = (  -0.5000000   0.1666667  -0.5000000), wk =   0.0185185
        k(   57) = (  -0.5000000   0.3333333   0.0000000), wk =   0.0185185
        k(   58) = (  -0.5000000   0.3333333   0.1666667), wk =   0.0185185
        k(   59) = (  -0.5000000   0.3333333   0.3333333), wk =   0.0185185
        k(   60) = (  -0.5000000   0.3333333  -0.5000000), wk =   0.0185185
        k(   61) = (  -0.5000000  -0.5000000   0.0000000), wk =   0.0092593
        k(   62) = (  -0.5000000  -0.5000000   0.1666667), wk =   0.0185185
        k(   63) = (  -0.5000000  -0.5000000   0.3333333), wk =   0.0185185
        k(   64) = (  -0.5000000  -0.5000000  -0.5000000), wk =   0.0092593
        k(   65) = (   0.0000000   0.1666667  -0.1666667), wk =   0.0185185
        k(   66) = (   0.0000000   0.1666667  -0.3333333), wk =   0.0185185
        k(   67) = (   0.0000000   0.3333333  -0.1666667), wk =   0.0185185
        k(   68) = (   0.0000000   0.3333333  -0.3333333), wk =   0.0185185
        k(   69) = (  -0.1666667   0.3333333  -0.1666667), wk =   0.0370370
        k(   70) = (  -0.1666667   0.3333333  -0.3333333), wk =   0.0370370
        k(   71) = (  -0.1666667   0.5000000  -0.1666667), wk =   0.0370370
        k(   72) = (  -0.1666667   0.5000000  -0.3333333), wk =   0.0370370
        k(   73) = (  -0.3333333   0.6666667  -0.1666667), wk =   0.0370370
        k(   74) = (  -0.3333333   0.6666667  -0.3333333), wk =   0.0370370
        k(   75) = (  -0.3333333   0.1666667  -0.1666667), wk =   0.0370370
        k(   76) = (  -0.3333333   0.1666667  -0.3333333), wk =   0.0370370
        k(   77) = (   0.5000000  -0.8333333  -0.1666667), wk =   0.0185185
        k(   78) = (   0.5000000  -0.8333333  -0.3333333), wk =   0.0185185
        k(   79) = (   0.5000000  -0.6666667  -0.1666667), wk =   0.0185185
        k(   80) = (   0.5000000  -0.6666667  -0.3333333), wk =   0.0185185

     Dense  grid:    80319 G-vectors     FFT dimensions: (  40,  80,  60)

     Smooth grid:    28327 G-vectors     FFT dimensions: (  27,  60,  45)

     Dynamical RAM for                 wfc:       0.49 MB

     Dynamical RAM for     wfc (w. buffer):      19.95 MB

     Dynamical RAM for           str. fact:       0.61 MB

     Dynamical RAM for           local pot:       0.00 MB

     Dynamical RAM for          nlocal pot:       1.41 MB

     Dynamical RAM for                qrad:       3.21 MB

     Dynamical RAM for          rho,v,vnew:       2.02 MB

     Dynamical RAM for               rhoin:       0.67 MB

     Dynamical RAM for            rho*nmix:       4.90 MB

     Dynamical RAM for           G-vectors:       1.20 MB

     Dynamical RAM for          h,s,v(r/c):       0.24 MB

     Dynamical RAM for          <psi|beta>:       0.06 MB

     Dynamical RAM for                 psi:       0.97 MB

     Dynamical RAM for                hpsi:       0.97 MB

     Dynamical RAM for                spsi:       0.97 MB

     Dynamical RAM for      wfcinit/wfcrot:       1.47 MB

     Dynamical RAM for           addusdens:      29.26 MB

     Dynamical RAM for          addusforce:      30.19 MB

     Estimated static dynamical RAM per process >      31.83 MB

     Estimated max dynamical RAM per process >      66.92 MB

     Estimated total dynamical RAM >     515.77 MB

     Check: negative core charge=   -0.000002

     Initial potential from superposition of free atoms

     starting charge      71.9851, renormalised to      72.0000
     Starting wfcs are   52 randomized atomic wfcs

     total cpu time spent up to now is        7.9 secs

     Self-consistent Calculation

     iteration #  1     ecut=    50.00 Ry     beta= 0.30
     Davidson diagonalization with overlap

---- Real-time Memory Report at c_bands before calling an iterative solver
            74 MiB given to the printing process from OS
             0 MiB allocation reported by mallinfo(arena+hblkhd)
         55884 MiB available memory on the node where the printing process lives
------------------
     ethr =  1.00E-02,  avg # of iterations =  2.0

     total cpu time spent up to now is       18.3 secs

     total energy              =    -722.92402833 Ry
     estimated scf accuracy    <       1.35814237 Ry

     iteration #  2     ecut=    50.00 Ry     beta= 0.30
     Davidson diagonalization with overlap

---- Real-time Memory Report at c_bands before calling an iterative solver
            99 MiB given to the printing process from OS
             0 MiB allocation reported by mallinfo(arena+hblkhd)
         55737 MiB available memory on the node where the printing process lives
------------------
     ethr =  1.89E-03,  avg # of iterations =  2.0

     total cpu time spent up to now is       30.6 secs

     total energy              =    -723.08508387 Ry
     estimated scf accuracy    <       0.20480617 Ry

     iteration #  3     ecut=    50.00 Ry     beta= 0.30
     Davidson diagonalization with overlap

---- Real-time Memory Report at c_bands before calling an iterative solver
           100 MiB given to the printing process from OS
             0 MiB allocation reported by mallinfo(arena+hblkhd)
         55737 MiB available memory on the node where the printing process lives
------------------
     ethr =  2.84E-04,  avg # of iterations =  6.2

     total cpu time spent up to now is       51.4 secs

     total energy              =    -723.16263204 Ry
     estimated scf accuracy    <       0.12993004 Ry

     iteration #  4     ecut=    50.00 Ry     beta= 0.30
     Davidson diagonalization with overlap

---- Real-time Memory Report at c_bands before calling an iterative solver
           100 MiB given to the printing process from OS
             0 MiB allocation reported by mallinfo(arena+hblkhd)
         55927 MiB available memory on the node where the printing process lives
------------------
     ethr =  1.80E-04,  avg # of iterations =  7.7

     total cpu time spent up to now is       75.6 secs

     total energy              =    -723.26892959 Ry
     estimated scf accuracy    <       0.33218407 Ry

     iteration #  5     ecut=    50.00 Ry     beta= 0.30
     Davidson diagonalization with overlap

---- Real-time Memory Report at c_bands before calling an iterative solver
           100 MiB given to the printing process from OS
             0 MiB allocation reported by mallinfo(arena+hblkhd)
         55776 MiB available memory on the node where the printing process lives
------------------
     ethr =  1.80E-04,  avg # of iterations =  1.0

     total cpu time spent up to now is       85.0 secs

     total energy              =    -723.13319306 Ry
     estimated scf accuracy    <       0.23166127 Ry

     iteration #  6     ecut=    50.00 Ry     beta= 0.30
     Davidson diagonalization with overlap

---- Real-time Memory Report at c_bands before calling an iterative solver
           100 MiB given to the printing process from OS
             0 MiB allocation reported by mallinfo(arena+hblkhd)
         55740 MiB available memory on the node where the printing process lives
------------------
     ethr =  1.80E-04,  avg # of iterations =  6.3

     total cpu time spent up to now is      106.4 secs

     total energy              =    -723.22852802 Ry
     estimated scf accuracy    <       0.05115567 Ry

     iteration #  7     ecut=    50.00 Ry     beta= 0.30
     Davidson diagonalization with overlap

---- Real-time Memory Report at c_bands before calling an iterative solver
           100 MiB given to the printing process from OS
             0 MiB allocation reported by mallinfo(arena+hblkhd)
         55783 MiB available memory on the node where the printing process lives
------------------
     ethr =  7.10E-05,  avg # of iterations =  1.3

     total cpu time spent up to now is      116.0 secs

     total energy              =    -723.22671769 Ry
     estimated scf accuracy    <       0.03435675 Ry

     iteration #  8     ecut=    50.00 Ry     beta= 0.30
     Davidson diagonalization with overlap

---- Real-time Memory Report at c_bands before calling an iterative solver
           101 MiB given to the printing process from OS
             0 MiB allocation reported by mallinfo(arena+hblkhd)
         55878 MiB available memory on the node where the printing process lives
------------------
     ethr =  4.77E-05,  avg # of iterations =  1.1

     total cpu time spent up to now is      125.5 secs

     total energy              =    -723.22743120 Ry
     estimated scf accuracy    <       0.02457653 Ry

     iteration #  9     ecut=    50.00 Ry     beta= 0.30
     Davidson diagonalization with overlap

---- Real-time Memory Report at c_bands before calling an iterative solver
           101 MiB given to the printing process from OS
             0 MiB allocation reported by mallinfo(arena+hblkhd)
         55750 MiB available memory on the node where the printing process lives
------------------
     ethr =  3.41E-05,  avg # of iterations =  1.1

     total cpu time spent up to now is      134.9 secs

     total energy              =    -723.22711959 Ry
     estimated scf accuracy    <       0.02380694 Ry

     iteration # 10     ecut=    50.00 Ry     beta= 0.30
     Davidson diagonalization with overlap

---- Real-time Memory Report at c_bands before calling an iterative solver
           101 MiB given to the printing process from OS
             0 MiB allocation reported by mallinfo(arena+hblkhd)
         55880 MiB available memory on the node where the printing process lives
------------------
     ethr =  3.31E-05,  avg # of iterations =  1.0

     total cpu time spent up to now is      144.2 secs

     total energy              =    -723.22080218 Ry
     estimated scf accuracy    <       0.02122645 Ry

     iteration # 11     ecut=    50.00 Ry     beta= 0.30
     Davidson diagonalization with overlap

---- Real-time Memory Report at c_bands before calling an iterative solver
           101 MiB given to the printing process from OS
             0 MiB allocation reported by mallinfo(arena+hblkhd)
         55790 MiB available memory on the node where the printing process lives
------------------
     ethr =  2.95E-05,  avg # of iterations =  1.2

     total cpu time spent up to now is      153.8 secs

     total energy              =    -723.21877698 Ry
     estimated scf accuracy    <       0.00835780 Ry

     iteration # 12     ecut=    50.00 Ry     beta= 0.30
     Davidson diagonalization with overlap

---- Real-time Memory Report at c_bands before calling an iterative solver
           101 MiB given to the printing process from OS
             0 MiB allocation reported by mallinfo(arena+hblkhd)
         55718 MiB available memory on the node where the printing process lives
------------------
     ethr =  1.16E-05,  avg # of iterations =  4.0

     total cpu time spent up to now is      168.7 secs

     total energy              =    -723.22301752 Ry
     estimated scf accuracy    <       0.00002295 Ry

     iteration # 13     ecut=    50.00 Ry     beta= 0.30
     Davidson diagonalization with overlap

---- Real-time Memory Report at c_bands before calling an iterative solver
           101 MiB given to the printing process from OS
             0 MiB allocation reported by mallinfo(arena+hblkhd)
         55792 MiB available memory on the node where the printing process lives
------------------
     c_bands:  1 eigenvalues not converged
     c_bands:  2 eigenvalues not converged
     c_bands:  1 eigenvalues not converged
     c_bands:  1 eigenvalues not converged
     ethr =  3.19E-08,  avg # of iterations = 16.2

     total cpu time spent up to now is      219.7 secs

     total energy              =    -723.22399323 Ry
     estimated scf accuracy    <       0.01205989 Ry

     iteration # 14     ecut=    50.00 Ry     beta= 0.30
     Davidson diagonalization with overlap

---- Real-time Memory Report at c_bands before calling an iterative solver
           101 MiB given to the printing process from OS
             0 MiB allocation reported by mallinfo(arena+hblkhd)
         56023 MiB available memory on the node where the printing process lives
------------------
     ethr =  3.19E-08,  avg # of iterations = 10.3

     total cpu time spent up to now is      252.4 secs

     total energy              =    -723.22131313 Ry
     estimated scf accuracy    <       0.00683982 Ry

     iteration # 15     ecut=    50.00 Ry     beta= 0.30
     Davidson diagonalization with overlap

---- Real-time Memory Report at c_bands before calling an iterative solver
           101 MiB given to the printing process from OS
             0 MiB allocation reported by mallinfo(arena+hblkhd)
         55905 MiB available memory on the node where the printing process lives
------------------
     ethr =  3.19E-08,  avg # of iterations = 14.5

     total cpu time spent up to now is      297.1 secs

     total energy              =    -723.22236981 Ry
     estimated scf accuracy    <       0.00006667 Ry

     iteration # 16     ecut=    50.00 Ry     beta= 0.30
     Davidson diagonalization with overlap

---- Real-time Memory Report at c_bands before calling an iterative solver
           101 MiB given to the printing process from OS
             0 MiB allocation reported by mallinfo(arena+hblkhd)
         55748 MiB available memory on the node where the printing process lives
------------------
     ethr =  3.19E-08,  avg # of iterations =  5.5

     total cpu time spent up to now is      315.0 secs

     total energy              =    -723.22235477 Ry
     estimated scf accuracy    <       0.00022465 Ry

     iteration # 17     ecut=    50.00 Ry     beta= 0.30
     Davidson diagonalization with overlap

---- Real-time Memory Report at c_bands before calling an iterative solver
           101 MiB given to the printing process from OS
             0 MiB allocation reported by mallinfo(arena+hblkhd)
         55690 MiB available memory on the node where the printing process lives
------------------
     ethr =  3.19E-08,  avg # of iterations =  1.0

     total cpu time spent up to now is      324.3 secs

     total energy              =    -723.22229566 Ry
     estimated scf accuracy    <       0.00018007 Ry

     iteration # 18     ecut=    50.00 Ry     beta= 0.30
     Davidson diagonalization with overlap

---- Real-time Memory Report at c_bands before calling an iterative solver
           101 MiB given to the printing process from OS
             0 MiB allocation reported by mallinfo(arena+hblkhd)
         55775 MiB available memory on the node where the printing process lives
------------------
     ethr =  3.19E-08,  avg # of iterations =  6.4

     total cpu time spent up to now is      346.1 secs

     total energy              =    -723.22230248 Ry
     estimated scf accuracy    <       0.00001596 Ry

     iteration # 19     ecut=    50.00 Ry     beta= 0.30
     Davidson diagonalization with overlap

---- Real-time Memory Report at c_bands before calling an iterative solver
           101 MiB given to the printing process from OS
             0 MiB allocation reported by mallinfo(arena+hblkhd)
         55696 MiB available memory on the node where the printing process lives
------------------
     ethr =  2.22E-08,  avg # of iterations =  8.2

     total cpu time spent up to now is      371.5 secs

     total energy              =    -723.22230782 Ry
     estimated scf accuracy    <       0.00005243 Ry

     iteration # 20     ecut=    50.00 Ry     beta= 0.30
     Davidson diagonalization with overlap

---- Real-time Memory Report at c_bands before calling an iterative solver
           101 MiB given to the printing process from OS
             0 MiB allocation reported by mallinfo(arena+hblkhd)
         55688 MiB available memory on the node where the printing process lives
------------------
     ethr =  2.22E-08,  avg # of iterations =  4.9

     total cpu time spent up to now is      386.2 secs

     total energy              =    -723.22230863 Ry
     estimated scf accuracy    <       0.00000734 Ry

     iteration # 21     ecut=    50.00 Ry     beta= 0.30
     Davidson diagonalization with overlap

---- Real-time Memory Report at c_bands before calling an iterative solver
           101 MiB given to the printing process from OS
             0 MiB allocation reported by mallinfo(arena+hblkhd)
         55689 MiB available memory on the node where the printing process lives
------------------
     ethr =  1.02E-08,  avg # of iterations =  5.7

     total cpu time spent up to now is      404.9 secs

     total energy              =    -723.22231323 Ry
     estimated scf accuracy    <       0.00000100 Ry

     iteration # 22     ecut=    50.00 Ry     beta= 0.30
     Davidson diagonalization with overlap

---- Real-time Memory Report at c_bands before calling an iterative solver
           101 MiB given to the printing process from OS
             0 MiB allocation reported by mallinfo(arena+hblkhd)
         55828 MiB available memory on the node where the printing process lives
------------------
     ethr =  1.39E-09,  avg # of iterations =  4.9

     total cpu time spent up to now is      419.2 secs

     total energy              =    -723.22231290 Ry
     estimated scf accuracy    <       0.00000186 Ry

     iteration # 23     ecut=    50.00 Ry     beta= 0.30
     Davidson diagonalization with overlap

---- Real-time Memory Report at c_bands before calling an iterative solver
           101 MiB given to the printing process from OS
             0 MiB allocation reported by mallinfo(arena+hblkhd)
         55801 MiB available memory on the node where the printing process lives
------------------
     ethr =  1.39E-09,  avg # of iterations =  2.0

     total cpu time spent up to now is      430.0 secs

     total energy              =    -723.22231262 Ry
     estimated scf accuracy    <       0.00000062 Ry

     iteration # 24     ecut=    50.00 Ry     beta= 0.30
     Davidson diagonalization with overlap

---- Real-time Memory Report at c_bands before calling an iterative solver
           101 MiB given to the printing process from OS
             0 MiB allocation reported by mallinfo(arena+hblkhd)
         55715 MiB available memory on the node where the printing process lives
------------------
     ethr =  8.67E-10,  avg # of iterations =  6.5

     total cpu time spent up to now is      451.1 secs

     total energy              =    -723.22231315 Ry
     estimated scf accuracy    <       0.00000046 Ry

     iteration # 25     ecut=    50.00 Ry     beta= 0.30
     Davidson diagonalization with overlap

---- Real-time Memory Report at c_bands before calling an iterative solver
           101 MiB given to the printing process from OS
             0 MiB allocation reported by mallinfo(arena+hblkhd)
         55770 MiB available memory on the node where the printing process lives
------------------
     ethr =  6.45E-10,  avg # of iterations =  1.1

     total cpu time spent up to now is      459.9 secs

     total energy              =    -723.22231290 Ry
     estimated scf accuracy    <       0.00000036 Ry

     iteration # 26     ecut=    50.00 Ry     beta= 0.30
     Davidson diagonalization with overlap

---- Real-time Memory Report at c_bands before calling an iterative solver
           101 MiB given to the printing process from OS
             0 MiB allocation reported by mallinfo(arena+hblkhd)
         55805 MiB available memory on the node where the printing process lives
------------------
     ethr =  5.01E-10,  avg # of iterations =  6.2

     total cpu time spent up to now is      480.2 secs

     total energy              =    -723.22231304 Ry
     estimated scf accuracy    <       0.00000023 Ry

     iteration # 27     ecut=    50.00 Ry     beta= 0.30
     Davidson diagonalization with overlap

---- Real-time Memory Report at c_bands before calling an iterative solver
           101 MiB given to the printing process from OS
             0 MiB allocation reported by mallinfo(arena+hblkhd)
         55688 MiB available memory on the node where the printing process lives
------------------
     ethr =  3.21E-10,  avg # of iterations =  2.0

     total cpu time spent up to now is      490.4 secs

     total energy              =    -723.22231302 Ry
     estimated scf accuracy    <       0.00000007 Ry

     iteration # 28     ecut=    50.00 Ry     beta= 0.30
     Davidson diagonalization with overlap

---- Real-time Memory Report at c_bands before calling an iterative solver
           101 MiB given to the printing process from OS
             0 MiB allocation reported by mallinfo(arena+hblkhd)
         55911 MiB available memory on the node where the printing process lives
------------------
     ethr =  1.00E-10,  avg # of iterations =  5.6

     total cpu time spent up to now is      508.1 secs

     total energy              =    -723.22231307 Ry
     estimated scf accuracy    <       0.00000001 Ry

     iteration # 29     ecut=    50.00 Ry     beta= 0.30
     Davidson diagonalization with overlap

---- Real-time Memory Report at c_bands before calling an iterative solver
           101 MiB given to the printing process from OS
             0 MiB allocation reported by mallinfo(arena+hblkhd)
         55695 MiB available memory on the node where the printing process lives
------------------
     ethr =  1.75E-11,  avg # of iterations =  2.5

     total cpu time spent up to now is      519.4 secs

     total energy              =    -723.22231306 Ry
     estimated scf accuracy    <       0.00000001 Ry

     iteration # 30     ecut=    50.00 Ry     beta= 0.30
     Davidson diagonalization with overlap

---- Real-time Memory Report at c_bands before calling an iterative solver
           101 MiB given to the printing process from OS
             0 MiB allocation reported by mallinfo(arena+hblkhd)
         55744 MiB available memory on the node where the printing process lives
------------------
     ethr =  1.43E-11,  avg # of iterations =  2.0

     total cpu time spent up to now is      530.3 secs

     End of self-consistent calculation

          k = 0.0000 0.0000 0.0000 (  3505 PWs)   bands (ev):

   -10.2048  -9.4303  -9.1709  -9.1051   2.2068   2.2072   2.3970   2.3972
     2.5106   2.5107   2.6313   2.8447   2.8857   3.0153   3.2329   3.5862
     3.7887   3.7887   3.9282   3.9480   4.1206   4.1206   4.1648   4.1847
     4.4920   4.4938   4.8415   5.5919   5.7391   7.1989   7.3372   7.5423
     7.5425   8.1914   8.4388   8.4390

     occupation numbers 
     1.0000   1.0000   1.0000   1.0000   1.0000   1.0000   1.0000   1.0000
     1.0000   1.0000   1.0000   1.0000   1.0000   1.0000   1.0000   1.0000
     1.0000   1.0000   1.0000   1.0000   1.0000   1.0000   1.0000   1.0000
     1.0000   1.0000   1.0000   1.0000   1.0000   1.0000   1.0000   1.0000
     1.0000   1.0000   1.0000   1.0000

          k = 0.0000 0.0000 0.1147 (  3512 PWs)   bands (ev):

   -10.1381  -9.4020  -9.2421  -9.1194   2.0931   2.1165   2.3907   2.3908
     2.4662   2.4891   2.4892   2.7755   2.8596   2.9371   3.1932   3.3989
     3.8246   3.8246   3.9582   3.9930   4.1131   4.1131   4.1513   4.1900
     4.5502   4.7584   4.8640   5.8766   6.0143   7.2466   7.3875   7.6061
     7.6063   7.7244   8.3839   8.3841

     occupation numbers 
     1.0000   1.0000   1.0000   1.0000   1.0000   1.0000   1.0000   1.0000
     1.0000   1.0000   1.0000   1.0000   1.0000   1.0000   1.0000   1.0000
     1.0000   1.0000   1.0000   1.0000   1.0000   1.0000   1.0000   1.0000
     1.0000   1.0000   1.0000   1.0000   1.0000   1.0000   1.0000   1.0000
     1.0000   1.0000   1.0000   1.0000

          k = 0.0000 0.0000 0.2294 (  3534 PWs)   bands (ev):

    -9.9537  -9.4358  -9.3288  -9.1646   1.8736   1.9163   2.2807   2.3849
     2.3850   2.4416   2.4417   2.5243   2.8908   2.9070   3.0964   3.1268
     3.9123   3.9123   3.9867   4.0796   4.0796   4.0858   4.0872   4.1891
     4.6323   4.7009   5.6081   6.2141   6.8035   6.9915   7.0535   7.6341
     7.7786   7.7788   8.2294   8.2297

     occupation numbers 
     1.0000   1.0000   1.0000   1.0000   1.0000   1.0000   1.0000   1.0000
     1.0000   1.0000   1.0000   1.0000   1.0000   1.0000   1.0000   1.0000
     1.0000   1.0000   1.0000   1.0000   1.0000   1.0000   1.0000   1.0000
     1.0000   1.0000   1.0000   1.0000   1.0000   1.0000   1.0000   1.0000
     1.0000   1.0000   1.0000   1.0000

          k = 0.0000 0.0000-0.3441 (  3552 PWs)   bands (ev):

    -9.6971  -9.6971  -9.2397  -9.2397   1.7919   1.7919   2.3091   2.3091
     2.4001   2.4001   2.4003   2.4003   2.9557   2.9557   2.9896   2.9896
     4.0086   4.0086   4.0086   4.0086   4.0302   4.0302   4.1521   4.1521
     4.6770   4.6770   6.3660   6.3660   6.6212   6.6212   7.4528   7.4528
     8.0086   8.0086   8.0088   8.0088

     occupation numbers 
     1.0000   1.0000   1.0000   1.0000   1.0000   1.0000   1.0000   1.0000
     1.0000   1.0000   1.0000   1.0000   1.0000   1.0000   1.0000   1.0000
     1.0000   1.0000   1.0000   1.0000   1.0000   1.0000   1.0000   1.0000
     1.0000   1.0000   1.0000   1.0000   1.0000   1.0000   1.0000   1.0000
     1.0000   1.0000   1.0000   1.0000

          k = 0.0000 0.0962 0.0000 (  3536 PWs)   bands (ev):

   -10.1632  -9.5065  -9.1586  -9.0878   2.1004   2.3206   2.3478   2.4284
     2.5018   2.5471   2.6672   2.8217   2.9084   3.0046   3.1633   3.5714
     3.7453   3.7712   3.7827   3.9080   4.1269   4.1710   4.1822   4.3311
     4.4142   4.4877   5.1337   5.5859   5.8824   7.2875   7.3130   7.4209
     7.4269   7.9831   8.1490   8.3738

     occupation numbers 
     1.0000   1.0000   1.0000   1.0000   1.0000   1.0000   1.0000   1.0000
     1.0000   1.0000   1.0000   1.0000   1.0000   1.0000   1.0000   1.0000
     1.0000   1.0000   1.0000   1.0000   1.0000   1.0000   1.0000   1.0000
     1.0000   1.0000   1.0000   1.0000   1.0000   1.0000   1.0000   1.0000
     1.0000   1.0000   1.0000   1.0000

          k = 0.0000 0.0962 0.1147 (  3523 PWs)   bands (ev):

   -10.0979  -9.4726  -9.2272  -9.1090   2.0252   2.1936   2.3315   2.4031
     2.4227   2.5254   2.5711   2.8042   2.8337   2.9172   3.1268   3.3338
     3.8134   3.8192   3.8730   3.9230   4.1179   4.1408   4.1523   4.2876
     4.5664   4.8809   5.0790   5.9501   6.0103   7.3323   7.3542   7.4907
     7.4944   7.5398   8.2812   8.3158

     occupation numbers 
     1.0000   1.0000   1.0000   1.0000   1.0000   1.0000   1.0000   1.0000
     1.0000   1.0000   1.0000   1.0000   1.0000   1.0000   1.0000   1.0000
     1.0000   1.0000   1.0000   1.0000   1.0000   1.0000   1.0000   1.0000
     1.0000   1.0000   1.0000   1.0000   1.0000   1.0000   1.0000   1.0000
     1.0000   1.0000   1.0000   1.0000

          k = 0.0000 0.0962 0.2294 (  3530 PWs)   bands (ev):

    -9.9178  -9.4143  -9.3837  -9.1725   1.8622   1.9419   2.2113   2.2864
     2.4177   2.4769   2.5065   2.5971   2.8554   2.8727   3.0390   3.0639
     3.9079   3.9113   3.9635   4.0205   4.0808   4.0884   4.0952   4.2267
     4.7326   4.9744   5.6235   6.3303   6.7403   6.9504   7.0832   7.5776
     7.6768   7.6876   8.1496   8.1526

     occupation numbers 
     1.0000   1.0000   1.0000   1.0000   1.0000   1.0000   1.0000   1.0000
     1.0000   1.0000   1.0000   1.0000   1.0000   1.0000   1.0000   1.0000
     1.0000   1.0000   1.0000   1.0000   1.0000   1.0000   1.0000   1.0000
     1.0000   1.0000   1.0000   1.0000   1.0000   1.0000   1.0000   1.0000
     1.0000   1.0000   1.0000   1.0000

          k = 0.0000 0.0962-0.3441 (  3546 PWs)   bands (ev):

    -9.6678  -9.6678  -9.2718  -9.2718   1.8005   1.8005   2.1969   2.1969
     2.4343   2.4343   2.4939   2.4939   2.9060   2.9060   2.9438   2.9438
     4.0067   4.0067   4.0167   4.0167   4.0213   4.0213   4.1387   4.1387
     4.8627   4.8627   6.3399   6.3399   6.7229   6.7229   7.4382   7.4382
     7.8699   7.8699   7.9195   7.9195

     occupation numbers 
     1.0000   1.0000   1.0000   1.0000   1.0000   1.0000   1.0000   1.0000
     1.0000   1.0000   1.0000   1.0000   1.0000   1.0000   1.0000   1.0000
     1.0000   1.0000   1.0000   1.0000   1.0000   1.0000   1.0000   1.0000
     1.0000   1.0000   1.0000   1.0000   1.0000   1.0000   1.0000   1.0000
     1.0000   1.0000   1.0000   1.0000

          k = 0.0000 0.1925 0.0000 (  3528 PWs)   bands (ev):

   -10.0454  -9.6771  -9.1275  -9.0759   2.0639   2.2325   2.3963   2.4765
     2.5171   2.6508   2.7511   2.7753   2.9694   2.9751   2.9960   3.3553
     3.6468   3.7287   3.7751   3.8351   4.1421   4.1736   4.3049   4.3692
     4.4772   4.6339   5.3405   5.9939   6.2406   6.6426   7.1150   7.3188
     7.5622   7.6407   8.0225   8.1894

     occupation numbers 
     1.0000   1.0000   1.0000   1.0000   1.0000   1.0000   1.0000   1.0000
     1.0000   1.0000   1.0000   1.0000   1.0000   1.0000   1.0000   1.0000
     1.0000   1.0000   1.0000   1.0000   1.0000   1.0000   1.0000   1.0000
     1.0000   1.0000   1.0000   1.0000   1.0000   1.0000   1.0000   1.0000
     1.0000   1.0000   1.0000   1.0000

          k = 0.0000 0.1925 0.1147 (  3539 PWs)   bands (ev):

    -9.9844  -9.6328  -9.1885  -9.1110   2.0086   2.2005   2.2561   2.3472
     2.5124   2.6277   2.6839   2.7556   2.8686   2.8726   2.9659   3.1539
     3.7791   3.7880   3.8112   3.8598   4.1288   4.1493   4.2084   4.3119
     4.8741   4.9342   5.5249   6.0101   6.3497   6.7265   7.0852   7.1923
     7.5576   7.7110   8.1207   8.1235

     occupation numbers 
     1.0000   1.0000   1.0000   1.0000   1.0000   1.0000   1.0000   1.0000
     1.0000   1.0000   1.0000   1.0000   1.0000   1.0000   1.0000   1.0000
     1.0000   1.0000   1.0000   1.0000   1.0000   1.0000   1.0000   1.0000
     1.0000   1.0000   1.0000   1.0000   1.0000   1.0000   1.0000   1.0000
     1.0000   1.0000   1.0000   1.0000

          k = 0.0000 0.1925 0.2294 (  3535 PWs)   bands (ev):

    -9.8170  -9.5142  -9.3564  -9.2115   1.8827   1.9843   2.0920   2.1457
     2.5104   2.5764   2.6086   2.6933   2.7763   2.7839   2.8955   2.9289
     3.9002   3.9124   3.9241   3.9554   4.0831   4.0878   4.1369   4.2276
     5.1152   5.4961   5.6370   6.6116   6.6320   6.6435   7.1207   7.3246
     7.4003   7.7940   7.9387   8.0098

     occupation numbers 
     1.0000   1.0000   1.0000   1.0000   1.0000   1.0000   1.0000   1.0000
     1.0000   1.0000   1.0000   1.0000   1.0000   1.0000   1.0000   1.0000
     1.0000   1.0000   1.0000   1.0000   1.0000   1.0000   1.0000   1.0000
     1.0000   1.0000   1.0000   1.0000   1.0000   1.0000   1.0000   1.0000
     1.0000   1.0000   1.0000   1.0000

          k = 0.0000 0.1925-0.3441 (  3534 PWs)   bands (ev):

    -9.5869  -9.5869  -9.3583  -9.3583   1.8380   1.8380   2.0479   2.0479
     2.5306   2.5306   2.6020   2.6020   2.8048   2.8048   2.8236   2.8236
     4.0022   4.0022   4.0068   4.0068   4.0393   4.0393   4.1090   4.1090
     5.3131   5.3131   6.1977   6.1977   6.9900   6.9900   7.4112   7.4112
     7.5952   7.5952   7.6752   7.6752

     occupation numbers 
     1.0000   1.0000   1.0000   1.0000   1.0000   1.0000   1.0000   1.0000
     1.0000   1.0000   1.0000   1.0000   1.0000   1.0000   1.0000   1.0000
     1.0000   1.0000   1.0000   1.0000   1.0000   1.0000   1.0000   1.0000
     1.0000   1.0000   1.0000   1.0000   1.0000   1.0000   1.0000   1.0000
     1.0000   1.0000   1.0000   1.0000

          k = 0.0000-0.2887 0.0000 (  3540 PWs)   bands (ev):

    -9.8722  -9.8722  -9.0932  -9.0932   2.1176   2.1176   2.4420   2.4420
     2.6385   2.6385   2.8079   2.8080   2.9063   2.9063   3.0986   3.0986
     3.6787   3.6787   3.7866   3.7866   4.1594   4.1594   4.3901   4.3901
     4.5580   4.5580   5.8884   5.8884   6.6470   6.6470   6.6875   6.6875
     7.8196   7.8196   7.9233   7.9233

     occupation numbers 
     1.0000   1.0000   1.0000   1.0000   1.0000   1.0000   1.0000   1.0000
     1.0000   1.0000   1.0000   1.0000   1.0000   1.0000   1.0000   1.0000
     1.0000   1.0000   1.0000   1.0000   1.0000   1.0000   1.0000   1.0000
     1.0000   1.0000   1.0000   1.0000   1.0000   1.0000   1.0000   1.0000
     1.0000   1.0000   1.0000   1.0000

          k = 0.0000-0.2887 0.1147 (  3556 PWs)   bands (ev):

    -9.8184  -9.8184  -9.1426  -9.1426   2.0746   2.0746   2.3011   2.3011
     2.6368   2.6368   2.7826   2.7826   2.7990   2.7990   2.9741   2.9741
     3.7671   3.7671   3.8193   3.8193   4.1405   4.1405   4.2763   4.2763
     4.9995   4.9995   6.0217   6.0217   6.5071   6.5071   6.7791   6.7791
     7.8483   7.8483   7.9348   7.9348

     occupation numbers 
     1.0000   1.0000   1.0000   1.0000   1.0000   1.0000   1.0000   1.0000
     1.0000   1.0000   1.0000   1.0000   1.0000   1.0000   1.0000   1.0000
     1.0000   1.0000   1.0000   1.0000   1.0000   1.0000   1.0000   1.0000
     1.0000   1.0000   1.0000   1.0000   1.0000   1.0000   1.0000   1.0000
     1.0000   1.0000   1.0000   1.0000

          k = 0.0000-0.2887 0.2294 (  3540 PWs)   bands (ev):

    -9.6719  -9.6719  -9.2803  -9.2803   1.9655   1.9655   2.0465   2.0465
     2.6422   2.6422   2.7036   2.7036   2.7253   2.7253   2.7974   2.7974
     3.9018   3.9018   3.9238   3.9238   4.0855   4.0855   4.1883   4.1883
     5.5081   5.5081   6.0805   6.0805   6.7248   6.7248   7.0218   7.0218
     7.6381   7.6381   7.8985   7.8985

     occupation numbers 
     1.0000   1.0000   1.0000   1.0000   1.0000   1.0000   1.0000   1.0000
     1.0000   1.0000   1.0000   1.0000   1.0000   1.0000   1.0000   1.0000
     1.0000   1.0000   1.0000   1.0000   1.0000   1.0000   1.0000   1.0000
     1.0000   1.0000   1.0000   1.0000   1.0000   1.0000   1.0000   1.0000
     1.0000   1.0000   1.0000   1.0000

          k = 0.0000-0.2887-0.3441 (  3528 PWs)   bands (ev):

    -9.4740  -9.4740  -9.4740  -9.4740   1.9208   1.9208   1.9208   1.9208
     2.6712   2.6712   2.6713   2.6713   2.7019   2.7019   2.7019   2.7019
     4.0003   4.0003   4.0003   4.0003   4.0726   4.0726   4.0726   4.0726
     5.8284   5.8284   5.8284   5.8284   7.3379   7.3379   7.3379   7.3379
     7.4310   7.4310   7.4310   7.4310

     occupation numbers 
     1.0000   1.0000   1.0000   1.0000   1.0000   1.0000   1.0000   1.0000
     1.0000   1.0000   1.0000   1.0000   1.0000   1.0000   1.0000   1.0000
     1.0000   1.0000   1.0000   1.0000   1.0000   1.0000   1.0000   1.0000
     1.0000   1.0000   1.0000   1.0000   1.0000   1.0000   1.0000   1.0000
     1.0000   1.0000   1.0000   1.0000

          k = 0.1667 0.0962 0.0000 (  3538 PWs)   bands (ev):

   -10.0454  -9.4403  -9.1275  -9.0985   2.2326   2.2730   2.4766   2.4776
     2.5170   2.6508   2.7692   2.7754   2.9471   2.9694   3.2947   3.5449
     3.7139   3.7287   3.7752   3.9161   4.1421   4.1832   4.2929   4.3049
     4.4772   4.5009   5.0827   5.2312   5.8284   6.6427   6.9538   7.1148
     7.1846   7.3189   8.0225   8.1892

     occupation numbers 
     1.0000   1.0000   1.0000   1.0000   1.0000   1.0000   1.0000   1.0000
     1.0000   1.0000   1.0000   1.0000   1.0000   1.0000   1.0000   1.0000
     1.0000   1.0000   1.0000   1.0000   1.0000   1.0000   1.0000   1.0000
     1.0000   1.0000   1.0000   1.0000   1.0000   1.0000   1.0000   1.0000
     1.0000   1.0000   1.0000   1.0000

          k = 0.1667 0.0962 0.1147 (  3540 PWs)   bands (ev):

    -9.9844  -9.4110  -9.1885  -9.1141   2.1944   2.2006   2.3421   2.3473
     2.5123   2.6276   2.6839   2.7744   2.8686   2.8946   3.1819   3.3145
     3.7880   3.8112   3.8406   3.9530   4.1288   4.1590   4.2084   4.3188
     4.5835   4.9342   5.0803   5.3492   6.1620   6.7266   6.8593   7.0852
     7.1922   7.3833   8.1207   8.1233

     occupation numbers 
     1.0000   1.0000   1.0000   1.0000   1.0000   1.0000   1.0000   1.0000
     1.0000   1.0000   1.0000   1.0000   1.0000   1.0000   1.0000   1.0000
     1.0000   1.0000   1.0000   1.0000   1.0000   1.0000   1.0000   1.0000
     1.0000   1.0000   1.0000   1.0000   1.0000   1.0000   1.0000   1.0000
     1.0000   1.0000   1.0000   1.0000

          k = 0.1667 0.0962 0.2294 (  3543 PWs)   bands (ev):

    -9.8170  -9.3564  -9.3350  -9.1626   2.0158   2.0678   2.0920   2.1458
     2.5103   2.5763   2.6086   2.6933   2.7899   2.8519   3.0150   3.1178
     3.9002   3.9125   3.9451   3.9767   4.0831   4.1369   4.1594   4.2847
     4.7412   4.9886   5.6370   5.7011   6.5205   6.6117   6.9515   7.1208
     7.4001   7.6669   7.9385   8.0099

     occupation numbers 
     1.0000   1.0000   1.0000   1.0000   1.0000   1.0000   1.0000   1.0000
     1.0000   1.0000   1.0000   1.0000   1.0000   1.0000   1.0000   1.0000
     1.0000   1.0000   1.0000   1.0000   1.0000   1.0000   1.0000   1.0000
     1.0000   1.0000   1.0000   1.0000   1.0000   1.0000   1.0000   1.0000
     1.0000   1.0000   1.0000   1.0000

          k = 0.1667 0.0962-0.3441 (  3540 PWs)   bands (ev):

    -9.5869  -9.5869  -9.2419  -9.2419   1.9308   1.9308   2.0480   2.0480
     2.5305   2.5305   2.6020   2.6020   2.8214   2.8214   3.0014   3.0014
     3.9785   3.9785   4.0022   4.0022   4.0393   4.0393   4.2186   4.2186
     4.8768   4.8768   6.1294   6.1294   6.1977   6.1977   7.5435   7.5435
     7.5953   7.5953   7.6751   7.6751

     occupation numbers 
     1.0000   1.0000   1.0000   1.0000   1.0000   1.0000   1.0000   1.0000
     1.0000   1.0000   1.0000   1.0000   1.0000   1.0000   1.0000   1.0000
     1.0000   1.0000   1.0000   1.0000   1.0000   1.0000   1.0000   1.0000
     1.0000   1.0000   1.0000   1.0000   1.0000   1.0000   1.0000   1.0000
     1.0000   1.0000   1.0000   1.0000

          k = 0.1667 0.1925 0.0000 (  3542 PWs)   bands (ev):

    -9.9377  -9.6004  -9.1043  -9.0756   2.1741   2.1784   2.4637   2.4639
     2.5647   2.7268   2.7350   2.8911   2.8984   3.0277   3.1878   3.3062
     3.6903   3.7043   3.7719   3.8525   4.1529   4.1785   4.3842   4.3978
     4.5085   4.6154   5.4195   5.6910   5.8667   6.2342   6.6452   7.0027
     7.2570   7.4559   7.9070   7.9729

     occupation numbers 
     1.0000   1.0000   1.0000   1.0000   1.0000   1.0000   1.0000   1.0000
     1.0000   1.0000   1.0000   1.0000   1.0000   1.0000   1.0000   1.0000
     1.0000   1.0000   1.0000   1.0000   1.0000   1.0000   1.0000   1.0000
     1.0000   1.0000   1.0000   1.0000   1.0000   1.0000   1.0000   1.0000
     1.0000   1.0000   1.0000   1.0000

          k = 0.1667 0.1925 0.1147 (  3542 PWs)   bands (ev):

    -9.8811  -9.5605  -9.1582  -9.1048   2.1196   2.1375   2.3119   2.3213
     2.5755   2.6974   2.7400   2.7888   2.8401   2.9264   3.0374   3.1718
     3.7772   3.7951   3.8101   3.8932   4.1365   4.1547   4.2564   4.3411
     4.8320   4.9839   5.5115   5.8474   5.9682   6.3500   6.6188   6.9381
     7.1588   7.6309   7.8964   8.0209

     occupation numbers 
     1.0000   1.0000   1.0000   1.0000   1.0000   1.0000   1.0000   1.0000
     1.0000   1.0000   1.0000   1.0000   1.0000   1.0000   1.0000   1.0000
     1.0000   1.0000   1.0000   1.0000   1.0000   1.0000   1.0000   1.0000
     1.0000   1.0000   1.0000   1.0000   1.0000   1.0000   1.0000   1.0000
     1.0000   1.0000   1.0000   1.0000

          k = 0.1667 0.1925 0.2294 (  3545 PWs)   bands (ev):

    -9.7263  -9.4542  -9.3076  -9.1897   1.9789   2.0319   2.0413   2.0705
     2.5778   2.6326   2.6944   2.7276   2.7699   2.7768   2.8976   3.0229
     3.8980   3.9199   3.9448   3.9560   4.0852   4.1108   4.1716   4.2560
     5.0661   5.4237   5.5938   6.0823   6.3066   6.6772   6.8573   6.9529
     7.1021   7.6888   7.7949   7.9613

     occupation numbers 
     1.0000   1.0000   1.0000   1.0000   1.0000   1.0000   1.0000   1.0000
     1.0000   1.0000   1.0000   1.0000   1.0000   1.0000   1.0000   1.0000
     1.0000   1.0000   1.0000   1.0000   1.0000   1.0000   1.0000   1.0000
     1.0000   1.0000   1.0000   1.0000   1.0000   1.0000   1.0000   1.0000
     1.0000   1.0000   1.0000   1.0000

          k = 0.1667 0.1925-0.3441 (  3540 PWs)   bands (ev):

    -9.5157  -9.5157  -9.3166  -9.3166   1.9075   1.9075   1.9708   1.9708
     2.5882   2.5882   2.6880   2.6880   2.7308   2.7308   2.9205   2.9205
     3.9983   3.9983   4.0004   4.0004   4.0629   4.0629   4.1493   4.1493
     5.2537   5.2537   6.0024   6.0024   6.4661   6.4661   7.3746   7.3746
     7.5116   7.5116   7.5214   7.5214

     occupation numbers 
     1.0000   1.0000   1.0000   1.0000   1.0000   1.0000   1.0000   1.0000
     1.0000   1.0000   1.0000   1.0000   1.0000   1.0000   1.0000   1.0000
     1.0000   1.0000   1.0000   1.0000   1.0000   1.0000   1.0000   1.0000
     1.0000   1.0000   1.0000   1.0000   1.0000   1.0000   1.0000   1.0000
     1.0000   1.0000   1.0000   1.0000

          k = 0.1667 0.2887 0.0000 (  3514 PWs)   bands (ev):

    -9.7795  -9.7795  -9.0811  -9.0811   2.1466   2.1466   2.4557   2.4557
     2.6441   2.6441   2.8062   2.8062   3.0762   3.0762   3.1201   3.1201
     3.6903   3.6903   3.7873   3.7873   4.1661   4.1661   4.3922   4.3922
     4.6386   4.6386   5.8147   5.8147   6.0353   6.0353   6.5002   6.5002
     7.6237   7.6237   7.7180   7.7180

     occupation numbers 
     1.0000   1.0000   1.0000   1.0000   1.0000   1.0000   1.0000   1.0000
     1.0000   1.0000   1.0000   1.0000   1.0000   1.0000   1.0000   1.0000
     1.0000   1.0000   1.0000   1.0000   1.0000   1.0000   1.0000   1.0000
     1.0000   1.0000   1.0000   1.0000   1.0000   1.0000   1.0000   1.0000
     1.0000   1.0000   1.0000   1.0000

          k = 0.1667 0.2887 0.1147 (  3528 PWs)   bands (ev):

    -9.7300  -9.7300  -9.1239  -9.1239   2.1023   2.1023   2.2994   2.2994
     2.6587   2.6587   2.7627   2.7627   2.9262   2.9262   3.0271   3.0271
     3.7778   3.7778   3.8300   3.8300   4.1458   4.1458   4.3054   4.3054
     5.0121   5.0121   6.0273   6.0273   6.0380   6.0380   6.4474   6.4474
     7.5360   7.5360   7.8585   7.8585

     occupation numbers 
     1.0000   1.0000   1.0000   1.0000   1.0000   1.0000   1.0000   1.0000
     1.0000   1.0000   1.0000   1.0000   1.0000   1.0000   1.0000   1.0000
     1.0000   1.0000   1.0000   1.0000   1.0000   1.0000   1.0000   1.0000
     1.0000   1.0000   1.0000   1.0000   1.0000   1.0000   1.0000   1.0000
     1.0000   1.0000   1.0000   1.0000

          k = 0.1667 0.2887 0.2294 (  3556 PWs)   bands (ev):

    -9.5960  -9.5960  -9.2446  -9.2446   1.9887   1.9887   2.0266   2.0266
     2.6610   2.6610   2.6812   2.6812   2.8040   2.8040   2.8918   2.8918
     3.9104   3.9104   3.9360   3.9360   4.0915   4.0915   4.2159   4.2159
     5.4109   5.4109   5.8913   5.8913   6.6055   6.6055   6.6963   6.6963
     7.2997   7.2997   7.8975   7.8975

     occupation numbers 
     1.0000   1.0000   1.0000   1.0000   1.0000   1.0000   1.0000   1.0000
     1.0000   1.0000   1.0000   1.0000   1.0000   1.0000   1.0000   1.0000
     1.0000   1.0000   1.0000   1.0000   1.0000   1.0000   1.0000   1.0000
     1.0000   1.0000   1.0000   1.0000   1.0000   1.0000   1.0000   1.0000
     1.0000   1.0000   1.0000   1.0000

          k = 0.1667 0.2887-0.3441 (  3556 PWs)   bands (ev):

    -9.4170  -9.4170  -9.4170  -9.4170   1.9162   1.9162   1.9162   1.9162
     2.6493   2.6493   2.6493   2.6493   2.8087   2.8087   2.8087   2.8087
     3.9975   3.9975   3.9975   3.9975   4.1006   4.1006   4.1006   4.1006
     5.6691   5.6691   5.6691   5.6691   6.9305   6.9305   6.9305   6.9305
     7.4890   7.4890   7.4890   7.4890

     occupation numbers 
     1.0000   1.0000   1.0000   1.0000   1.0000   1.0000   1.0000   1.0000
     1.0000   1.0000   1.0000   1.0000   1.0000   1.0000   1.0000   1.0000
     1.0000   1.0000   1.0000   1.0000   1.0000   1.0000   1.0000   1.0000
     1.0000   1.0000   1.0000   1.0000   1.0000   1.0000   1.0000   1.0000
     1.0000   1.0000   1.0000   1.0000

          k = 0.1667 0.0000 0.0000 (  3520 PWs)   bands (ev):

   -10.0835  -9.3645  -9.1369  -9.1235   2.2750   2.3462   2.4714   2.4743
     2.4886   2.6116   2.7490   2.7759   2.9483   2.9486   3.3536   3.6684
     3.7442   3.7738   3.8153   3.8921   4.0838   4.1375   4.1930   4.2647
     4.4790   4.7243   4.7954   4.9330   5.9748   6.8045   6.8881   7.0609
     7.1242   7.5447   8.0669   8.2302

     occupation numbers 
     1.0000   1.0000   1.0000   1.0000   1.0000   1.0000   1.0000   1.0000
     1.0000   1.0000   1.0000   1.0000   1.0000   1.0000   1.0000   1.0000
     1.0000   1.0000   1.0000   1.0000   1.0000   1.0000   1.0000   1.0000
     1.0000   1.0000   1.0000   1.0000   1.0000   1.0000   1.0000   1.0000
     1.0000   1.0000   1.0000   1.0000

          k = 0.1667 0.0000 0.1147 (  3530 PWs)   bands (ev):

   -10.0211  -9.3413  -9.2004  -9.1320   2.2506   2.2586   2.3311   2.3479
     2.4844   2.5876   2.6589   2.7865   2.8486   2.9022   3.2645   3.3877
     3.7968   3.8113   3.9204   3.9348   4.1254   4.1527   4.1888   4.1928
     4.7209   4.7328   4.9167   5.1662   6.3172   6.7186   6.9815   7.0966
     7.2565   7.3517   8.1659   8.1738

     occupation numbers 
     1.0000   1.0000   1.0000   1.0000   1.0000   1.0000   1.0000   1.0000
     1.0000   1.0000   1.0000   1.0000   1.0000   1.0000   1.0000   1.0000
     1.0000   1.0000   1.0000   1.0000   1.0000   1.0000   1.0000   1.0000
     1.0000   1.0000   1.0000   1.0000   1.0000   1.0000   1.0000   1.0000
     1.0000   1.0000   1.0000   1.0000

          k = 0.1667 0.0000 0.2294 (  3541 PWs)   bands (ev):

    -9.8494  -9.3746  -9.2826  -9.1610   2.0593   2.0614   2.1355   2.1748
     2.4792   2.5342   2.5866   2.6703   2.8230   2.8702   3.1177   3.1276
     3.9013   3.9122   3.9383   3.9567   4.0825   4.1241   4.2400   4.2438
     4.7070   4.7181   5.5622   5.6395   6.4242   6.7321   7.0225   7.2624
     7.4706   7.5940   7.9860   8.0595

     occupation numbers 
     1.0000   1.0000   1.0000   1.0000   1.0000   1.0000   1.0000   1.0000
     1.0000   1.0000   1.0000   1.0000   1.0000   1.0000   1.0000   1.0000
     1.0000   1.0000   1.0000   1.0000   1.0000   1.0000   1.0000   1.0000
     1.0000   1.0000   1.0000   1.0000   1.0000   1.0000   1.0000   1.0000
     1.0000   1.0000   1.0000   1.0000

          k = 0.1667 0.0000-0.3441 (  3540 PWs)   bands (ev):

    -9.6127  -9.6127  -9.2143  -9.2143   1.9463   1.9463   2.0893   2.0893
     2.4921   2.4921   2.5792   2.5792   2.8657   2.8657   3.0360   3.0360
     3.9498   3.9498   4.0025   4.0025   4.0328   4.0328   4.2691   4.2691
     4.7126   4.7126   6.0067   6.0067   6.2573   6.2573   7.5571   7.5571
     7.6745   7.6745   7.7392   7.7392

     occupation numbers 
     1.0000   1.0000   1.0000   1.0000   1.0000   1.0000   1.0000   1.0000
     1.0000   1.0000   1.0000   1.0000   1.0000   1.0000   1.0000   1.0000
     1.0000   1.0000   1.0000   1.0000   1.0000   1.0000   1.0000   1.0000
     1.0000   1.0000   1.0000   1.0000   1.0000   1.0000   1.0000   1.0000
     1.0000   1.0000   1.0000   1.0000

          k = 0.3333 0.1925 0.0000 (  3546 PWs)   bands (ev):

    -9.6771  -9.4403  -9.0985  -9.0759   2.0640   2.2731   2.3964   2.4777
     2.7510   2.7692   2.9471   2.9751   2.9959   3.2946   3.3553   3.5449
     3.6468   3.7140   3.8351   3.9161   4.1736   4.1832   4.2930   4.3692
     4.5009   4.6340   5.0826   5.2312   5.3406   5.8284   5.9940   6.2405
     6.9537   7.1846   7.5622   7.6405

     occupation numbers 
     1.0000   1.0000   1.0000   1.0000   1.0000   1.0000   1.0000   1.0000
     1.0000   1.0000   1.0000   1.0000   1.0000   1.0000   1.0000   1.0000
     1.0000   1.0000   1.0000   1.0000   1.0000   1.0000   1.0000   1.0000
     1.0000   1.0000   1.0000   1.0000   1.0000   1.0000   1.0000   1.0000
     1.0000   1.0000   1.0000   1.0000

          k = 0.3333 0.1925 0.1147 (  3545 PWs)   bands (ev):

    -9.6328  -9.4110  -9.1141  -9.1110   2.0087   2.1944   2.2562   2.3421
     2.7555   2.7744   2.8726   2.8946   2.9658   3.1539   3.1818   3.3146
     3.7792   3.8407   3.8598   3.9530   4.1493   4.1590   4.3119   4.3188
     4.5835   4.8741   5.0803   5.3492   5.5250   6.0102   6.1620   6.3496
     6.8592   7.3833   7.5574   7.7110

     occupation numbers 
     1.0000   1.0000   1.0000   1.0000   1.0000   1.0000   1.0000   1.0000
     1.0000   1.0000   1.0000   1.0000   1.0000   1.0000   1.0000   1.0000
     1.0000   1.0000   1.0000   1.0000   1.0000   1.0000   1.0000   1.0000
     1.0000   1.0000   1.0000   1.0000   1.0000   1.0000   1.0000   1.0000
     1.0000   1.0000   1.0000   1.0000

          k = 0.3333 0.1925 0.2294 (  3558 PWs)   bands (ev):

    -9.5142  -9.3350  -9.2115  -9.1626   1.8827   1.9844   2.0159   2.0679
     2.7762   2.7839   2.7898   2.8519   2.8954   2.9289   3.0150   3.1178
     3.9242   3.9451   3.9555   3.9768   4.0878   4.1594   4.2277   4.2847
     4.7412   4.9887   5.1153   5.4962   5.7010   6.5204   6.6319   6.6436
     6.9515   7.3244   7.6669   7.7940

     occupation numbers 
     1.0000   1.0000   1.0000   1.0000   1.0000   1.0000   1.0000   1.0000
     1.0000   1.0000   1.0000   1.0000   1.0000   1.0000   1.0000   1.0000
     1.0000   1.0000   1.0000   1.0000   1.0000   1.0000   1.0000   1.0000
     1.0000   1.0000   1.0000   1.0000   1.0000   1.0000   1.0000   1.0000
     1.0000   1.0000   1.0000   1.0000

          k = 0.3333 0.1925-0.3441 (  3562 PWs)   bands (ev):

    -9.3583  -9.3583  -9.2419  -9.2419   1.8380   1.8380   1.9308   1.9308
     2.8048   2.8048   2.8214   2.8214   2.8235   2.8235   3.0013   3.0013
     3.9785   3.9785   4.0068   4.0068   4.1090   4.1090   4.2186   4.2186
     4.8769   4.8769   5.3132   5.3132   6.1293   6.1293   6.9898   6.9898
     7.4113   7.4113   7.5435   7.5435

     occupation numbers 
     1.0000   1.0000   1.0000   1.0000   1.0000   1.0000   1.0000   1.0000
     1.0000   1.0000   1.0000   1.0000   1.0000   1.0000   1.0000   1.0000
     1.0000   1.0000   1.0000   1.0000   1.0000   1.0000   1.0000   1.0000
     1.0000   1.0000   1.0000   1.0000   1.0000   1.0000   1.0000   1.0000
     1.0000   1.0000   1.0000   1.0000

          k = 0.3333 0.2887 0.0000 (  3540 PWs)   bands (ev):

    -9.5665  -9.5665  -9.0792  -9.0792   2.1124   2.1124   2.3995   2.3995
     2.7694   2.7694   2.9652   2.9652   3.1417   3.1417   3.4766   3.4766
     3.6682   3.6682   3.8777   3.8777   4.1801   4.1801   4.3775   4.3775
     4.5175   4.5175   5.2702   5.2702   5.6990   5.6990   5.8925   5.8925
     7.3669   7.3669   7.4249   7.4249

     occupation numbers 
     1.0000   1.0000   1.0000   1.0000   1.0000   1.0000   1.0000   1.0000
     1.0000   1.0000   1.0000   1.0000   1.0000   1.0000   1.0000   1.0000
     1.0000   1.0000   1.0000   1.0000   1.0000   1.0000   1.0000   1.0000
     1.0000   1.0000   1.0000   1.0000   1.0000   1.0000   1.0000   1.0000
     1.0000   1.0000   1.0000   1.0000

          k = 0.3333 0.2887 0.1147 (  3556 PWs)   bands (ev):

    -9.5287  -9.5287  -9.1055  -9.1055   2.0476   2.0476   2.2606   2.2606
     2.7759   2.7759   2.8958   2.8958   3.0745   3.0745   3.2459   3.2459
     3.8103   3.8103   3.9047   3.9047   4.1535   4.1535   4.3228   4.3228
     4.6977   4.6977   5.3244   5.3244   5.8686   5.8686   6.0686   6.0686
     7.2920   7.2920   7.5799   7.5799

     occupation numbers 
     1.0000   1.0000   1.0000   1.0000   1.0000   1.0000   1.0000   1.0000
     1.0000   1.0000   1.0000   1.0000   1.0000   1.0000   1.0000   1.0000
     1.0000   1.0000   1.0000   1.0000   1.0000   1.0000   1.0000   1.0000
     1.0000   1.0000   1.0000   1.0000   1.0000   1.0000   1.0000   1.0000
     1.0000   1.0000   1.0000   1.0000

          k = 0.3333 0.2887 0.2294 (  3552 PWs)   bands (ev):

    -9.4285  -9.4285  -9.1828  -9.1828   1.9018   1.9018   1.9890   1.9890
     2.7831   2.7831   2.8505   2.8505   2.9504   2.9504   3.0326   3.0326
     3.9471   3.9471   3.9794   3.9794   4.1005   4.1005   4.2440   4.2440
     4.8976   4.8976   5.2180   5.2180   6.2584   6.2584   6.7407   6.7407
     7.0444   7.0444   7.7481   7.7481

     occupation numbers 
     1.0000   1.0000   1.0000   1.0000   1.0000   1.0000   1.0000   1.0000
     1.0000   1.0000   1.0000   1.0000   1.0000   1.0000   1.0000   1.0000
     1.0000   1.0000   1.0000   1.0000   1.0000   1.0000   1.0000   1.0000
     1.0000   1.0000   1.0000   1.0000   1.0000   1.0000   1.0000   1.0000
     1.0000   1.0000   1.0000   1.0000

          k = 0.3333 0.2887-0.3441 (  3560 PWs)   bands (ev):

    -9.2999  -9.2999  -9.2999  -9.2999   1.8441   1.8441   1.8441   1.8441
     2.8192   2.8192   2.8192   2.8192   2.9249   2.9249   2.9249   2.9249
     4.0092   4.0092   4.0092   4.0092   4.1402   4.1402   4.1402   4.1402
     5.0656   5.0656   5.0656   5.0656   6.6569   6.6569   6.6569   6.6569
     7.4696   7.4696   7.4696   7.4696

     occupation numbers 
     1.0000   1.0000   1.0000   1.0000   1.0000   1.0000   1.0000   1.0000
     1.0000   1.0000   1.0000   1.0000   1.0000   1.0000   1.0000   1.0000
     1.0000   1.0000   1.0000   1.0000   1.0000   1.0000   1.0000   1.0000
     1.0000   1.0000   1.0000   1.0000   1.0000   1.0000   1.0000   1.0000
     1.0000   1.0000   1.0000   1.0000

          k = 0.3333-0.0962 0.0000 (  3542 PWs)   bands (ev):

    -9.7526  -9.3182  -9.1425  -9.0791   2.1045   2.4386   2.4806   2.6016
     2.6787   2.7530   2.8685   3.0000   3.0214   3.2103   3.4404   3.6114
     3.6691   3.7702   3.8050   3.8992   4.0508   4.1488   4.1682   4.3842
     4.4891   4.6462   4.7004   4.9942   5.5751   6.1219   6.1799   6.3750
     6.5375   6.8719   7.6653   7.6768

     occupation numbers 
     1.0000   1.0000   1.0000   1.0000   1.0000   1.0000   1.0000   1.0000
     1.0000   1.0000   1.0000   1.0000   1.0000   1.0000   1.0000   1.0000
     1.0000   1.0000   1.0000   1.0000   1.0000   1.0000   1.0000   1.0000
     1.0000   1.0000   1.0000   1.0000   1.0000   1.0000   1.0000   1.0000
     1.0000   1.0000   1.0000   1.0000

          k = 0.3333-0.0962 0.1147 (  3547 PWs)   bands (ev):

    -9.7045  -9.2991  -9.1464  -9.1199   2.0557   2.2900   2.3920   2.4839
     2.6851   2.7296   2.8219   2.9188   2.9423   3.0639   3.2714   3.3640
     3.7723   3.8266   3.8393   3.9356   4.1405   4.1467   4.2448   4.3068
     4.6517   4.7373   4.9692   4.9828   5.7515   6.1606   6.3416   6.4220
     6.5289   7.1139   7.5803   7.8164

     occupation numbers 
     1.0000   1.0000   1.0000   1.0000   1.0000   1.0000   1.0000   1.0000
     1.0000   1.0000   1.0000   1.0000   1.0000   1.0000   1.0000   1.0000
     1.0000   1.0000   1.0000   1.0000   1.0000   1.0000   1.0000   1.0000
     1.0000   1.0000   1.0000   1.0000   1.0000   1.0000   1.0000   1.0000
     1.0000   1.0000   1.0000   1.0000

          k = 0.3333-0.0962 0.2294 (  3554 PWs)   bands (ev):

    -9.5744  -9.2518  -9.2354  -9.1631   1.9371   2.0181   2.1773   2.2018
     2.6873   2.7430   2.7496   2.8115   2.8657   2.8981   3.0947   3.1557
     3.8567   3.9133   3.9223   3.9398   4.0898   4.2186   4.2643   4.3587
     4.7115   4.8441   5.1728   5.3204   5.7643   6.0660   6.5960   6.7329
     7.1402   7.3457   7.5275   7.8621

     occupation numbers 
     1.0000   1.0000   1.0000   1.0000   1.0000   1.0000   1.0000   1.0000
     1.0000   1.0000   1.0000   1.0000   1.0000   1.0000   1.0000   1.0000
     1.0000   1.0000   1.0000   1.0000   1.0000   1.0000   1.0000   1.0000
     1.0000   1.0000   1.0000   1.0000   1.0000   1.0000   1.0000   1.0000
     1.0000   1.0000   1.0000   1.0000

          k = 0.3333-0.0962-0.3441 (  3546 PWs)   bands (ev):

    -9.4013  -9.4013  -9.1997  -9.1997   1.8849   1.8849   2.0653   2.0653
     2.7017   2.7017   2.7975   2.7975   2.8098   2.8098   3.0635   3.0635
     3.8910   3.8910   4.0007   4.0007   4.1008   4.1008   4.3483   4.3483
     4.7850   4.7850   5.5553   5.5553   5.6239   5.6239   6.9931   6.9931
     7.4562   7.4562   7.5913   7.5913

     occupation numbers 
     1.0000   1.0000   1.0000   1.0000   1.0000   1.0000   1.0000   1.0000
     1.0000   1.0000   1.0000   1.0000   1.0000   1.0000   1.0000   1.0000
     1.0000   1.0000   1.0000   1.0000   1.0000   1.0000   1.0000   1.0000
     1.0000   1.0000   1.0000   1.0000   1.0000   1.0000   1.0000   1.0000
     1.0000   1.0000   1.0000   1.0000

          k = 0.3333-0.0000 0.0000 (  3536 PWs)   bands (ev):

    -9.7795  -9.2161  -9.2161  -9.0811   2.1468   2.4557   2.6259   2.6440
     2.6591   2.6591   2.8061   3.0762   3.1201   3.1483   3.6492   3.6492
     3.6903   3.7189   3.7874   3.8826   3.8826   3.9203   4.1661   4.3443
     4.3922   4.6387   4.8562   4.8562   5.8147   6.0353   6.3342   6.5001
     6.5080   6.5081   7.6236   7.7180

     occupation numbers 
     1.0000   1.0000   1.0000   1.0000   1.0000   1.0000   1.0000   1.0000
     1.0000   1.0000   1.0000   1.0000   1.0000   1.0000   1.0000   1.0000
     1.0000   1.0000   1.0000   1.0000   1.0000   1.0000   1.0000   1.0000
     1.0000   1.0000   1.0000   1.0000   1.0000   1.0000   1.0000   1.0000
     1.0000   1.0000   1.0000   1.0000

          k = 0.3333-0.0000 0.1147 (  3543 PWs)   bands (ev):

    -9.7300  -9.2083  -9.2083  -9.1239   2.1024   2.2995   2.5397   2.5398
     2.6397   2.6587   2.7627   2.9262   3.0271   3.0636   3.3440   3.3440
     3.7397   3.7778   3.8300   3.9091   4.1458   4.1612   4.1612   4.3054
     4.5079   4.8280   4.8280   5.0121   6.0274   6.0380   6.2046   6.4473
     6.7979   6.7980   7.5358   7.8585

     occupation numbers 
     1.0000   1.0000   1.0000   1.0000   1.0000   1.0000   1.0000   1.0000
     1.0000   1.0000   1.0000   1.0000   1.0000   1.0000   1.0000   1.0000
     1.0000   1.0000   1.0000   1.0000   1.0000   1.0000   1.0000   1.0000
     1.0000   1.0000   1.0000   1.0000   1.0000   1.0000   1.0000   1.0000
     1.0000   1.0000   1.0000   1.0000

          k = 0.3333-0.0000 0.2294 (  3536 PWs)   bands (ev):

    -9.5960  -9.2446  -9.1924  -9.1924   1.9887   2.0267   2.2719   2.2719
     2.6610   2.6812   2.6861   2.8040   2.8918   2.9070   3.1471   3.1471
     3.7825   3.8776   3.9104   3.9360   4.0915   4.2159   4.3648   4.3648
     4.7901   4.7901   4.9015   5.4109   5.8569   5.8914   6.6054   6.6964
     7.2995   7.3438   7.3438   7.8975

     occupation numbers 
     1.0000   1.0000   1.0000   1.0000   1.0000   1.0000   1.0000   1.0000
     1.0000   1.0000   1.0000   1.0000   1.0000   1.0000   1.0000   1.0000
     1.0000   1.0000   1.0000   1.0000   1.0000   1.0000   1.0000   1.0000
     1.0000   1.0000   1.0000   1.0000   1.0000   1.0000   1.0000   1.0000
     1.0000   1.0000   1.0000   1.0000

          k = 0.3333-0.0000-0.3441 (  3530 PWs)   bands (ev):

    -9.4170  -9.4170  -9.1844  -9.1844   1.9162   1.9162   2.1392   2.1392
     2.6492   2.6492   2.7737   2.7737   2.8086   2.8086   3.0983   3.0983
     3.8319   3.8319   3.9975   3.9975   4.1006   4.1006   4.4274   4.4274
     4.7770   4.7770   5.3869   5.3869   5.6692   5.6692   6.9303   6.9303
     7.4891   7.4891   7.6075   7.6075

     occupation numbers 
     1.0000   1.0000   1.0000   1.0000   1.0000   1.0000   1.0000   1.0000
     1.0000   1.0000   1.0000   1.0000   1.0000   1.0000   1.0000   1.0000
     1.0000   1.0000   1.0000   1.0000   1.0000   1.0000   1.0000   1.0000
     1.0000   1.0000   1.0000   1.0000   1.0000   1.0000   1.0000   1.0000
     1.0000   1.0000   1.0000   1.0000

          k =-0.5000-0.2887 0.0000 (  3548 PWs)   bands (ev):

    -9.4303  -9.4303  -9.1051  -9.1051   2.2068   2.2068   2.2073   2.2073
     2.8446   2.8446   3.0153   3.0153   3.2328   3.2328   3.5862   3.5862
     3.9282   3.9282   3.9480   3.9480   4.1649   4.1649   4.1847   4.1847
     4.4921   4.4921   4.8415   4.8415   5.5919   5.5919   5.7390   5.7390
     7.1989   7.1989   7.3370   7.3370

     occupation numbers 
     1.0000   1.0000   1.0000   1.0000   1.0000   1.0000   1.0000   1.0000
     1.0000   1.0000   1.0000   1.0000   1.0000   1.0000   1.0000   1.0000
     1.0000   1.0000   1.0000   1.0000   1.0000   1.0000   1.0000   1.0000
     1.0000   1.0000   1.0000   1.0000   1.0000   1.0000   1.0000   1.0000
     1.0000   1.0000   1.0000   1.0000

          k =-0.5000-0.2887 0.1147 (  3552 PWs)   bands (ev):

    -9.4020  -9.4020  -9.1194  -9.1194   2.0932   2.0932   2.1165   2.1165
     2.8595   2.8595   2.9371   2.9371   3.1931   3.1931   3.3989   3.3989
     3.9582   3.9582   3.9930   3.9930   4.1513   4.1513   4.1900   4.1900
     4.5502   4.5502   4.7584   4.7584   5.8765   5.8765   6.0143   6.0143
     7.2464   7.2464   7.3875   7.3875

     occupation numbers 
     1.0000   1.0000   1.0000   1.0000   1.0000   1.0000   1.0000   1.0000
     1.0000   1.0000   1.0000   1.0000   1.0000   1.0000   1.0000   1.0000
     1.0000   1.0000   1.0000   1.0000   1.0000   1.0000   1.0000   1.0000
     1.0000   1.0000   1.0000   1.0000   1.0000   1.0000   1.0000   1.0000
     1.0000   1.0000   1.0000   1.0000

          k =-0.5000-0.2887 0.2294 (  3560 PWs)   bands (ev):

    -9.3288  -9.3288  -9.1646  -9.1646   1.8737   1.8737   1.9164   1.9164
     2.8909   2.8909   2.9069   2.9069   3.0963   3.0963   3.1269   3.1269
     3.9867   3.9867   4.0859   4.0859   4.0872   4.0872   4.1891   4.1891
     4.6324   4.6324   4.7009   4.7009   6.2139   6.2139   6.8036   6.8036
     6.9913   6.9913   7.6342   7.6342

     occupation numbers 
     1.0000   1.0000   1.0000   1.0000   1.0000   1.0000   1.0000   1.0000
     1.0000   1.0000   1.0000   1.0000   1.0000   1.0000   1.0000   1.0000
     1.0000   1.0000   1.0000   1.0000   1.0000   1.0000   1.0000   1.0000
     1.0000   1.0000   1.0000   1.0000   1.0000   1.0000   1.0000   1.0000
     1.0000   1.0000   1.0000   1.0000

          k =-0.5000-0.2887-0.3441 (  3536 PWs)   bands (ev):

    -9.2397  -9.2397  -9.2397  -9.2397   1.7919   1.7919   1.7919   1.7919
     2.9558   2.9558   2.9558   2.9558   2.9895   2.9895   2.9895   2.9895
     4.0302   4.0302   4.0302   4.0302   4.1522   4.1522   4.1522   4.1522
     4.6771   4.6771   4.6771   4.6771   6.6211   6.6211   6.6211   6.6211
     7.4528   7.4528   7.4528   7.4528

     occupation numbers 
     1.0000   1.0000   1.0000   1.0000   1.0000   1.0000   1.0000   1.0000
     1.0000   1.0000   1.0000   1.0000   1.0000   1.0000   1.0000   1.0000
     1.0000   1.0000   1.0000   1.0000   1.0000   1.0000   1.0000   1.0000
     1.0000   1.0000   1.0000   1.0000   1.0000   1.0000   1.0000   1.0000
     1.0000   1.0000   1.0000   1.0000

[...]
     3.9079   3.9113   3.9635   4.0205   4.0808   4.0884   4.0952   4.2267
     4.7326   4.9744   5.6235   6.3303   6.7403   6.9504   7.0832   7.5776
     7.6768   7.6876   8.1496   8.1526

     occupation numbers 
     1.0000   1.0000   1.0000   1.0000   1.0000   1.0000   1.0000   1.0000
     1.0000   1.0000   1.0000   1.0000   1.0000   1.0000   1.0000   1.0000
     1.0000   1.0000   1.0000   1.0000   1.0000   1.0000   1.0000   1.0000
     1.0000   1.0000   1.0000   1.0000   1.0000   1.0000   1.0000   1.0000
     1.0000   1.0000   1.0000   1.0000

          k = 0.0000 0.1925-0.1147 (  3539 PWs)   bands (ev):

    -9.9844  -9.6328  -9.1885  -9.1110   2.0086   2.2005   2.2561   2.3472
     2.5124   2.6277   2.6839   2.7556   2.8686   2.8726   2.9659   3.1539
     3.7791   3.7880   3.8112   3.8598   4.1288   4.1493   4.2084   4.3119
     4.8741   4.9342   5.5249   6.0101   6.3497   6.7265   7.0852   7.1923
     7.5576   7.7110   8.1207   8.1235

     occupation numbers 
     1.0000   1.0000   1.0000   1.0000   1.0000   1.0000   1.0000   1.0000
     1.0000   1.0000   1.0000   1.0000   1.0000   1.0000   1.0000   1.0000
     1.0000   1.0000   1.0000   1.0000   1.0000   1.0000   1.0000   1.0000
     1.0000   1.0000   1.0000   1.0000   1.0000   1.0000   1.0000   1.0000
     1.0000   1.0000   1.0000   1.0000

          k = 0.0000 0.1925-0.2294 (  3535 PWs)   bands (ev):

    -9.8170  -9.5142  -9.3564  -9.2115   1.8827   1.9843   2.0920   2.1457
     2.5104   2.5764   2.6086   2.6933   2.7763   2.7839   2.8955   2.9289
     3.9002   3.9124   3.9241   3.9554   4.0831   4.0878   4.1369   4.2276
     5.1152   5.4961   5.6370   6.6116   6.6320   6.6435   7.1207   7.3246
     7.4003   7.7940   7.9387   8.0098

     occupation numbers 
     1.0000   1.0000   1.0000   1.0000   1.0000   1.0000   1.0000   1.0000
     1.0000   1.0000   1.0000   1.0000   1.0000   1.0000   1.0000   1.0000
     1.0000   1.0000   1.0000   1.0000   1.0000   1.0000   1.0000   1.0000
     1.0000   1.0000   1.0000   1.0000   1.0000   1.0000   1.0000   1.0000
     1.0000   1.0000   1.0000   1.0000

          k =-0.1667 0.0962-0.1147 (  3540 PWs)   bands (ev):

    -9.9844  -9.4110  -9.1885  -9.1141   2.1944   2.2006   2.3421   2.3473
     2.5123   2.6276   2.6839   2.7744   2.8686   2.8946   3.1819   3.3145
     3.7880   3.8112   3.8406   3.9530   4.1288   4.1590   4.2084   4.3188
     4.5835   4.9342   5.0803   5.3492   6.1620   6.7266   6.8593   7.0852
     7.1922   7.3833   8.1207   8.1233

     occupation numbers 
     1.0000   1.0000   1.0000   1.0000   1.0000   1.0000   1.0000   1.0000
     1.0000   1.0000   1.0000   1.0000   1.0000   1.0000   1.0000   1.0000
     1.0000   1.0000   1.0000   1.0000   1.0000   1.0000   1.0000   1.0000
     1.0000   1.0000   1.0000   1.0000   1.0000   1.0000   1.0000   1.0000
     1.0000   1.0000   1.0000   1.0000

          k =-0.1667 0.0962-0.2294 (  3543 PWs)   bands (ev):

    -9.8170  -9.3564  -9.3350  -9.1626   2.0158   2.0678   2.0920   2.1458
     2.5103   2.5763   2.6086   2.6933   2.7899   2.8519   3.0150   3.1178
     3.9002   3.9125   3.9451   3.9767   4.0831   4.1369   4.1594   4.2847
     4.7412   4.9886   5.6370   5.7011   6.5205   6.6117   6.9515   7.1208
     7.4001   7.6669   7.9385   8.0099

     occupation numbers 
     1.0000   1.0000   1.0000   1.0000   1.0000   1.0000   1.0000   1.0000
     1.0000   1.0000   1.0000   1.0000   1.0000   1.0000   1.0000   1.0000
     1.0000   1.0000   1.0000   1.0000   1.0000   1.0000   1.0000   1.0000
     1.0000   1.0000   1.0000   1.0000   1.0000   1.0000   1.0000   1.0000
     1.0000   1.0000   1.0000   1.0000

          k =-0.1667 0.1925-0.1147 (  3542 PWs)   bands (ev):

    -9.8811  -9.5605  -9.1582  -9.1048   2.1196   2.1375   2.3119   2.3213
     2.5755   2.6974   2.7400   2.7888   2.8401   2.9264   3.0374   3.1718
     3.7772   3.7951   3.8101   3.8932   4.1365   4.1547   4.2564   4.3411
     4.8320   4.9839   5.5115   5.8474   5.9682   6.3500   6.6188   6.9381
     7.1588   7.6309   7.8964   8.0209

     occupation numbers 
     1.0000   1.0000   1.0000   1.0000   1.0000   1.0000   1.0000   1.0000
     1.0000   1.0000   1.0000   1.0000   1.0000   1.0000   1.0000   1.0000
     1.0000   1.0000   1.0000   1.0000   1.0000   1.0000   1.0000   1.0000
     1.0000   1.0000   1.0000   1.0000   1.0000   1.0000   1.0000   1.0000
     1.0000   1.0000   1.0000   1.0000

          k =-0.1667 0.1925-0.2294 (  3545 PWs)   bands (ev):

    -9.7263  -9.4542  -9.3076  -9.1897   1.9789   2.0319   2.0413   2.0705
     2.5778   2.6326   2.6944   2.7276   2.7699   2.7768   2.8976   3.0229
     3.8980   3.9199   3.9448   3.9560   4.0852   4.1108   4.1716   4.2560
     5.0661   5.4237   5.5938   6.0823   6.3066   6.6772   6.8573   6.9529
     7.1021   7.6888   7.7949   7.9613

     occupation numbers 
     1.0000   1.0000   1.0000   1.0000   1.0000   1.0000   1.0000   1.0000
     1.0000   1.0000   1.0000   1.0000   1.0000   1.0000   1.0000   1.0000
     1.0000   1.0000   1.0000   1.0000   1.0000   1.0000   1.0000   1.0000
     1.0000   1.0000   1.0000   1.0000   1.0000   1.0000   1.0000   1.0000
     1.0000   1.0000   1.0000   1.0000

          k =-0.3333 0.1925-0.1147 (  3545 PWs)   bands (ev):

    -9.6328  -9.4110  -9.1141  -9.1110   2.0087   2.1944   2.2562   2.3421
     2.7555   2.7744   2.8726   2.8946   2.9658   3.1539   3.1818   3.3146
     3.7792   3.8407   3.8598   3.9530   4.1493   4.1590   4.3119   4.3188
     4.5835   4.8741   5.0803   5.3492   5.5250   6.0102   6.1620   6.3496
     6.8592   7.3833   7.5574   7.7110

     occupation numbers 
     1.0000   1.0000   1.0000   1.0000   1.0000   1.0000   1.0000   1.0000
     1.0000   1.0000   1.0000   1.0000   1.0000   1.0000   1.0000   1.0000
     1.0000   1.0000   1.0000   1.0000   1.0000   1.0000   1.0000   1.0000
     1.0000   1.0000   1.0000   1.0000   1.0000   1.0000   1.0000   1.0000
     1.0000   1.0000   1.0000   1.0000

          k =-0.3333 0.1925-0.2294 (  3558 PWs)   bands (ev):

    -9.5142  -9.3350  -9.2115  -9.1626   1.8827   1.9844   2.0159   2.0679
     2.7762   2.7839   2.7898   2.8519   2.8954   2.9289   3.0150   3.1178
     3.9242   3.9451   3.9555   3.9768   4.0878   4.1594   4.2277   4.2847
     4.7412   4.9887   5.1153   5.4962   5.7010   6.5204   6.6319   6.6436
     6.9515   7.3244   7.6669   7.7940

     occupation numbers 
     1.0000   1.0000   1.0000   1.0000   1.0000   1.0000   1.0000   1.0000
     1.0000   1.0000   1.0000   1.0000   1.0000   1.0000   1.0000   1.0000
     1.0000   1.0000   1.0000   1.0000   1.0000   1.0000   1.0000   1.0000
     1.0000   1.0000   1.0000   1.0000   1.0000   1.0000   1.0000   1.0000
     1.0000   1.0000   1.0000   1.0000

          k =-0.3333-0.0962-0.1147 (  3547 PWs)   bands (ev):

    -9.7045  -9.2991  -9.1464  -9.1199   2.0557   2.2900   2.3920   2.4839
     2.6851   2.7296   2.8219   2.9188   2.9423   3.0639   3.2714   3.3640
     3.7723   3.8266   3.8393   3.9356   4.1405   4.1467   4.2448   4.3068
     4.6517   4.7373   4.9692   4.9828   5.7515   6.1606   6.3416   6.4220
     6.5289   7.1139   7.5803   7.8164

     occupation numbers 
     1.0000   1.0000   1.0000   1.0000   1.0000   1.0000   1.0000   1.0000
     1.0000   1.0000   1.0000   1.0000   1.0000   1.0000   1.0000   1.0000
     1.0000   1.0000   1.0000   1.0000   1.0000   1.0000   1.0000   1.0000
     1.0000   1.0000   1.0000   1.0000   1.0000   1.0000   1.0000   1.0000
     1.0000   1.0000   1.0000   1.0000

          k =-0.3333-0.0962-0.2294 (  3554 PWs)   bands (ev):

    -9.5744  -9.2518  -9.2354  -9.1631   1.9371   2.0181   2.1773   2.2018
     2.6873   2.7430   2.7496   2.8115   2.8657   2.8981   3.0947   3.1557
     3.8567   3.9133   3.9223   3.9398   4.0898   4.2186   4.2643   4.3587
     4.7115   4.8441   5.1728   5.3204   5.7643   6.0660   6.5960   6.7329
     7.1402   7.3457   7.5275   7.8621

     occupation numbers 
     1.0000   1.0000   1.0000   1.0000   1.0000   1.0000   1.0000   1.0000
     1.0000   1.0000   1.0000   1.0000   1.0000   1.0000   1.0000   1.0000
     1.0000   1.0000   1.0000   1.0000   1.0000   1.0000   1.0000   1.0000
     1.0000   1.0000   1.0000   1.0000   1.0000   1.0000   1.0000   1.0000
     1.0000   1.0000   1.0000   1.0000

          k = 0.5000-0.1925-0.1147 (  3548 PWs)   bands (ev):

    -9.4050  -9.4050  -9.1176  -9.1176   2.1110   2.1110   2.1991   2.1991
     2.8316   2.8316   2.9192   2.9192   3.1981   3.1981   3.3788   3.3788
     3.9146   3.9146   3.9652   3.9652   4.1567   4.1567   4.2292   4.2292
     4.5566   4.5566   4.8723   4.8723   5.6515   5.6515   6.1228   6.1228
     7.1079   7.1079   7.3951   7.3951

     occupation numbers 
     1.0000   1.0000   1.0000   1.0000   1.0000   1.0000   1.0000   1.0000
     1.0000   1.0000   1.0000   1.0000   1.0000   1.0000   1.0000   1.0000
     1.0000   1.0000   1.0000   1.0000   1.0000   1.0000   1.0000   1.0000
     1.0000   1.0000   1.0000   1.0000   1.0000   1.0000   1.0000   1.0000
     1.0000   1.0000   1.0000   1.0000

          k = 0.5000-0.1925-0.2294 (  3548 PWs)   bands (ev):

    -9.3309  -9.3309  -9.1639  -9.1639   1.9168   1.9168   1.9632   1.9632
     2.8616   2.8616   2.8901   2.8902   3.0794   3.0794   3.1163   3.1163
     3.9763   3.9763   4.0168   4.0168   4.1355   4.1355   4.2212   4.2212
     4.6543   4.6543   4.7960   4.7960   6.0342   6.0342   6.8237   6.8237
     6.8842   6.8842   7.6498   7.6498

     occupation numbers 
     1.0000   1.0000   1.0000   1.0000   1.0000   1.0000   1.0000   1.0000
     1.0000   1.0000   1.0000   1.0000   1.0000   1.0000   1.0000   1.0000
     1.0000   1.0000   1.0000   1.0000   1.0000   1.0000   1.0000   1.0000
     1.0000   1.0000   1.0000   1.0000   1.0000   1.0000   1.0000   1.0000
     1.0000   1.0000   1.0000   1.0000

          k = 0.5000-0.0962-0.1147 (  3546 PWs)   bands (ev):

    -9.4110  -9.4110  -9.1141  -9.1141   2.1945   2.1945   2.3422   2.3422
     2.7743   2.7743   2.8946   2.8946   3.1818   3.1818   3.3145   3.3145
     3.8407   3.8407   3.9530   3.9530   4.1590   4.1590   4.3188   4.3188
     4.5835   4.5835   5.0803   5.0803   5.3492   5.3492   6.1620   6.1620
     6.8592   6.8592   7.3833   7.3833

     occupation numbers 
     1.0000   1.0000   1.0000   1.0000   1.0000   1.0000   1.0000   1.0000
     1.0000   1.0000   1.0000   1.0000   1.0000   1.0000   1.0000   1.0000
     1.0000   1.0000   1.0000   1.0000   1.0000   1.0000   1.0000   1.0000
     1.0000   1.0000   1.0000   1.0000   1.0000   1.0000   1.0000   1.0000
     1.0000   1.0000   1.0000   1.0000

          k = 0.5000-0.0962-0.2294 (  3566 PWs)   bands (ev):

    -9.3350  -9.3350  -9.1626  -9.1626   2.0159   2.0159   2.0679   2.0679
     2.7899   2.7899   2.8519   2.8519   3.0150   3.0150   3.1178   3.1178
     3.9451   3.9451   3.9768   3.9768   4.1595   4.1595   4.2847   4.2847
     4.7412   4.7412   4.9886   4.9886   5.7010   5.7010   6.5204   6.5204
     6.9515   6.9515   7.6669   7.6669

     occupation numbers 
     1.0000   1.0000   1.0000   1.0000   1.0000   1.0000   1.0000   1.0000
     1.0000   1.0000   1.0000   1.0000   1.0000   1.0000   1.0000   1.0000
     1.0000   1.0000   1.0000   1.0000   1.0000   1.0000   1.0000   1.0000
     1.0000   1.0000   1.0000   1.0000   1.0000   1.0000   1.0000   1.0000
     1.0000   1.0000   1.0000   1.0000

     highest occupied level (ev):     8.4390

!    total energy              =    -723.22231306 Ry
     estimated scf accuracy    <          3.1E-09 Ry

     The total energy is the sum of the following terms:
     one-electron contribution =    -284.52804475 Ry
     hartree contribution      =     228.01548440 Ry
     xc contribution           =    -219.52745819 Ry
     ewald contribution        =    -447.18229452 Ry

     convergence has been achieved in  30 iterations

     Forces acting on atoms (cartesian axes, Ry/au):

     atom    1 type  1   force =     0.00000000    0.00000088    0.01003899
     atom    2 type  2   force =     0.00000000    0.00000861   -0.01003911
     atom    3 type  1   force =     0.00000000   -0.00000025    0.01003897
     atom    4 type  2   force =     0.00000000   -0.00000851   -0.01003904
     atom    5 type  1   force =     0.00000000    0.00000107    0.01003915
     atom    6 type  2   force =     0.00000000    0.00000817   -0.01003897
     atom    7 type  1   force =     0.00000000   -0.00000150    0.01003891
     atom    8 type  2   force =     0.00000000   -0.00000846   -0.01003891
     The non-local contrib.  to forces
     atom    1 type  1   force =     0.00000000   -0.00002407    0.15617081
     atom    2 type  2   force =     0.00000000    0.00017858    0.12068338
     atom    3 type  1   force =     0.00000000    0.00002397    0.15617077
     atom    4 type  2   force =     0.00000000   -0.00017835    0.12068348
     atom    5 type  1   force =     0.00000000   -0.00002445    0.15617111
     atom    6 type  2   force =     0.00000000    0.00017849    0.12068369
     atom    7 type  1   force =     0.00000000    0.00002405    0.15617045
     atom    8 type  2   force =     0.00000000   -0.00017877    0.12068331
     The ionic contribution  to forces
     atom    1 type  1   force =    -0.00000000   -0.00000000    1.05490017
     atom    2 type  2   force =    -0.00000000    0.00000000   -1.05490017
     atom    3 type  1   force =     0.00000000    0.00000000    1.05490017
     atom    4 type  2   force =     0.00000000   -0.00000000   -1.05490017
     atom    5 type  1   force =    -0.00000000   -0.00000000    1.05490017
     atom    6 type  2   force =    -0.00000000    0.00000000   -1.05490017
     atom    7 type  1   force =    -0.00000000    0.00000000    1.05490017
     atom    8 type  2   force =     0.00000000   -0.00000000   -1.05490017
     The local contribution  to forces
     atom    1 type  1   force =     0.00000000    0.00002955   -1.18938937
     atom    2 type  2   force =    -0.00000000   -0.00016731    0.92507745
     atom    3 type  1   force =    -0.00000000   -0.00003023   -1.18938908
     atom    4 type  2   force =    -0.00000000    0.00016738    0.92507763
     atom    5 type  1   force =     0.00000000    0.00003079   -1.18938974
     atom    6 type  2   force =    -0.00000000   -0.00016755    0.92507814
     atom    7 type  1   force =    -0.00000000   -0.00002972   -1.18938942
     atom    8 type  2   force =    -0.00000000    0.00016803    0.92507867
     The core correction contribution to forces
     atom    1 type  1   force =     0.00000000   -0.00000571   -0.01163897
     atom    2 type  2   force =    -0.00000000   -0.00000203   -0.00090081
     atom    3 type  1   force =     0.00000000    0.00000576   -0.01163896
     atom    4 type  2   force =     0.00000000    0.00000203   -0.00090079
     atom    5 type  1   force =    -0.00000000   -0.00000576   -0.01163896
     atom    6 type  2   force =    -0.00000000   -0.00000203   -0.00090081
     atom    7 type  1   force =    -0.00000000    0.00000574   -0.01163890
     atom    8 type  2   force =     0.00000000    0.00000204   -0.00090078
     The Hubbard contrib.    to forces
     atom    1 type  1   force =     0.00000000    0.00000000    0.00000000
     atom    2 type  2   force =     0.00000000    0.00000000    0.00000000
     atom    3 type  1   force =     0.00000000    0.00000000    0.00000000
     atom    4 type  2   force =     0.00000000    0.00000000    0.00000000
     atom    5 type  1   force =     0.00000000    0.00000000    0.00000000
     atom    6 type  2   force =     0.00000000    0.00000000    0.00000000
     atom    7 type  1   force =     0.00000000    0.00000000    0.00000000
     atom    8 type  2   force =     0.00000000    0.00000000    0.00000000
     The SCF correction term to forces
     atom    1 type  1   force =     0.00000000    0.00000122   -0.00000557
     atom    2 type  2   force =     0.00000000   -0.00000053   -0.00000089
     atom    3 type  1   force =     0.00000000    0.00000036   -0.00000585
     atom    4 type  2   force =     0.00000000    0.00000054   -0.00000111
     atom    5 type  1   force =     0.00000000    0.00000059   -0.00000534
     atom    6 type  2   force =     0.00000000   -0.00000063   -0.00000175
     atom    7 type  1   force =     0.00000000   -0.00000147   -0.00000530
     atom    8 type  2   force =     0.00000000    0.00000036   -0.00000187

     Total force =     0.028395     Total SCF correction =     0.000012

     init_run     :      7.08s CPU      7.44s WALL (       1 calls)
     electrons    :    501.83s CPU    522.37s WALL (       1 calls)
     forces       :      1.72s CPU      1.75s WALL (       1 calls)

     Called by init_run:
     wfcinit      :      4.90s CPU      5.18s WALL (       1 calls)
     wfcinit:atom :      0.06s CPU      0.06s WALL (      40 calls)
     wfcinit:wfcr :      4.57s CPU      4.84s WALL (      40 calls)
     potinit      :      0.70s CPU      0.71s WALL (       1 calls)
     hinit0       :      1.31s CPU      1.33s WALL (       1 calls)

     Called by electrons:
     c_bands      :    447.33s CPU    465.20s WALL (      30 calls)
     sum_band     :     49.45s CPU     51.97s WALL (      30 calls)
     v_of_rho     :      1.73s CPU      1.81s WALL (      31 calls)
     v_h          :      0.11s CPU      0.12s WALL (      31 calls)
     v_xc         :      1.67s CPU      1.74s WALL (      32 calls)
     newd         :      3.04s CPU      3.09s WALL (      31 calls)
     mix_rho      :      0.29s CPU      0.33s WALL (      30 calls)

     Called by c_bands:
     init_us_2    :      2.79s CPU      2.84s WALL (    2480 calls)
     init_us_2:cp :      2.78s CPU      2.83s WALL (    2480 calls)
     cegterg      :    413.74s CPU    431.50s WALL (    1200 calls)

     Called by sum_band:
     sum_band:wei :      0.00s CPU      0.01s WALL (      30 calls)
     sum_band:loo :     44.97s CPU     47.34s WALL (      30 calls)
     sum_band:buf :      0.21s CPU      0.23s WALL (    1200 calls)
     sum_band:ini :      1.34s CPU      1.36s WALL (    1200 calls)
     sum_band:cal :      4.63s CPU      4.76s WALL (    1200 calls)
     sum_band:bec :      0.13s CPU      0.14s WALL (    1200 calls)
     addusdens    :      3.36s CPU      3.47s WALL (      30 calls)
                                        0.00s GPU  (      30 calls)
     addusd:skk   :      0.02s CPU      0.02s WALL (      60 calls)
                                        0.00s GPU  (      60 calls)

     Called by *egterg:
     cdiaghg      :     30.56s CPU     30.62s WALL (    6916 calls)
     cegterg:over :     19.74s CPU     20.20s WALL (    5716 calls)
     cegterg:upda :     11.37s CPU     11.41s WALL (    5716 calls)
     cegterg:last :     26.82s CPU     26.86s WALL (    4160 calls)
     h_psi        :    301.59s CPU    318.83s WALL (    6956 calls)
     s_psi        :     19.29s CPU     19.37s WALL (    6956 calls)
     g_psi        :      1.16s CPU      1.17s WALL (    5716 calls)

     Called by h_psi:
     h_psi:calbec :     18.45s CPU     19.15s WALL (    6956 calls)
     vloc_psi     :    262.75s CPU    279.20s WALL (    6956 calls)
     add_vuspsi   :     19.66s CPU     19.73s WALL (    6956 calls)

     General routines
     calbec       :     23.65s CPU     24.51s WALL (    8316 calls)
     fft          :      1.31s CPU      1.43s WALL (     412 calls)
     ffts         :      0.22s CPU      0.23s WALL (      61 calls)
     fftw         :    261.23s CPU    277.57s WALL (  367382 calls)
     interpolate  :      0.28s CPU      0.29s WALL (      31 calls)

     Parallel routines

     PWSCF        :   8m31.18s CPU   8m52.12s WALL


   This run was terminated on:  16:50:32  13Jul2025            

=------------------------------------------------------------------------------=
   JOB DONE.
=------------------------------------------------------------------------------=
Note: The following floating-point exceptions are signalling: IEEE_INVALID_FLAG
Note: The following floating-point exceptions are signalling: IEEE_INVALID_FLAG
