Authorization required, but no authorization protocol specified

Authorization required, but no authorization protocol specified

Authorization required, but no authorization protocol specified

Authorization required, but no authorization protocol specified

Authorization required, but no authorization protocol specified

Authorization required, but no authorization protocol specified

Authorization required, but no authorization protocol specified

Authorization required, but no authorization protocol specified

Authorization required, but no authorization protocol specified

Authorization required, but no authorization protocol specified


     Program PWSCF v.7.2 starts on 13Jul2025 at 13:57:48 

     This program is part of the open-source Quantum ESPRESSO suite
     for quantum simulation of materials; please cite
         "P. Giannozzi et al., J. Phys.:Condens. Matter 21 395502 (2009);
         "P. Giannozzi et al., J. Phys.:Condens. Matter 29 465901 (2017);
         "P. Giannozzi et al., J. Chem. Phys. 152 154105 (2020);
          URL http://www.quantum-espresso.org", 
     in publications or presentations arising from this work. More details at
     http://www.quantum-espresso.org/quote

     Parallel version (MPI), running on     8 processors

     MPI processes distributed on     1 nodes
     56472 MiB available memory on the printing compute node when the environment starts

     Reading input from /home/jvc/QEspresso7.2/ZnO_database/scripts/cell121.in/ZnO-3.14-1.49-121.in
Warning: card &CELL ignored
Warning: card / ignored
Warning: card &FCP ignored
Warning: card / ignored
Warning: card &RISM ignored
Warning: card / ignored

     Current dimensions of program PWSCF are:
     Max number of different atomic species (ntypx) = 10
     Max number of k-points (npk) =  40000
     Max angular momentum in pseudopotentials (lmaxx) =  4
     file Zn.upf: wavefunction(s)  3D renormalized
     Found identity + (  0.0000 -0.5000  0.0000) symmetry
     This is a supercell, fractional translations are disabled
     Message from routine setup:
     using ibrav=0 with symmetry is DISCOURAGED, use correct ibrav instead

     K-points division:     npool     =       2
     R & G space division:  proc/nbgrp/npool/nimage =       4
     Subspace diagonalization in iterative solution of the eigenvalue problem:
     a serial algorithm will be used


     Parallelization info
     --------------------
     sticks:   dense  smooth     PW     G-vecs:    dense   smooth      PW
     Min         482     245     76                18113     6417    1139
     Max         483     246     77                18116     6420    1140
     Sum        1929     981    305                72457    25675    4559

     Using Slab Decomposition



     bravais-lattice index     =            0
     lattice parameter (alat)  =       5.9317  a.u.
     unit-cell volume          =     536.8907 (a.u.)^3
     number of atoms/cell      =            8
     number of atomic types    =            2
     number of electrons       =        72.00
     number of Kohn-Sham states=           36
     kinetic-energy cutoff     =      50.0000  Ry
     charge density cutoff     =     400.0000  Ry
     scf convergence threshold =      1.0E-08
     mixing beta               =       0.3000
     number of iterations used =            8  plain     mixing
     Exchange-correlation= PBE
                           (   1   4   3   4   0   0   0)

     celldm(1)=   5.931700  celldm(2)=   0.000000  celldm(3)=   0.000000
     celldm(4)=   0.000000  celldm(5)=   0.000000  celldm(6)=   0.000000

     crystal axes: (cart. coord. in units of alat)
               a(1) = (   1.000000   0.000000   0.000000 )  
               a(2) = (  -1.000000   1.732051   0.000000 )  
               a(3) = (   0.000000   0.000000   1.485210 )  

     reciprocal axes: (cart. coord. in units 2 pi/alat)
               b(1) = (  1.000000  0.577350 -0.000000 )  
               b(2) = (  0.000000  0.577350  0.000000 )  
               b(3) = (  0.000000 -0.000000  0.673306 )  


     PseudoPot. # 1 for Zn read from file:
     /home/jvc/QEspresso7.2/ZnO_database/pseudos/Zn.upf
     MD5 check sum: 7f56cabf9682ed8c977c2f7d0c5985c5
     Pseudo is Ultrasoft + core correction, Zval = 12.0
     Generated using &quot;atomic&quot; code by A. Dal Corso  v.6.2.2
     Using radial grid of 1201 points,  6 beta functions with: 
                l(1) =   0
                l(2) =   0
                l(3) =   1
                l(4) =   1
                l(5) =   2
                l(6) =   2
     Q(r) pseudized with 0 coefficients 


     PseudoPot. # 2 for O  read from file:
     /home/jvc/QEspresso7.2/ZnO_database/pseudos/O.upf
     MD5 check sum: 91400c9766925bcf19f520983a725ff0
     Pseudo is Ultrasoft + core correction, Zval =  6.0
     Generated using &quot;atomic&quot; code by A. Dal Corso  v.6.3MaX
     Using radial grid of 1095 points,  4 beta functions with: 
                l(1) =   0
                l(2) =   0
                l(3) =   1
                l(4) =   1
     Q(r) pseudized with 0 coefficients 


     atomic species   valence    mass     pseudopotential
        Zn            12.00    65.38000     Zn( 1.00)
        O              6.00    15.99900     O ( 1.00)

      2 Sym. Ops. (no inversion) found


                                    s                        frac. trans.

      isym =  1     identity                                     

 cryst.   s( 1) = (     1          0          0      )
                  (     0          1          0      )
                  (     0          0          1      )

 cart.    s( 1) = (  1.0000000  0.0000000  0.0000000 )
                  (  0.0000000  1.0000000  0.0000000 )
                  (  0.0000000  0.0000000  1.0000000 )


      isym =  2     inv. 180 deg rotation - cart. axis [1,0,0]   

 cryst.   s( 2) = (    -1          0          0      )
                  (     2          1          0      )
                  (     0          0          1      )

 cart.    s( 2) = ( -1.0000000  0.0000000  0.0000000 )
                  (  0.0000000  1.0000000  0.0000000 )
                  (  0.0000000  0.0000000  1.0000000 )


   Cartesian axes

     site n.     atom                  positions (alat units)
         1           Zn  tau(   1) = (   0.0000000   0.0000000   0.0000000  )
         2           O   tau(   2) = (   0.0000000   0.5773503   0.1468672  )
         3           Zn  tau(   3) = (   0.0000000   0.5773503   0.7426048  )
         4           O   tau(   4) = (   0.0000000   0.0000000   0.8894721  )
         5           Zn  tau(   5) = (  -0.5000000   0.8660254   0.0000000  )
         6           O   tau(   6) = (  -0.5000000   1.4433757   0.1468672  )
         7           Zn  tau(   7) = (  -0.5000000   1.4433757   0.7426048  )
         8           O   tau(   8) = (  -0.5000000   0.8660254   0.8894721  )

   Crystallographic axes

     site n.     atom                  positions (cryst. coord.)
         1           Zn  tau(   1) = (  0.0000000  0.0000000  0.0000000  )
         2           O   tau(   2) = (  0.3333333  0.3333333  0.0988865  )
         3           Zn  tau(   3) = (  0.3333333  0.3333333  0.5000000  )
         4           O   tau(   4) = (  0.0000000  0.0000000  0.5988865  )
         5           Zn  tau(   5) = (  0.0000000  0.5000000  0.0000000  )
         6           O   tau(   6) = (  0.3333333  0.8333333  0.0988865  )
         7           Zn  tau(   7) = (  0.3333333  0.8333333  0.5000000  )
         8           O   tau(   8) = (  0.0000000  0.5000000  0.5988865  )

     number of k points=    80
                       cart. coord. in units 2pi/alat
        k(    1) = (   0.0000000   0.0000000   0.0000000), wk =   0.0092593
        k(    2) = (   0.0000000   0.0000000   0.1122176), wk =   0.0185185
        k(    3) = (   0.0000000   0.0000000   0.2244352), wk =   0.0185185
        k(    4) = (   0.0000000   0.0000000  -0.3366528), wk =   0.0092593
        k(    5) = (   0.0000000   0.0962250   0.0000000), wk =   0.0185185
        k(    6) = (   0.0000000   0.0962250   0.1122176), wk =   0.0185185
        k(    7) = (   0.0000000   0.0962250   0.2244352), wk =   0.0185185
        k(    8) = (   0.0000000   0.0962250  -0.3366528), wk =   0.0185185
        k(    9) = (   0.0000000   0.1924501   0.0000000), wk =   0.0185185
        k(   10) = (   0.0000000   0.1924501   0.1122176), wk =   0.0185185
        k(   11) = (   0.0000000   0.1924501   0.2244352), wk =   0.0185185
        k(   12) = (   0.0000000   0.1924501  -0.3366528), wk =   0.0185185
        k(   13) = (   0.0000000  -0.2886751   0.0000000), wk =   0.0092593
        k(   14) = (   0.0000000  -0.2886751   0.1122176), wk =   0.0185185
        k(   15) = (   0.0000000  -0.2886751   0.2244352), wk =   0.0185185
        k(   16) = (   0.0000000  -0.2886751  -0.3366528), wk =   0.0092593
        k(   17) = (   0.1666667   0.0962250   0.0000000), wk =   0.0370370
        k(   18) = (   0.1666667   0.0962250   0.1122176), wk =   0.0370370
        k(   19) = (   0.1666667   0.0962250   0.2244352), wk =   0.0370370
        k(   20) = (   0.1666667   0.0962250  -0.3366528), wk =   0.0370370
        k(   21) = (   0.1666667   0.1924501   0.0000000), wk =   0.0370370
        k(   22) = (   0.1666667   0.1924501   0.1122176), wk =   0.0370370
        k(   23) = (   0.1666667   0.1924501   0.2244352), wk =   0.0370370
        k(   24) = (   0.1666667   0.1924501  -0.3366528), wk =   0.0370370
        k(   25) = (   0.1666667   0.2886751   0.0000000), wk =   0.0185185
        k(   26) = (   0.1666667   0.2886751   0.1122176), wk =   0.0370370
        k(   27) = (   0.1666667   0.2886751   0.2244352), wk =   0.0370370
        k(   28) = (   0.1666667   0.2886751  -0.3366528), wk =   0.0185185
        k(   29) = (   0.1666667   0.0000000   0.0000000), wk =   0.0185185
        k(   30) = (   0.1666667   0.0000000   0.1122176), wk =   0.0370370
        k(   31) = (   0.1666667   0.0000000   0.2244352), wk =   0.0370370
        k(   32) = (   0.1666667   0.0000000  -0.3366528), wk =   0.0185185
        k(   33) = (   0.3333333   0.1924501   0.0000000), wk =   0.0370370
        k(   34) = (   0.3333333   0.1924501   0.1122176), wk =   0.0370370
        k(   35) = (   0.3333333   0.1924501   0.2244352), wk =   0.0370370
        k(   36) = (   0.3333333   0.1924501  -0.3366528), wk =   0.0370370
        k(   37) = (   0.3333333   0.2886751   0.0000000), wk =   0.0185185
        k(   38) = (   0.3333333   0.2886751   0.1122176), wk =   0.0370370
        k(   39) = (   0.3333333   0.2886751   0.2244352), wk =   0.0370370
        k(   40) = (   0.3333333   0.2886751  -0.3366528), wk =   0.0185185
        k(   41) = (   0.3333333  -0.0962250   0.0000000), wk =   0.0370370
        k(   42) = (   0.3333333  -0.0962250   0.1122176), wk =   0.0370370
        k(   43) = (   0.3333333  -0.0962250   0.2244352), wk =   0.0370370
        k(   44) = (   0.3333333  -0.0962250  -0.3366528), wk =   0.0370370
        k(   45) = (   0.3333333  -0.0000000   0.0000000), wk =   0.0185185
        k(   46) = (   0.3333333  -0.0000000   0.1122176), wk =   0.0370370
        k(   47) = (   0.3333333  -0.0000000   0.2244352), wk =   0.0370370
        k(   48) = (   0.3333333  -0.0000000  -0.3366528), wk =   0.0185185
        k(   49) = (  -0.5000000  -0.2886751   0.0000000), wk =   0.0092593
        k(   50) = (  -0.5000000  -0.2886751   0.1122176), wk =   0.0185185
        k(   51) = (  -0.5000000  -0.2886751   0.2244352), wk =   0.0185185
        k(   52) = (  -0.5000000  -0.2886751  -0.3366528), wk =   0.0092593
        k(   53) = (  -0.5000000  -0.1924501   0.0000000), wk =   0.0185185
        k(   54) = (  -0.5000000  -0.1924501   0.1122176), wk =   0.0185185
        k(   55) = (  -0.5000000  -0.1924501   0.2244352), wk =   0.0185185
        k(   56) = (  -0.5000000  -0.1924501  -0.3366528), wk =   0.0185185
        k(   57) = (  -0.5000000  -0.0962250   0.0000000), wk =   0.0185185
        k(   58) = (  -0.5000000  -0.0962250   0.1122176), wk =   0.0185185
        k(   59) = (  -0.5000000  -0.0962250   0.2244352), wk =   0.0185185
        k(   60) = (  -0.5000000  -0.0962250  -0.3366528), wk =   0.0185185
        k(   61) = (  -0.5000000  -0.5773503   0.0000000), wk =   0.0092593
        k(   62) = (  -0.5000000  -0.5773503   0.1122176), wk =   0.0185185
        k(   63) = (  -0.5000000  -0.5773503   0.2244352), wk =   0.0185185
        k(   64) = (  -0.5000000  -0.5773503  -0.3366528), wk =   0.0092593
        k(   65) = (   0.0000000   0.0962250  -0.1122176), wk =   0.0185185
        k(   66) = (   0.0000000   0.0962250  -0.2244352), wk =   0.0185185
        k(   67) = (   0.0000000   0.1924501  -0.1122176), wk =   0.0185185
        k(   68) = (   0.0000000   0.1924501  -0.2244352), wk =   0.0185185
        k(   69) = (  -0.1666667   0.0962250  -0.1122176), wk =   0.0370370
        k(   70) = (  -0.1666667   0.0962250  -0.2244352), wk =   0.0370370
        k(   71) = (  -0.1666667   0.1924501  -0.1122176), wk =   0.0370370
        k(   72) = (  -0.1666667   0.1924501  -0.2244352), wk =   0.0370370
        k(   73) = (  -0.3333333   0.1924501  -0.1122176), wk =   0.0370370
        k(   74) = (  -0.3333333   0.1924501  -0.2244352), wk =   0.0370370
        k(   75) = (  -0.3333333  -0.0962250  -0.1122176), wk =   0.0370370
        k(   76) = (  -0.3333333  -0.0962250  -0.2244352), wk =   0.0370370
        k(   77) = (   0.5000000  -0.1924501  -0.1122176), wk =   0.0185185
        k(   78) = (   0.5000000  -0.1924501  -0.2244352), wk =   0.0185185
        k(   79) = (   0.5000000  -0.0962250  -0.1122176), wk =   0.0185185
        k(   80) = (   0.5000000  -0.0962250  -0.2244352), wk =   0.0185185

                       cryst. coord.
        k(    1) = (   0.0000000   0.0000000   0.0000000), wk =   0.0092593
        k(    2) = (   0.0000000   0.0000000   0.1666667), wk =   0.0185185
        k(    3) = (   0.0000000   0.0000000   0.3333333), wk =   0.0185185
        k(    4) = (   0.0000000   0.0000000  -0.5000000), wk =   0.0092593
        k(    5) = (   0.0000000   0.1666667   0.0000000), wk =   0.0185185
        k(    6) = (   0.0000000   0.1666667   0.1666667), wk =   0.0185185
        k(    7) = (   0.0000000   0.1666667   0.3333333), wk =   0.0185185
        k(    8) = (   0.0000000   0.1666667  -0.5000000), wk =   0.0185185
        k(    9) = (   0.0000000   0.3333333   0.0000000), wk =   0.0185185
        k(   10) = (   0.0000000   0.3333333   0.1666667), wk =   0.0185185
        k(   11) = (   0.0000000   0.3333333   0.3333333), wk =   0.0185185
        k(   12) = (   0.0000000   0.3333333  -0.5000000), wk =   0.0185185
        k(   13) = (   0.0000000  -0.5000000   0.0000000), wk =   0.0092593
        k(   14) = (   0.0000000  -0.5000000   0.1666667), wk =   0.0185185
        k(   15) = (   0.0000000  -0.5000000   0.3333333), wk =   0.0185185
        k(   16) = (   0.0000000  -0.5000000  -0.5000000), wk =   0.0092593
        k(   17) = (   0.1666667  -0.0000000   0.0000000), wk =   0.0370370
        k(   18) = (   0.1666667  -0.0000000   0.1666667), wk =   0.0370370
        k(   19) = (   0.1666667  -0.0000000   0.3333333), wk =   0.0370370
        k(   20) = (   0.1666667  -0.0000000  -0.5000000), wk =   0.0370370
        k(   21) = (   0.1666667   0.1666667   0.0000000), wk =   0.0370370
        k(   22) = (   0.1666667   0.1666667   0.1666667), wk =   0.0370370
        k(   23) = (   0.1666667   0.1666667   0.3333333), wk =   0.0370370
        k(   24) = (   0.1666667   0.1666667  -0.5000000), wk =   0.0370370
        k(   25) = (   0.1666667   0.3333333   0.0000000), wk =   0.0185185
        k(   26) = (   0.1666667   0.3333333   0.1666667), wk =   0.0370370
        k(   27) = (   0.1666667   0.3333333   0.3333333), wk =   0.0370370
        k(   28) = (   0.1666667   0.3333333  -0.5000000), wk =   0.0185185
        k(   29) = (   0.1666667  -0.1666667   0.0000000), wk =   0.0185185
        k(   30) = (   0.1666667  -0.1666667   0.1666667), wk =   0.0370370
        k(   31) = (   0.1666667  -0.1666667   0.3333333), wk =   0.0370370
        k(   32) = (   0.1666667  -0.1666667  -0.5000000), wk =   0.0185185
        k(   33) = (   0.3333333  -0.0000000   0.0000000), wk =   0.0370370
        k(   34) = (   0.3333333  -0.0000000   0.1666667), wk =   0.0370370
        k(   35) = (   0.3333333  -0.0000000   0.3333333), wk =   0.0370370
        k(   36) = (   0.3333333  -0.0000000  -0.5000000), wk =   0.0370370
        k(   37) = (   0.3333333   0.1666667   0.0000000), wk =   0.0185185
        k(   38) = (   0.3333333   0.1666667   0.1666667), wk =   0.0370370
        k(   39) = (   0.3333333   0.1666667   0.3333333), wk =   0.0370370
        k(   40) = (   0.3333333   0.1666667  -0.5000000), wk =   0.0185185
        k(   41) = (   0.3333333  -0.5000000   0.0000000), wk =   0.0370370
        k(   42) = (   0.3333333  -0.5000000   0.1666667), wk =   0.0370370
        k(   43) = (   0.3333333  -0.5000000   0.3333333), wk =   0.0370370
        k(   44) = (   0.3333333  -0.5000000  -0.5000000), wk =   0.0370370
        k(   45) = (   0.3333333  -0.3333333   0.0000000), wk =   0.0185185
        k(   46) = (   0.3333333  -0.3333333   0.1666667), wk =   0.0370370
        k(   47) = (   0.3333333  -0.3333333   0.3333333), wk =   0.0370370
        k(   48) = (   0.3333333  -0.3333333  -0.5000000), wk =   0.0185185
        k(   49) = (  -0.5000000   0.0000000   0.0000000), wk =   0.0092593
        k(   50) = (  -0.5000000   0.0000000   0.1666667), wk =   0.0185185
        k(   51) = (  -0.5000000   0.0000000   0.3333333), wk =   0.0185185
        k(   52) = (  -0.5000000   0.0000000  -0.5000000), wk =   0.0092593
        k(   53) = (  -0.5000000   0.1666667   0.0000000), wk =   0.0185185
        k(   54) = (  -0.5000000   0.1666667   0.1666667), wk =   0.0185185
        k(   55) = (  -0.5000000   0.1666667   0.3333333), wk =   0.0185185
        k(   56) = (  -0.5000000   0.1666667  -0.5000000), wk =   0.0185185
        k(   57) = (  -0.5000000   0.3333333   0.0000000), wk =   0.0185185
        k(   58) = (  -0.5000000   0.3333333   0.1666667), wk =   0.0185185
        k(   59) = (  -0.5000000   0.3333333   0.3333333), wk =   0.0185185
        k(   60) = (  -0.5000000   0.3333333  -0.5000000), wk =   0.0185185
        k(   61) = (  -0.5000000  -0.5000000   0.0000000), wk =   0.0092593
        k(   62) = (  -0.5000000  -0.5000000   0.1666667), wk =   0.0185185
        k(   63) = (  -0.5000000  -0.5000000   0.3333333), wk =   0.0185185
        k(   64) = (  -0.5000000  -0.5000000  -0.5000000), wk =   0.0092593
        k(   65) = (   0.0000000   0.1666667  -0.1666667), wk =   0.0185185
        k(   66) = (   0.0000000   0.1666667  -0.3333333), wk =   0.0185185
        k(   67) = (   0.0000000   0.3333333  -0.1666667), wk =   0.0185185
        k(   68) = (   0.0000000   0.3333333  -0.3333333), wk =   0.0185185
        k(   69) = (  -0.1666667   0.3333333  -0.1666667), wk =   0.0370370
        k(   70) = (  -0.1666667   0.3333333  -0.3333333), wk =   0.0370370
        k(   71) = (  -0.1666667   0.5000000  -0.1666667), wk =   0.0370370
        k(   72) = (  -0.1666667   0.5000000  -0.3333333), wk =   0.0370370
        k(   73) = (  -0.3333333   0.6666667  -0.1666667), wk =   0.0370370
        k(   74) = (  -0.3333333   0.6666667  -0.3333333), wk =   0.0370370
        k(   75) = (  -0.3333333   0.1666667  -0.1666667), wk =   0.0370370
        k(   76) = (  -0.3333333   0.1666667  -0.3333333), wk =   0.0370370
        k(   77) = (   0.5000000  -0.8333333  -0.1666667), wk =   0.0185185
        k(   78) = (   0.5000000  -0.8333333  -0.3333333), wk =   0.0185185
        k(   79) = (   0.5000000  -0.6666667  -0.1666667), wk =   0.0185185
        k(   80) = (   0.5000000  -0.6666667  -0.3333333), wk =   0.0185185

     Dense  grid:    72457 G-vectors     FFT dimensions: (  40,  75,  60)

     Smooth grid:    25675 G-vectors     FFT dimensions: (  27,  54,  40)

     Dynamical RAM for                 wfc:       0.44 MB

     Dynamical RAM for     wfc (w. buffer):      18.04 MB

     Dynamical RAM for           str. fact:       0.55 MB

     Dynamical RAM for           local pot:       0.00 MB

     Dynamical RAM for          nlocal pot:       1.27 MB

     Dynamical RAM for                qrad:       3.21 MB

     Dynamical RAM for          rho,v,vnew:       1.86 MB

     Dynamical RAM for               rhoin:       0.62 MB

     Dynamical RAM for            rho*nmix:       4.42 MB

     Dynamical RAM for           G-vectors:       1.09 MB

     Dynamical RAM for          h,s,v(r/c):       0.24 MB

     Dynamical RAM for          <psi|beta>:       0.06 MB

     Dynamical RAM for                 psi:       0.88 MB

     Dynamical RAM for                hpsi:       0.88 MB

     Dynamical RAM for                spsi:       0.88 MB

     Dynamical RAM for      wfcinit/wfcrot:       1.33 MB

     Dynamical RAM for           addusdens:      26.40 MB

     Dynamical RAM for          addusforce:      27.24 MB

     Estimated static dynamical RAM per process >      29.18 MB

     Estimated max dynamical RAM per process >      60.85 MB

     Estimated total dynamical RAM >     469.10 MB

     Check: negative core charge=   -0.000002

     Initial potential from superposition of free atoms

     starting charge      71.9851, renormalised to      72.0000
     Starting wfcs are   52 randomized atomic wfcs

     total cpu time spent up to now is        6.7 secs

     Self-consistent Calculation

     iteration #  1     ecut=    50.00 Ry     beta= 0.30
     Davidson diagonalization with overlap

---- Real-time Memory Report at c_bands before calling an iterative solver
            70 MiB given to the printing process from OS
             0 MiB allocation reported by mallinfo(arena+hblkhd)
         56100 MiB available memory on the node where the printing process lives
------------------
     ethr =  1.00E-02,  avg # of iterations =  2.0

     total cpu time spent up to now is       15.3 secs

     total energy              =    -722.83048771 Ry
     estimated scf accuracy    <       1.34917529 Ry

     iteration #  2     ecut=    50.00 Ry     beta= 0.30
     Davidson diagonalization with overlap

---- Real-time Memory Report at c_bands before calling an iterative solver
            95 MiB given to the printing process from OS
             0 MiB allocation reported by mallinfo(arena+hblkhd)
         55922 MiB available memory on the node where the printing process lives
------------------
     ethr =  1.87E-03,  avg # of iterations =  2.0

     total cpu time spent up to now is       25.5 secs

     total energy              =    -722.94460965 Ry
     estimated scf accuracy    <       0.24442956 Ry

     iteration #  3     ecut=    50.00 Ry     beta= 0.30
     Davidson diagonalization with overlap

---- Real-time Memory Report at c_bands before calling an iterative solver
            95 MiB given to the printing process from OS
             0 MiB allocation reported by mallinfo(arena+hblkhd)
         55925 MiB available memory on the node where the printing process lives
------------------
     ethr =  3.39E-04,  avg # of iterations =  6.3

     total cpu time spent up to now is       42.9 secs

     total energy              =    -723.07012192 Ry
     estimated scf accuracy    <       0.15544868 Ry

     iteration #  4     ecut=    50.00 Ry     beta= 0.30
     Davidson diagonalization with overlap

---- Real-time Memory Report at c_bands before calling an iterative solver
            95 MiB given to the printing process from OS
             0 MiB allocation reported by mallinfo(arena+hblkhd)
         55933 MiB available memory on the node where the printing process lives
------------------
     ethr =  2.16E-04,  avg # of iterations =  2.1

     total cpu time spent up to now is       52.3 secs

     total energy              =    -723.12446377 Ry
     estimated scf accuracy    <       0.01960708 Ry

     iteration #  5     ecut=    50.00 Ry     beta= 0.30
     Davidson diagonalization with overlap

---- Real-time Memory Report at c_bands before calling an iterative solver
            95 MiB given to the printing process from OS
             0 MiB allocation reported by mallinfo(arena+hblkhd)
         55933 MiB available memory on the node where the printing process lives
------------------
     ethr =  2.72E-05,  avg # of iterations = 11.2

     total cpu time spent up to now is       81.8 secs

     total energy              =    -723.30779511 Ry
     estimated scf accuracy    <       1.09285683 Ry

     iteration #  6     ecut=    50.00 Ry     beta= 0.30
     Davidson diagonalization with overlap

---- Real-time Memory Report at c_bands before calling an iterative solver
            95 MiB given to the printing process from OS
             0 MiB allocation reported by mallinfo(arena+hblkhd)
         55942 MiB available memory on the node where the printing process lives
------------------
     ethr =  2.72E-05,  avg # of iterations =  4.4

     total cpu time spent up to now is       94.7 secs

     total energy              =    -723.39014575 Ry
     estimated scf accuracy    <       0.77714062 Ry

     iteration #  7     ecut=    50.00 Ry     beta= 0.30
     Davidson diagonalization with overlap

---- Real-time Memory Report at c_bands before calling an iterative solver
            95 MiB given to the printing process from OS
             0 MiB allocation reported by mallinfo(arena+hblkhd)
         55942 MiB available memory on the node where the printing process lives
------------------
     ethr =  2.72E-05,  avg # of iterations =  2.0

     total cpu time spent up to now is      103.2 secs

     total energy              =    -723.25634230 Ry
     estimated scf accuracy    <       0.91551849 Ry

     iteration #  8     ecut=    50.00 Ry     beta= 0.30
     Davidson diagonalization with overlap

---- Real-time Memory Report at c_bands before calling an iterative solver
            95 MiB given to the printing process from OS
             0 MiB allocation reported by mallinfo(arena+hblkhd)
         55928 MiB available memory on the node where the printing process lives
------------------
     ethr =  2.72E-05,  avg # of iterations =  5.0

     total cpu time spent up to now is      117.0 secs

     total energy              =    -722.90656954 Ry
     estimated scf accuracy    <       0.57577461 Ry

     iteration #  9     ecut=    50.00 Ry     beta= 0.30
     Davidson diagonalization with overlap

---- Real-time Memory Report at c_bands before calling an iterative solver
            96 MiB given to the printing process from OS
             0 MiB allocation reported by mallinfo(arena+hblkhd)
         55935 MiB available memory on the node where the printing process lives
------------------
     ethr =  2.72E-05,  avg # of iterations = 11.6

     total cpu time spent up to now is      146.8 secs

     total energy              =    -723.14877161 Ry
     estimated scf accuracy    <       0.13913693 Ry

     iteration # 10     ecut=    50.00 Ry     beta= 0.30
     Davidson diagonalization with overlap

---- Real-time Memory Report at c_bands before calling an iterative solver
            96 MiB given to the printing process from OS
             0 MiB allocation reported by mallinfo(arena+hblkhd)
         55934 MiB available memory on the node where the printing process lives
------------------
     ethr =  2.72E-05,  avg # of iterations =  1.3

     total cpu time spent up to now is      154.7 secs

     total energy              =    -723.16198808 Ry
     estimated scf accuracy    <       0.14030623 Ry

     iteration # 11     ecut=    50.00 Ry     beta= 0.30
     Davidson diagonalization with overlap

---- Real-time Memory Report at c_bands before calling an iterative solver
            96 MiB given to the printing process from OS
             0 MiB allocation reported by mallinfo(arena+hblkhd)
         55934 MiB available memory on the node where the printing process lives
------------------
     ethr =  2.72E-05,  avg # of iterations =  1.3

     total cpu time spent up to now is      162.7 secs

     total energy              =    -723.15821036 Ry
     estimated scf accuracy    <       0.17112693 Ry

     iteration # 12     ecut=    50.00 Ry     beta= 0.30
     Davidson diagonalization with overlap

---- Real-time Memory Report at c_bands before calling an iterative solver
            96 MiB given to the printing process from OS
             0 MiB allocation reported by mallinfo(arena+hblkhd)
         55934 MiB available memory on the node where the printing process lives
------------------
     ethr =  2.72E-05,  avg # of iterations =  1.0

     total cpu time spent up to now is      170.3 secs

     total energy              =    -723.07610429 Ry
     estimated scf accuracy    <       0.16443350 Ry

     iteration # 13     ecut=    50.00 Ry     beta= 0.30
     Davidson diagonalization with overlap

---- Real-time Memory Report at c_bands before calling an iterative solver
            96 MiB given to the printing process from OS
             0 MiB allocation reported by mallinfo(arena+hblkhd)
         55934 MiB available memory on the node where the printing process lives
------------------
     ethr =  2.72E-05,  avg # of iterations =  8.4

     total cpu time spent up to now is      191.6 secs

     total energy              =    -723.11216177 Ry
     estimated scf accuracy    <       0.00044413 Ry

     iteration # 14     ecut=    50.00 Ry     beta= 0.30
     Davidson diagonalization with overlap

---- Real-time Memory Report at c_bands before calling an iterative solver
            96 MiB given to the printing process from OS
             0 MiB allocation reported by mallinfo(arena+hblkhd)
         55882 MiB available memory on the node where the printing process lives
------------------
     ethr =  6.17E-07,  avg # of iterations = 12.3

     total cpu time spent up to now is      222.5 secs

     total energy              =    -723.11493379 Ry
     estimated scf accuracy    <       0.03039216 Ry

     iteration # 15     ecut=    50.00 Ry     beta= 0.30
     Davidson diagonalization with overlap

---- Real-time Memory Report at c_bands before calling an iterative solver
            96 MiB given to the printing process from OS
             0 MiB allocation reported by mallinfo(arena+hblkhd)
         55888 MiB available memory on the node where the printing process lives
------------------
     ethr =  6.17E-07,  avg # of iterations =  4.8

     total cpu time spent up to now is      235.5 secs

     total energy              =    -723.10417125 Ry
     estimated scf accuracy    <       0.02236060 Ry

     iteration # 16     ecut=    50.00 Ry     beta= 0.30
     Davidson diagonalization with overlap

---- Real-time Memory Report at c_bands before calling an iterative solver
            96 MiB given to the printing process from OS
             0 MiB allocation reported by mallinfo(arena+hblkhd)
         55890 MiB available memory on the node where the printing process lives
------------------
     ethr =  6.17E-07,  avg # of iterations = 11.1

     total cpu time spent up to now is      265.4 secs

     total energy              =    -723.10919940 Ry
     estimated scf accuracy    <       0.00020388 Ry

     iteration # 17     ecut=    50.00 Ry     beta= 0.30
     Davidson diagonalization with overlap

---- Real-time Memory Report at c_bands before calling an iterative solver
            96 MiB given to the printing process from OS
             0 MiB allocation reported by mallinfo(arena+hblkhd)
         55892 MiB available memory on the node where the printing process lives
------------------
     ethr =  2.83E-07,  avg # of iterations =  3.2

     total cpu time spent up to now is      275.6 secs

     total energy              =    -723.10924852 Ry
     estimated scf accuracy    <       0.00004063 Ry

     iteration # 18     ecut=    50.00 Ry     beta= 0.30
     Davidson diagonalization with overlap

---- Real-time Memory Report at c_bands before calling an iterative solver
            96 MiB given to the printing process from OS
             0 MiB allocation reported by mallinfo(arena+hblkhd)
         55884 MiB available memory on the node where the printing process lives
------------------
     ethr =  5.64E-08,  avg # of iterations =  2.8

     total cpu time spent up to now is      285.4 secs

     total energy              =    -723.10922634 Ry
     estimated scf accuracy    <       0.00005823 Ry

     iteration # 19     ecut=    50.00 Ry     beta= 0.30
     Davidson diagonalization with overlap

---- Real-time Memory Report at c_bands before calling an iterative solver
            96 MiB given to the printing process from OS
             0 MiB allocation reported by mallinfo(arena+hblkhd)
         56028 MiB available memory on the node where the printing process lives
------------------
     ethr =  5.64E-08,  avg # of iterations =  4.5

     total cpu time spent up to now is      297.9 secs

     total energy              =    -723.10923878 Ry
     estimated scf accuracy    <       0.00000054 Ry

     iteration # 20     ecut=    50.00 Ry     beta= 0.30
     Davidson diagonalization with overlap

---- Real-time Memory Report at c_bands before calling an iterative solver
            96 MiB given to the printing process from OS
             0 MiB allocation reported by mallinfo(arena+hblkhd)
         55907 MiB available memory on the node where the printing process lives
------------------
     ethr =  7.46E-10,  avg # of iterations =  9.7

     total cpu time spent up to now is      323.8 secs

     total energy              =    -723.10924062 Ry
     estimated scf accuracy    <       0.00000348 Ry

     iteration # 21     ecut=    50.00 Ry     beta= 0.30
     Davidson diagonalization with overlap

---- Real-time Memory Report at c_bands before calling an iterative solver
            96 MiB given to the printing process from OS
             0 MiB allocation reported by mallinfo(arena+hblkhd)
         55896 MiB available memory on the node where the printing process lives
------------------
     ethr =  7.46E-10,  avg # of iterations =  5.6

     total cpu time spent up to now is      339.6 secs

     total energy              =    -723.10924061 Ry
     estimated scf accuracy    <       0.00000052 Ry

     iteration # 22     ecut=    50.00 Ry     beta= 0.30
     Davidson diagonalization with overlap

---- Real-time Memory Report at c_bands before calling an iterative solver
            96 MiB given to the printing process from OS
             0 MiB allocation reported by mallinfo(arena+hblkhd)
         55895 MiB available memory on the node where the printing process lives
------------------
     ethr =  7.28E-10,  avg # of iterations =  5.5

     total cpu time spent up to now is      355.0 secs

     total energy              =    -723.10924083 Ry
     estimated scf accuracy    <       0.00000006 Ry

     iteration # 23     ecut=    50.00 Ry     beta= 0.30
     Davidson diagonalization with overlap

---- Real-time Memory Report at c_bands before calling an iterative solver
            96 MiB given to the printing process from OS
             0 MiB allocation reported by mallinfo(arena+hblkhd)
         55896 MiB available memory on the node where the printing process lives
------------------
     ethr =  8.67E-11,  avg # of iterations =  4.1

     total cpu time spent up to now is      366.5 secs

     total energy              =    -723.10924083 Ry
     estimated scf accuracy    <       0.00000003 Ry

     iteration # 24     ecut=    50.00 Ry     beta= 0.30
     Davidson diagonalization with overlap

---- Real-time Memory Report at c_bands before calling an iterative solver
            96 MiB given to the printing process from OS
             0 MiB allocation reported by mallinfo(arena+hblkhd)
         55897 MiB available memory on the node where the printing process lives
------------------
     ethr =  3.64E-11,  avg # of iterations =  6.5

     total cpu time spent up to now is      384.1 secs

     total energy              =    -723.10924084 Ry
     estimated scf accuracy    <       0.00000002 Ry

     iteration # 25     ecut=    50.00 Ry     beta= 0.30
     Davidson diagonalization with overlap

---- Real-time Memory Report at c_bands before calling an iterative solver
            96 MiB given to the printing process from OS
             0 MiB allocation reported by mallinfo(arena+hblkhd)
         55898 MiB available memory on the node where the printing process lives
------------------
     ethr =  3.02E-11,  avg # of iterations =  2.0

     total cpu time spent up to now is      392.7 secs

     End of self-consistent calculation

          k = 0.0000 0.0000 0.0000 (  3201 PWs)   bands (ev):

    -9.4385  -8.4903  -8.2371  -8.1150   3.0894   3.1504   3.3849   3.4743
     3.4745   3.6323   3.6324   3.9616   3.9683   4.1068   4.4640   4.8241
     5.2509   5.2509   5.3881   5.4623   5.6168   5.6420   5.6421   5.7186
     5.8984   6.0909   6.4166   7.0224   7.1804   8.7984   8.9653   9.2129
     9.2130   9.9172  10.2273  10.2275

     occupation numbers 
     1.0000   1.0000   1.0000   1.0000   1.0000   1.0000   1.0000   1.0000
     1.0000   1.0000   1.0000   1.0000   1.0000   1.0000   1.0000   1.0000
     1.0000   1.0000   1.0000   1.0000   1.0000   1.0000   1.0000   1.0000
     1.0000   1.0000   1.0000   1.0000   1.0000   1.0000   1.0000   1.0000
     1.0000   1.0000   1.0000   1.0000

          k = 0.0000 0.0000 0.1122 (  3206 PWs)   bands (ev):

    -9.3622  -8.4576  -8.3214  -8.1314   2.9678   3.0449   3.2793   3.4708
     3.4710   3.6073   3.6075   3.8336   3.9886   4.0485   4.4138   4.6099
     5.2920   5.2921   5.4691   5.4725   5.6319   5.6319   5.6803   5.7056
     5.9542   6.3168   6.4432   7.3370   7.4529   8.8643   8.9624   9.2829
     9.2830   9.4824  10.1633  10.1635

     occupation numbers 
     1.0000   1.0000   1.0000   1.0000   1.0000   1.0000   1.0000   1.0000
     1.0000   1.0000   1.0000   1.0000   1.0000   1.0000   1.0000   1.0000
     1.0000   1.0000   1.0000   1.0000   1.0000   1.0000   1.0000   1.0000
     1.0000   1.0000   1.0000   1.0000   1.0000   1.0000   1.0000   1.0000
     1.0000   1.0000   1.0000   1.0000

          k = 0.0000 0.0000 0.2244 (  3238 PWs)   bands (ev):

    -9.1507  -8.5492  -8.3731  -8.1835   2.7459   2.8171   3.1732   3.4723
     3.4724   3.5391   3.5505   3.5507   4.0260   4.0519   4.2925   4.3096
     5.3928   5.3929   5.5018   5.5905   5.5906   5.5916   5.6090   5.7285
     6.0873   6.2364   7.2176   7.7163   8.2652   8.5807   8.7970   9.1711
     9.4739   9.4741   9.9844   9.9847

     occupation numbers 
     1.0000   1.0000   1.0000   1.0000   1.0000   1.0000   1.0000   1.0000
     1.0000   1.0000   1.0000   1.0000   1.0000   1.0000   1.0000   1.0000
     1.0000   1.0000   1.0000   1.0000   1.0000   1.0000   1.0000   1.0000
     1.0000   1.0000   1.0000   1.0000   1.0000   1.0000   1.0000   1.0000
     1.0000   1.0000   1.0000   1.0000

          k = 0.0000 0.0000-0.3367 (  3236 PWs)   bands (ev):

    -8.8540  -8.8540  -8.2701  -8.2701   2.6728   2.6728   3.2677   3.2677
     3.4981   3.4981   3.4982   3.4982   4.1135   4.1135   4.1579   4.1579
     5.5063   5.5063   5.5063   5.5063   5.5471   5.5471   5.6807   5.6807
     6.1801   6.1801   8.0491   8.0491   8.1695   8.1695   8.9534   8.9534
     9.7323   9.7323   9.7325   9.7325

     occupation numbers 
     1.0000   1.0000   1.0000   1.0000   1.0000   1.0000   1.0000   1.0000
     1.0000   1.0000   1.0000   1.0000   1.0000   1.0000   1.0000   1.0000
     1.0000   1.0000   1.0000   1.0000   1.0000   1.0000   1.0000   1.0000
     1.0000   1.0000   1.0000   1.0000   1.0000   1.0000   1.0000   1.0000
     1.0000   1.0000   1.0000   1.0000

          k = 0.0000 0.0962 0.0000 (  3211 PWs)   bands (ev):

    -9.3876  -8.5833  -8.2199  -8.0975   3.0043   3.2688   3.3959   3.4430
     3.5097   3.6271   3.6741   3.9433   3.9902   4.0870   4.3824   4.7745
     5.1690   5.2274   5.2441   5.4114   5.6495   5.6816   5.7155   5.7534
     5.9151   6.0842   6.6855   7.0702   7.3458   8.9224   8.9350   9.0630
     9.0842   9.7845   9.8680  10.1536

     occupation numbers 
     1.0000   1.0000   1.0000   1.0000   1.0000   1.0000   1.0000   1.0000
     1.0000   1.0000   1.0000   1.0000   1.0000   1.0000   1.0000   1.0000
     1.0000   1.0000   1.0000   1.0000   1.0000   1.0000   1.0000   1.0000
     1.0000   1.0000   1.0000   1.0000   1.0000   1.0000   1.0000   1.0000
     1.0000   1.0000   1.0000   1.0000

          k = 0.0000 0.0962 0.1122 (  3215 PWs)   bands (ev):

    -9.3130  -8.5442  -8.3011  -8.1222   2.9192   3.1222   3.2800   3.3969
     3.5068   3.6284   3.6486   3.8749   3.9603   4.0233   4.3372   4.5338
     5.2747   5.2853   5.3073   5.4270   5.6377   5.6591   5.6808   5.8307
     6.0048   6.4537   6.6332   7.4078   7.4905   8.9641   9.0091   9.0784
     9.1584   9.3159  10.0191  10.0862

     occupation numbers 
     1.0000   1.0000   1.0000   1.0000   1.0000   1.0000   1.0000   1.0000
     1.0000   1.0000   1.0000   1.0000   1.0000   1.0000   1.0000   1.0000
     1.0000   1.0000   1.0000   1.0000   1.0000   1.0000   1.0000   1.0000
     1.0000   1.0000   1.0000   1.0000   1.0000   1.0000   1.0000   1.0000
     1.0000   1.0000   1.0000   1.0000

          k = 0.0000 0.0962 0.2244 (  3220 PWs)   bands (ev):

    -9.1061  -8.5212  -8.4413  -8.1961   2.7447   2.8461   3.1298   3.3210
     3.5096   3.5908   3.5932   3.6599   3.9885   4.0145   4.2278   4.2421
     5.3875   5.3879   5.4705   5.4940   5.5920   5.6069   5.6083   5.7661
     6.2332   6.5303   7.2346   7.8490   8.1982   8.6866   8.7093   9.2361
     9.2390   9.3605   9.8633   9.8981

     occupation numbers 
     1.0000   1.0000   1.0000   1.0000   1.0000   1.0000   1.0000   1.0000
     1.0000   1.0000   1.0000   1.0000   1.0000   1.0000   1.0000   1.0000
     1.0000   1.0000   1.0000   1.0000   1.0000   1.0000   1.0000   1.0000
     1.0000   1.0000   1.0000   1.0000   1.0000   1.0000   1.0000   1.0000
     1.0000   1.0000   1.0000   1.0000

          k = 0.0000 0.0962-0.3367 (  3210 PWs)   bands (ev):

    -8.8170  -8.8170  -8.3114  -8.3114   2.6879   2.6879   3.1713   3.1713
     3.5369   3.5369   3.5747   3.5747   4.0612   4.0612   4.1077   4.1077
     5.5036   5.5036   5.5126   5.5126   5.5338   5.5338   5.6496   5.6496
     6.4024   6.4024   8.0350   8.0350   8.2860   8.2860   8.9404   8.9404
     9.5520   9.5520   9.6329   9.6329

     occupation numbers 
     1.0000   1.0000   1.0000   1.0000   1.0000   1.0000   1.0000   1.0000
     1.0000   1.0000   1.0000   1.0000   1.0000   1.0000   1.0000   1.0000
     1.0000   1.0000   1.0000   1.0000   1.0000   1.0000   1.0000   1.0000
     1.0000   1.0000   1.0000   1.0000   1.0000   1.0000   1.0000   1.0000
     1.0000   1.0000   1.0000   1.0000

          k = 0.0000 0.1925 0.0000 (  3195 PWs)   bands (ev):

    -9.2435  -8.7922  -8.1756  -8.0922   2.9899   3.2447   3.3847   3.5026
     3.6084   3.6838   3.7928   3.8661   4.0242   4.0666   4.1890   4.4995
     5.0511   5.1673   5.2360   5.3180   5.6677   5.7048   5.7800   5.8144
     6.0790   6.1888   6.8060   7.6456   7.7538   8.2341   8.7359   9.1008
     9.1988   9.3173   9.7223   9.9441

     occupation numbers 
     1.0000   1.0000   1.0000   1.0000   1.0000   1.0000   1.0000   1.0000
     1.0000   1.0000   1.0000   1.0000   1.0000   1.0000   1.0000   1.0000
     1.0000   1.0000   1.0000   1.0000   1.0000   1.0000   1.0000   1.0000
     1.0000   1.0000   1.0000   1.0000   1.0000   1.0000   1.0000   1.0000
     1.0000   1.0000   1.0000   1.0000

          k = 0.0000 0.1925 0.1122 (  3209 PWs)   bands (ev):

    -9.1736  -8.7412  -8.2477  -8.1334   2.9261   3.1918   3.2088   3.3126
     3.6070   3.7099   3.7658   3.8752   3.9576   3.9642   4.1524   4.3185
     5.1929   5.2336   5.2766   5.3448   5.6509   5.6759   5.7268   5.8354
     6.4003   6.4897   7.0042   7.6091   7.8759   8.3230   8.8213   8.8532
     9.2240   9.3290   9.8084   9.8686

     occupation numbers 
     1.0000   1.0000   1.0000   1.0000   1.0000   1.0000   1.0000   1.0000
     1.0000   1.0000   1.0000   1.0000   1.0000   1.0000   1.0000   1.0000
     1.0000   1.0000   1.0000   1.0000   1.0000   1.0000   1.0000   1.0000
     1.0000   1.0000   1.0000   1.0000   1.0000   1.0000   1.0000   1.0000
     1.0000   1.0000   1.0000   1.0000

          k = 0.0000 0.1925 0.2244 (  3213 PWs)   bands (ev):

    -8.9810  -8.6039  -8.4452  -8.2511   2.7867   2.9049   3.0289   3.1324
     3.6137   3.6909   3.7043   3.7882   3.9050   3.9089   4.0660   4.0873
     5.3785   5.3788   5.4093   5.4161   5.5949   5.6033   5.6504   5.7545
     6.6921   7.1123   7.2591   8.1004   8.1909   8.3637   8.7047   8.9631
     9.0521   9.3668   9.6519   9.6578

     occupation numbers 
     1.0000   1.0000   1.0000   1.0000   1.0000   1.0000   1.0000   1.0000
     1.0000   1.0000   1.0000   1.0000   1.0000   1.0000   1.0000   1.0000
     1.0000   1.0000   1.0000   1.0000   1.0000   1.0000   1.0000   1.0000
     1.0000   1.0000   1.0000   1.0000   1.0000   1.0000   1.0000   1.0000
     1.0000   1.0000   1.0000   1.0000

          k = 0.0000 0.1925-0.3367 (  3208 PWs)   bands (ev):

    -8.7144  -8.7144  -8.4227  -8.4227   2.7434   2.7434   3.0061   3.0061
     3.6457   3.6457   3.6960   3.6960   3.9465   3.9465   3.9747   3.9747
     5.4979   5.4979   5.5099   5.5099   5.5317   5.5317   5.6040   5.6040
     6.9249   6.9249   7.9163   7.9163   8.5898   8.5898   8.9173   8.9173
     9.1800   9.1800   9.3600   9.3600

     occupation numbers 
     1.0000   1.0000   1.0000   1.0000   1.0000   1.0000   1.0000   1.0000
     1.0000   1.0000   1.0000   1.0000   1.0000   1.0000   1.0000   1.0000
     1.0000   1.0000   1.0000   1.0000   1.0000   1.0000   1.0000   1.0000
     1.0000   1.0000   1.0000   1.0000   1.0000   1.0000   1.0000   1.0000
     1.0000   1.0000   1.0000   1.0000

          k = 0.0000-0.2887 0.0000 (  3192 PWs)   bands (ev):

    -9.0314  -9.0314  -8.1242  -8.1242   3.0831   3.0831   3.4641   3.4641
     3.7427   3.7427   3.8793   3.8793   3.9730   3.9730   4.2108   4.2108
     5.0940   5.0940   5.2539   5.2539   5.6879   5.6879   5.8429   5.8429
     6.1429   6.1429   7.4094   7.4094   8.2572   8.2572   8.3802   8.3802
     9.4900   9.4900   9.6413   9.6413

     occupation numbers 
     1.0000   1.0000   1.0000   1.0000   1.0000   1.0000   1.0000   1.0000
     1.0000   1.0000   1.0000   1.0000   1.0000   1.0000   1.0000   1.0000
     1.0000   1.0000   1.0000   1.0000   1.0000   1.0000   1.0000   1.0000
     1.0000   1.0000   1.0000   1.0000   1.0000   1.0000   1.0000   1.0000
     1.0000   1.0000   1.0000   1.0000

          k = 0.0000-0.2887 0.1122 (  3200 PWs)   bands (ev):

    -8.9695  -8.9695  -8.1824  -8.1823   3.0294   3.0294   3.2707   3.2707
     3.7449   3.7449   3.8460   3.8460   3.9429   3.9429   4.1001   4.1001
     5.1923   5.1923   5.2901   5.2901   5.6651   5.6651   5.7970   5.7970
     6.5418   6.5418   7.5311   7.5311   8.2244   8.2244   8.3589   8.3589
     9.5563   9.5563   9.5875   9.5875

     occupation numbers 
     1.0000   1.0000   1.0000   1.0000   1.0000   1.0000   1.0000   1.0000
     1.0000   1.0000   1.0000   1.0000   1.0000   1.0000   1.0000   1.0000
     1.0000   1.0000   1.0000   1.0000   1.0000   1.0000   1.0000   1.0000
     1.0000   1.0000   1.0000   1.0000   1.0000   1.0000   1.0000   1.0000
     1.0000   1.0000   1.0000   1.0000

          k = 0.0000-0.2887 0.2244 (  3202 PWs)   bands (ev):

    -8.8005  -8.8005  -8.3443  -8.3443   2.8964   2.8964   2.9912   2.9912
     3.7608   3.7608   3.8033   3.8033   3.8734   3.8734   3.9247   3.9247
     5.3798   5.3798   5.3832   5.3832   5.5985   5.5985   5.7066   5.7066
     7.1460   7.1460   7.7571   7.7571   8.2241   8.2241   8.6290   8.6290
     9.3189   9.3189   9.4986   9.4986

     occupation numbers 
     1.0000   1.0000   1.0000   1.0000   1.0000   1.0000   1.0000   1.0000
     1.0000   1.0000   1.0000   1.0000   1.0000   1.0000   1.0000   1.0000
     1.0000   1.0000   1.0000   1.0000   1.0000   1.0000   1.0000   1.0000
     1.0000   1.0000   1.0000   1.0000   1.0000   1.0000   1.0000   1.0000
     1.0000   1.0000   1.0000   1.0000

          k = 0.0000-0.2887-0.3367 (  3204 PWs)   bands (ev):

    -8.5707  -8.5707  -8.5707  -8.5707   2.8523   2.8523   2.8523   2.8523
     3.8040   3.8040   3.8040   3.8040   3.8202   3.8202   3.8202   3.8202
     5.4972   5.4972   5.4972   5.4972   5.5635   5.5635   5.5635   5.5635
     7.5190   7.5190   7.5190   7.5190   8.9509   8.9509   8.9509   8.9509
     8.9819   8.9819   8.9819   8.9820

     occupation numbers 
     1.0000   1.0000   1.0000   1.0000   1.0000   1.0000   1.0000   1.0000
     1.0000   1.0000   1.0000   1.0000   1.0000   1.0000   1.0000   1.0000
     1.0000   1.0000   1.0000   1.0000   1.0000   1.0000   1.0000   1.0000
     1.0000   1.0000   1.0000   1.0000   1.0000   1.0000   1.0000   1.0000
     1.0000   1.0000   1.0000   1.0000

          k = 0.1667 0.0962 0.0000 (  3201 PWs)   bands (ev):

    -9.2435  -8.5037  -8.1756  -8.1066   3.2146   3.2448   3.4440   3.5026
     3.6083   3.6838   3.7928   3.8629   4.0384   4.0666   4.4958   4.7471
     5.1367   5.1673   5.2360   5.3905   5.6677   5.7093   5.7507   5.7800
     6.0111   6.0790   6.5057   6.7817   7.3006   8.2342   8.5337   8.7357
     8.7896   9.1009   9.7223   9.9440

     occupation numbers 
     1.0000   1.0000   1.0000   1.0000   1.0000   1.0000   1.0000   1.0000
     1.0000   1.0000   1.0000   1.0000   1.0000   1.0000   1.0000   1.0000
     1.0000   1.0000   1.0000   1.0000   1.0000   1.0000   1.0000   1.0000
     1.0000   1.0000   1.0000   1.0000   1.0000   1.0000   1.0000   1.0000
     1.0000   1.0000   1.0000   1.0000

          k = 0.1667 0.0962 0.1122 (  3210 PWs)   bands (ev):

    -9.1736  -8.4698  -8.2477  -8.1248   3.1259   3.1919   3.2898   3.3127
     3.6069   3.7099   3.7658   3.8641   3.9643   3.9944   4.3699   4.5376
     5.2336   5.2684   5.2766   5.4523   5.6509   5.6847   5.7268   5.8615
     6.0386   6.4897   6.5912   6.8470   7.5959   8.3232   8.4404   8.8212
     8.8533   8.9551   9.8084   9.8684

     occupation numbers 
     1.0000   1.0000   1.0000   1.0000   1.0000   1.0000   1.0000   1.0000
     1.0000   1.0000   1.0000   1.0000   1.0000   1.0000   1.0000   1.0000
     1.0000   1.0000   1.0000   1.0000   1.0000   1.0000   1.0000   1.0000
     1.0000   1.0000   1.0000   1.0000   1.0000   1.0000   1.0000   1.0000
     1.0000   1.0000   1.0000   1.0000

          k = 0.1667 0.0962 0.2244 (  3216 PWs)   bands (ev):

    -8.9810  -8.4452  -8.3817  -8.1812   2.9323   2.9954   3.0290   3.1325
     3.6136   3.6910   3.7042   3.7882   3.8792   3.9467   4.2135   4.3252
     5.3785   5.3788   5.4116   5.4810   5.5949   5.6505   5.6842   5.8454
     6.2325   6.5427   7.1978   7.2591   8.0422   8.3638   8.4171   8.7048
     9.0520   9.1926   9.6520   9.6576

     occupation numbers 
     1.0000   1.0000   1.0000   1.0000   1.0000   1.0000   1.0000   1.0000
     1.0000   1.0000   1.0000   1.0000   1.0000   1.0000   1.0000   1.0000
     1.0000   1.0000   1.0000   1.0000   1.0000   1.0000   1.0000   1.0000
     1.0000   1.0000   1.0000   1.0000   1.0000   1.0000   1.0000   1.0000
     1.0000   1.0000   1.0000   1.0000

          k = 0.1667 0.0962-0.3367 (  3216 PWs)   bands (ev):

    -8.7144  -8.7144  -8.2735  -8.2735   2.8466   2.8466   3.0061   3.0061
     3.6456   3.6456   3.6961   3.6961   3.9116   3.9116   4.2030   4.2030
     5.4736   5.4736   5.4979   5.4979   5.5317   5.5317   5.7556   5.7556
     6.4130   6.4130   7.6511   7.6511   7.9163   7.9163   9.0234   9.0234
     9.1801   9.1801   9.3598   9.3598

     occupation numbers 
     1.0000   1.0000   1.0000   1.0000   1.0000   1.0000   1.0000   1.0000
     1.0000   1.0000   1.0000   1.0000   1.0000   1.0000   1.0000   1.0000
     1.0000   1.0000   1.0000   1.0000   1.0000   1.0000   1.0000   1.0000
     1.0000   1.0000   1.0000   1.0000   1.0000   1.0000   1.0000   1.0000
     1.0000   1.0000   1.0000   1.0000

          k = 0.1667 0.1925 0.0000 (  3203 PWs)   bands (ev):

    -9.1117  -8.6989  -8.1413  -8.0874   3.1225   3.1661   3.4512   3.4749
     3.6501   3.8403   3.8507   3.8831   3.9937   4.1471   4.3079   4.4968
     5.0974   5.1319   5.2322   5.3289   5.6797   5.7099   5.8367   5.8490
     6.1088   6.1625   6.8990   7.1404   7.4779   7.7823   8.2676   8.7160
     8.8936   9.0831   9.5914   9.7010

     occupation numbers 
     1.0000   1.0000   1.0000   1.0000   1.0000   1.0000   1.0000   1.0000
     1.0000   1.0000   1.0000   1.0000   1.0000   1.0000   1.0000   1.0000
     1.0000   1.0000   1.0000   1.0000   1.0000   1.0000   1.0000   1.0000
     1.0000   1.0000   1.0000   1.0000   1.0000   1.0000   1.0000   1.0000
     1.0000   1.0000   1.0000   1.0000

          k = 0.1667 0.1925 0.1122 (  3195 PWs)   bands (ev):

    -9.0466  -8.6527  -8.2049  -8.1217   3.0562   3.1190   3.2702   3.2780
     3.6720   3.8175   3.8386   3.8507   3.9455   4.0523   4.1755   4.3814
     5.2125   5.2138   5.2756   5.3835   5.6593   5.6817   5.7772   5.8770
     6.3374   6.5284   7.0544   7.3457   7.4497   7.8931   8.2986   8.5919
     8.7872   9.2338   9.6131   9.6877

     occupation numbers 
     1.0000   1.0000   1.0000   1.0000   1.0000   1.0000   1.0000   1.0000
     1.0000   1.0000   1.0000   1.0000   1.0000   1.0000   1.0000   1.0000
     1.0000   1.0000   1.0000   1.0000   1.0000   1.0000   1.0000   1.0000
     1.0000   1.0000   1.0000   1.0000   1.0000   1.0000   1.0000   1.0000
     1.0000   1.0000   1.0000   1.0000

          k = 0.1667 0.1925 0.2244 (  3211 PWs)   bands (ev):

    -8.8682  -8.5295  -8.3807  -8.2212   2.9018   2.9682   2.9719   3.0279
     3.6816   3.7465   3.8018   3.8246   3.8788   3.9018   4.0690   4.2182
     5.3758   5.3814   5.4080   5.4508   5.5968   5.6282   5.6887   5.7924
     6.6259   7.0451   7.2298   7.6078   8.0350   8.0971   8.3659   8.5394
     8.7209   9.3482   9.3780   9.5738

     occupation numbers 
     1.0000   1.0000   1.0000   1.0000   1.0000   1.0000   1.0000   1.0000
     1.0000   1.0000   1.0000   1.0000   1.0000   1.0000   1.0000   1.0000
     1.0000   1.0000   1.0000   1.0000   1.0000   1.0000   1.0000   1.0000
     1.0000   1.0000   1.0000   1.0000   1.0000   1.0000   1.0000   1.0000
     1.0000   1.0000   1.0000   1.0000

          k = 0.1667 0.1925-0.3367 (  3218 PWs)   bands (ev):

    -8.6239  -8.6239  -8.3694  -8.3694   2.8257   2.8257   2.9142   2.9142
     3.6963   3.6963   3.8131   3.8131   3.8325   3.8325   4.1008   4.1008
     5.4936   5.4936   5.5020   5.5020   5.5550   5.5550   5.6570   5.6570
     6.8568   6.8568   7.7162   7.7162   8.0140   8.0140   8.9816   8.9816
     9.0015   9.0015   9.1002   9.1002

     occupation numbers 
     1.0000   1.0000   1.0000   1.0000   1.0000   1.0000   1.0000   1.0000
     1.0000   1.0000   1.0000   1.0000   1.0000   1.0000   1.0000   1.0000
     1.0000   1.0000   1.0000   1.0000   1.0000   1.0000   1.0000   1.0000
     1.0000   1.0000   1.0000   1.0000   1.0000   1.0000   1.0000   1.0000
     1.0000   1.0000   1.0000   1.0000

          k = 0.1667 0.2887 0.0000 (  3182 PWs)   bands (ev):

    -8.9179  -8.9179  -8.1042  -8.1042   3.1135   3.1135   3.4499   3.4499
     3.7457   3.7457   3.9232   3.9232   4.1052   4.1052   4.2900   4.2900
     5.1063   5.1063   5.2516   5.2516   5.6944   5.6944   5.8531   5.8531
     6.2057   6.2057   7.2954   7.2954   7.6171   7.6171   8.1498   8.1498
     9.3096   9.3096   9.3777   9.3777

     occupation numbers 
     1.0000   1.0000   1.0000   1.0000   1.0000   1.0000   1.0000   1.0000
     1.0000   1.0000   1.0000   1.0000   1.0000   1.0000   1.0000   1.0000
     1.0000   1.0000   1.0000   1.0000   1.0000   1.0000   1.0000   1.0000
     1.0000   1.0000   1.0000   1.0000   1.0000   1.0000   1.0000   1.0000
     1.0000   1.0000   1.0000   1.0000

          k = 0.1667 0.2887 0.1122 (  3174 PWs)   bands (ev):

    -8.8609  -8.8609  -8.1546  -8.1546   3.0620   3.0620   3.2539   3.2539
     3.7623   3.7623   3.8729   3.8729   4.0164   4.0164   4.2025   4.2025
     5.2033   5.2033   5.3023   5.3023   5.6699   5.6699   5.8307   5.8307
     6.5546   6.5546   7.4702   7.4702   7.6726   7.6726   8.0582   8.0582
     9.2110   9.2110   9.4960   9.4960

     occupation numbers 
     1.0000   1.0000   1.0000   1.0000   1.0000   1.0000   1.0000   1.0000
     1.0000   1.0000   1.0000   1.0000   1.0000   1.0000   1.0000   1.0000
     1.0000   1.0000   1.0000   1.0000   1.0000   1.0000   1.0000   1.0000
     1.0000   1.0000   1.0000   1.0000   1.0000   1.0000   1.0000   1.0000
     1.0000   1.0000   1.0000   1.0000

          k = 0.1667 0.2887 0.2244 (  3200 PWs)   bands (ev):

    -8.7060  -8.7060  -8.2964  -8.2964   2.9314   2.9314   2.9531   2.9531
     3.7649   3.7649   3.7858   3.7858   3.9419   3.9419   4.0627   4.0627
     5.3929   5.3929   5.3958   5.3958   5.6042   5.6042   5.7403   5.7403
     7.0383   7.0383   7.5850   7.5850   8.1135   8.1135   8.1761   8.1761
     8.9458   8.9458   9.4798   9.4798

     occupation numbers 
     1.0000   1.0000   1.0000   1.0000   1.0000   1.0000   1.0000   1.0000
     1.0000   1.0000   1.0000   1.0000   1.0000   1.0000   1.0000   1.0000
     1.0000   1.0000   1.0000   1.0000   1.0000   1.0000   1.0000   1.0000
     1.0000   1.0000   1.0000   1.0000   1.0000   1.0000   1.0000   1.0000
     1.0000   1.0000   1.0000   1.0000

          k = 0.1667 0.2887-0.3367 (  3220 PWs)   bands (ev):

    -8.4980  -8.4980  -8.4980  -8.4980   2.8443   2.8443   2.8443   2.8443
     3.7536   3.7536   3.7536   3.7536   3.9654   3.9654   3.9654   3.9654
     5.4954   5.4954   5.4954   5.4954   5.5958   5.5958   5.5958   5.5958
     7.3424   7.3424   7.3424   7.3424   8.5209   8.5209   8.5209   8.5209
     8.9983   8.9983   8.9983   8.9983

     occupation numbers 
     1.0000   1.0000   1.0000   1.0000   1.0000   1.0000   1.0000   1.0000
     1.0000   1.0000   1.0000   1.0000   1.0000   1.0000   1.0000   1.0000
     1.0000   1.0000   1.0000   1.0000   1.0000   1.0000   1.0000   1.0000
     1.0000   1.0000   1.0000   1.0000   1.0000   1.0000   1.0000   1.0000
     1.0000   1.0000   1.0000   1.0000

          k = 0.1667 0.0000 0.0000 (  3197 PWs)   bands (ev):

    -9.2901  -8.4118  -8.1891  -8.1334   3.3107   3.3204   3.3897   3.4605
     3.5765   3.6762   3.7451   3.8722   4.0314   4.0422   4.5817   4.8770
     5.1900   5.2331   5.2620   5.3464   5.5718   5.6618   5.7131   5.7524
     6.0778   6.1649   6.2163   6.5002   7.4463   8.3476   8.4967   8.6626
     8.7668   9.3241   9.7737   9.9918

     occupation numbers 
     1.0000   1.0000   1.0000   1.0000   1.0000   1.0000   1.0000   1.0000
     1.0000   1.0000   1.0000   1.0000   1.0000   1.0000   1.0000   1.0000
     1.0000   1.0000   1.0000   1.0000   1.0000   1.0000   1.0000   1.0000
     1.0000   1.0000   1.0000   1.0000   1.0000   1.0000   1.0000   1.0000
     1.0000   1.0000   1.0000   1.0000

          k = 0.1667 0.0000 0.1122 (  3206 PWs)   bands (ev):

    -9.2186  -8.3850  -8.2642  -8.1430   3.2183   3.2437   3.2749   3.2803
     3.5755   3.6923   3.7160   3.8796   3.9390   3.9935   4.4779   4.6062
     5.2486   5.2755   5.3790   5.4143   5.6406   5.6466   5.7073   5.7178
     6.2122   6.2419   6.4774   6.6369   7.7684   8.2669   8.5874   8.8012
     8.8176   9.0713   9.8733   9.9177

     occupation numbers 
     1.0000   1.0000   1.0000   1.0000   1.0000   1.0000   1.0000   1.0000
     1.0000   1.0000   1.0000   1.0000   1.0000   1.0000   1.0000   1.0000
     1.0000   1.0000   1.0000   1.0000   1.0000   1.0000   1.0000   1.0000
     1.0000   1.0000   1.0000   1.0000   1.0000   1.0000   1.0000   1.0000
     1.0000   1.0000   1.0000   1.0000

          k = 0.1667 0.0000 0.2244 (  3224 PWs)   bands (ev):

    -9.0213  -8.4692  -8.3170  -8.1764   2.9724   2.9926   3.0656   3.1791
     3.5778   3.6485   3.6711   3.7623   3.9091   3.9614   4.3214   4.3404
     5.3791   5.3819   5.4121   5.4514   5.5937   5.6373   5.7848   5.7874
     6.2085   6.2340   7.0454   7.2570   7.9600   8.4702   8.5001   8.8621
     9.1063   9.1320   9.7115   9.7201

     occupation numbers 
     1.0000   1.0000   1.0000   1.0000   1.0000   1.0000   1.0000   1.0000
     1.0000   1.0000   1.0000   1.0000   1.0000   1.0000   1.0000   1.0000
     1.0000   1.0000   1.0000   1.0000   1.0000   1.0000   1.0000   1.0000
     1.0000   1.0000   1.0000   1.0000   1.0000   1.0000   1.0000   1.0000
     1.0000   1.0000   1.0000   1.0000

          k = 0.1667 0.0000-0.3367 (  3226 PWs)   bands (ev):

    -8.7472  -8.7472  -8.2380  -8.2380   2.8627   2.8627   3.0538   3.0538
     3.5972   3.5972   3.6735   3.6735   3.9457   3.9457   4.2493   4.2493
     5.4369   5.4369   5.4982   5.4982   5.5264   5.5264   5.8329   5.8329
     6.2147   6.2147   7.5184   7.5184   7.9715   7.9715   9.0335   9.0335
     9.2915   9.2915   9.4270   9.4270

     occupation numbers 
     1.0000   1.0000   1.0000   1.0000   1.0000   1.0000   1.0000   1.0000
     1.0000   1.0000   1.0000   1.0000   1.0000   1.0000   1.0000   1.0000
     1.0000   1.0000   1.0000   1.0000   1.0000   1.0000   1.0000   1.0000
     1.0000   1.0000   1.0000   1.0000   1.0000   1.0000   1.0000   1.0000
     1.0000   1.0000   1.0000   1.0000

          k = 0.3333 0.1925 0.0000 (  3198 PWs)   bands (ev):

    -8.7922  -8.5037  -8.1066  -8.0922   2.9900   3.2146   3.3848   3.4441
     3.8628   3.8660   4.0242   4.0384   4.1889   4.4957   4.4995   4.7471
     5.0511   5.1367   5.3180   5.3905   5.7047   5.7093   5.7507   5.8143
     6.0111   6.1889   6.5056   6.7817   6.8060   7.3006   7.6457   7.7537
     8.5336   8.7896   9.1987   9.3171

     occupation numbers 
     1.0000   1.0000   1.0000   1.0000   1.0000   1.0000   1.0000   1.0000
     1.0000   1.0000   1.0000   1.0000   1.0000   1.0000   1.0000   1.0000
     1.0000   1.0000   1.0000   1.0000   1.0000   1.0000   1.0000   1.0000
     1.0000   1.0000   1.0000   1.0000   1.0000   1.0000   1.0000   1.0000
     1.0000   1.0000   1.0000   1.0000

          k = 0.3333 0.1925 0.1122 (  3201 PWs)   bands (ev):

    -8.7412  -8.4698  -8.1334  -8.1248   2.9262   3.1259   3.2089   3.2899
     3.8640   3.8751   3.9577   3.9944   4.1523   4.3186   4.3698   4.5376
     5.1929   5.2685   5.3448   5.4523   5.6759   5.6847   5.8354   5.8615
     6.0386   6.4004   6.5912   6.8470   7.0043   7.5958   7.6092   7.8758
     8.4403   8.9551   9.2239   9.3290

     occupation numbers 
     1.0000   1.0000   1.0000   1.0000   1.0000   1.0000   1.0000   1.0000
     1.0000   1.0000   1.0000   1.0000   1.0000   1.0000   1.0000   1.0000
     1.0000   1.0000   1.0000   1.0000   1.0000   1.0000   1.0000   1.0000
     1.0000   1.0000   1.0000   1.0000   1.0000   1.0000   1.0000   1.0000
     1.0000   1.0000   1.0000   1.0000

          k = 0.3333 0.1925 0.2244 (  3195 PWs)   bands (ev):

    -8.6039  -8.3817  -8.2511  -8.1812   2.7868   2.9049   2.9323   2.9954
     3.8791   3.9050   3.9088   3.9467   4.0659   4.0873   4.2134   4.3252
     5.4093   5.4117   5.4161   5.4811   5.6033   5.6842   5.7546   5.8454
     6.2325   6.5427   6.6921   7.1124   7.1977   8.0421   8.1004   8.1908
     8.4171   8.9630   9.1926   9.3668

     occupation numbers 
     1.0000   1.0000   1.0000   1.0000   1.0000   1.0000   1.0000   1.0000
     1.0000   1.0000   1.0000   1.0000   1.0000   1.0000   1.0000   1.0000
     1.0000   1.0000   1.0000   1.0000   1.0000   1.0000   1.0000   1.0000
     1.0000   1.0000   1.0000   1.0000   1.0000   1.0000   1.0000   1.0000
     1.0000   1.0000   1.0000   1.0000

          k = 0.3333 0.1925-0.3367 (  3200 PWs)   bands (ev):

    -8.4227  -8.4227  -8.2735  -8.2735   2.7434   2.7434   2.8466   2.8466
     3.9116   3.9116   3.9465   3.9465   3.9746   3.9746   4.2029   4.2029
     5.4736   5.4736   5.5099   5.5099   5.6041   5.6041   5.7557   5.7557
     6.4131   6.4131   6.9250   6.9250   7.6510   7.6510   8.5896   8.5896
     8.9173   8.9173   9.0234   9.0234

     occupation numbers 
     1.0000   1.0000   1.0000   1.0000   1.0000   1.0000   1.0000   1.0000
     1.0000   1.0000   1.0000   1.0000   1.0000   1.0000   1.0000   1.0000
     1.0000   1.0000   1.0000   1.0000   1.0000   1.0000   1.0000   1.0000
     1.0000   1.0000   1.0000   1.0000   1.0000   1.0000   1.0000   1.0000
     1.0000   1.0000   1.0000   1.0000

          k = 0.3333 0.2887 0.0000 (  3210 PWs)   bands (ev):

    -8.6571  -8.6570  -8.0901  -8.0901   3.0321   3.0321   3.3715   3.3715
     3.8748   3.8748   4.0608   4.0608   4.3286   4.3286   4.6492   4.6492
     5.0833   5.0833   5.3660   5.3660   5.7123   5.7123   5.8111   5.8111
     6.0503   6.0503   6.7666   6.7666   7.2387   7.2387   7.3917   7.3917
     8.9852   8.9852   9.0699   9.0699

     occupation numbers 
     1.0000   1.0000   1.0000   1.0000   1.0000   1.0000   1.0000   1.0000
     1.0000   1.0000   1.0000   1.0000   1.0000   1.0000   1.0000   1.0000
     1.0000   1.0000   1.0000   1.0000   1.0000   1.0000   1.0000   1.0000
     1.0000   1.0000   1.0000   1.0000   1.0000   1.0000   1.0000   1.0000
     1.0000   1.0000   1.0000   1.0000

          k = 0.3333 0.2887 0.1122 (  3202 PWs)   bands (ev):

    -8.6134  -8.6134  -8.1209  -8.1209   2.9588   2.9588   3.2049   3.2049
     3.8837   3.8837   4.0071   4.0071   4.2597   4.2597   4.4402   4.4402
     5.2306   5.2306   5.3998   5.3998   5.6814   5.6814   5.8587   5.8587
     6.1766   6.1766   6.8718   6.8718   7.3628   7.3628   7.5480   7.5480
     8.9244   8.9244   9.1797   9.1797

     occupation numbers 
     1.0000   1.0000   1.0000   1.0000   1.0000   1.0000   1.0000   1.0000
     1.0000   1.0000   1.0000   1.0000   1.0000   1.0000   1.0000   1.0000
     1.0000   1.0000   1.0000   1.0000   1.0000   1.0000   1.0000   1.0000
     1.0000   1.0000   1.0000   1.0000   1.0000   1.0000   1.0000   1.0000
     1.0000   1.0000   1.0000   1.0000

          k = 0.3333 0.2887 0.2244 (  3192 PWs)   bands (ev):

    -8.4973  -8.4973  -8.2112  -8.2112   2.8009   2.8009   2.9048   2.9048
     3.8997   3.8997   3.9792   3.9792   4.1226   4.1226   4.2222   4.2222
     5.4277   5.4277   5.4623   5.4623   5.6183   5.6183   5.7802   5.7802
     6.4295   6.4295   6.8053   6.8053   7.7855   7.7855   8.1830   8.1830
     8.6516   8.6516   9.3018   9.3018

     occupation numbers 
     1.0000   1.0000   1.0000   1.0000   1.0000   1.0000   1.0000   1.0000
     1.0000   1.0000   1.0000   1.0000   1.0000   1.0000   1.0000   1.0000
     1.0000   1.0000   1.0000   1.0000   1.0000   1.0000   1.0000   1.0000
     1.0000   1.0000   1.0000   1.0000   1.0000   1.0000   1.0000   1.0000
     1.0000   1.0000   1.0000   1.0000

          k = 0.3333 0.2887-0.3367 (  3196 PWs)   bands (ev):

    -8.3478  -8.3478  -8.3478  -8.3478   2.7451   2.7451   2.7451   2.7451
     3.9472   3.9472   3.9472   3.9472   4.0995   4.0995   4.0995   4.0995
     5.5146   5.5146   5.5146   5.5146   5.6470   5.6470   5.6470   5.6470
     6.6374   6.6374   6.6374   6.6374   8.2223   8.2223   8.2223   8.2223
     8.9670   8.9670   8.9670   8.9671

     occupation numbers 
     1.0000   1.0000   1.0000   1.0000   1.0000   1.0000   1.0000   1.0000
     1.0000   1.0000   1.0000   1.0000   1.0000   1.0000   1.0000   1.0000
     1.0000   1.0000   1.0000   1.0000   1.0000   1.0000   1.0000   1.0000
     1.0000   1.0000   1.0000   1.0000   1.0000   1.0000   1.0000   1.0000
     1.0000   1.0000   1.0000   1.0000

          k = 0.3333-0.0962 0.0000 (  3195 PWs)   bands (ev):

    -8.8849  -8.3572  -8.1533  -8.1003   3.0530   3.4413   3.4803   3.6001
     3.7745   3.8299   3.9828   4.0073   4.1119   4.3472   4.6657   4.8331
     5.0777   5.1889   5.2766   5.3416   5.5027   5.5572   5.6977   5.8408
     5.9141   6.2103   6.2838   6.5932   7.0559   7.5931   7.7782   7.9890
     8.0622   8.4344   9.3228   9.3582

     occupation numbers 
     1.0000   1.0000   1.0000   1.0000   1.0000   1.0000   1.0000   1.0000
     1.0000   1.0000   1.0000   1.0000   1.0000   1.0000   1.0000   1.0000
     1.0000   1.0000   1.0000   1.0000   1.0000   1.0000   1.0000   1.0000
     1.0000   1.0000   1.0000   1.0000   1.0000   1.0000   1.0000   1.0000
     1.0000   1.0000   1.0000   1.0000

          k = 0.3333-0.0962 0.1122 (  3198 PWs)   bands (ev):

    -8.8294  -8.3350  -8.1578  -8.1483   2.9956   3.2506   3.3783   3.4622
     3.7865   3.7898   3.9312   3.9681   4.0469   4.2273   4.4800   4.5964
     5.1918   5.2522   5.3161   5.4193   5.6132   5.6719   5.7212   5.8307
     6.1017   6.2661   6.5249   6.5624   7.2244   7.8009   7.8046   7.9697
     8.0358   8.6473   9.2561   9.4491

     occupation numbers 
     1.0000   1.0000   1.0000   1.0000   1.0000   1.0000   1.0000   1.0000
     1.0000   1.0000   1.0000   1.0000   1.0000   1.0000   1.0000   1.0000
     1.0000   1.0000   1.0000   1.0000   1.0000   1.0000   1.0000   1.0000
     1.0000   1.0000   1.0000   1.0000   1.0000   1.0000   1.0000   1.0000
     1.0000   1.0000   1.0000   1.0000

          k = 0.3333-0.0962 0.2244 (  3197 PWs)   bands (ev):

    -8.6790  -8.2839  -8.2801  -8.1770   2.8593   2.9490   3.1387   3.1605
     3.7851   3.7955   3.8706   3.8980   3.9542   4.0656   4.3193   4.3797
     5.3037   5.3922   5.4024   5.4026   5.6036   5.7429   5.7994   5.9370
     6.2094   6.3714   6.6674   6.9335   7.4189   7.5548   8.0905   8.2538
     8.5902   8.9939   9.0225   9.4431

     occupation numbers 
     1.0000   1.0000   1.0000   1.0000   1.0000   1.0000   1.0000   1.0000
     1.0000   1.0000   1.0000   1.0000   1.0000   1.0000   1.0000   1.0000
     1.0000   1.0000   1.0000   1.0000   1.0000   1.0000   1.0000   1.0000
     1.0000   1.0000   1.0000   1.0000   1.0000   1.0000   1.0000   1.0000
     1.0000   1.0000   1.0000   1.0000

          k = 0.3333-0.0962-0.3367 (  3212 PWs)   bands (ev):

    -8.4778  -8.4778  -8.2196  -8.2195   2.8047   2.8047   3.0168   3.0168
     3.8192   3.8192   3.8305   3.8305   3.9643   3.9643   4.2919   4.2919
     5.3570   5.3570   5.4999   5.4999   5.5949   5.5949   5.9309   5.9309
     6.2988   6.2988   7.1042   7.1042   7.2066   7.2066   8.5921   8.5921
     8.9674   8.9674   9.0579   9.0579

     occupation numbers 
     1.0000   1.0000   1.0000   1.0000   1.0000   1.0000   1.0000   1.0000
     1.0000   1.0000   1.0000   1.0000   1.0000   1.0000   1.0000   1.0000
     1.0000   1.0000   1.0000   1.0000   1.0000   1.0000   1.0000   1.0000
     1.0000   1.0000   1.0000   1.0000   1.0000   1.0000   1.0000   1.0000
     1.0000   1.0000   1.0000   1.0000

          k = 0.3333-0.0000 0.0000 (  3196 PWs)   bands (ev):

    -8.9179  -8.2371  -8.2371  -8.1042   3.1136   3.4499   3.6389   3.7303
     3.7303   3.7456   3.9232   4.0486   4.1052   4.2899   4.8562   4.8562
     5.1062   5.1287   5.2517   5.2632   5.2632   5.3967   5.6944   5.8531
     5.8764   6.2057   6.4640   6.4640   7.2954   7.6171   7.8132   8.0257
     8.0258   8.1498   9.3095   9.3777

     occupation numbers 
     1.0000   1.0000   1.0000   1.0000   1.0000   1.0000   1.0000   1.0000
     1.0000   1.0000   1.0000   1.0000   1.0000   1.0000   1.0000   1.0000
     1.0000   1.0000   1.0000   1.0000   1.0000   1.0000   1.0000   1.0000
     1.0000   1.0000   1.0000   1.0000   1.0000   1.0000   1.0000   1.0000
     1.0000   1.0000   1.0000   1.0000

          k = 0.3333-0.0000 0.1122 (  3198 PWs)   bands (ev):

    -8.8609  -8.2279  -8.2279  -8.1546   3.0621   3.2540   3.5765   3.5765
     3.6518   3.7622   3.8728   3.9942   4.0164   4.2024   4.5735   4.5735
     5.1541   5.2032   5.3024   5.3817   5.5973   5.5973   5.6699   5.8307
     6.0107   6.4225   6.4225   6.5547   7.4702   7.6726   7.6765   8.0582
     8.2905   8.2905   9.2109   9.4960

     occupation numbers 
     1.0000   1.0000   1.0000   1.0000   1.0000   1.0000   1.0000   1.0000
     1.0000   1.0000   1.0000   1.0000   1.0000   1.0000   1.0000   1.0000
     1.0000   1.0000   1.0000   1.0000   1.0000   1.0000   1.0000   1.0000
     1.0000   1.0000   1.0000   1.0000   1.0000   1.0000   1.0000   1.0000
     1.0000   1.0000   1.0000   1.0000

          k = 0.3333-0.0000 0.2244 (  3202 PWs)   bands (ev):

    -8.7060  -8.2964  -8.2093  -8.2093   2.9315   2.9532   3.2652   3.2652
     3.6937   3.7649   3.7857   3.8792   3.9419   4.0627   4.3864   4.3864
     5.2113   5.3394   5.3929   5.3958   5.6042   5.7403   5.9153   5.9153
     6.3415   6.3415   6.3659   7.0383   7.3145   7.5850   8.1136   8.1760
     8.8107   8.8107   8.9457   9.4798

     occupation numbers 
     1.0000   1.0000   1.0000   1.0000   1.0000   1.0000   1.0000   1.0000
     1.0000   1.0000   1.0000   1.0000   1.0000   1.0000   1.0000   1.0000
     1.0000   1.0000   1.0000   1.0000   1.0000   1.0000   1.0000   1.0000
     1.0000   1.0000   1.0000   1.0000   1.0000   1.0000   1.0000   1.0000
     1.0000   1.0000   1.0000   1.0000

          k = 0.3333-0.0000-0.3367 (  3218 PWs)   bands (ev):

    -8.4980  -8.4980  -8.1999  -8.1999   2.8443   2.8443   3.1187   3.1187
     3.7536   3.7536   3.7700   3.7700   3.9654   3.9654   4.3389   4.3389
     5.2782   5.2782   5.4955   5.4955   5.5958   5.5958   6.0428   6.0428
     6.2872   6.2872   6.8378   6.8378   7.3424   7.3424   8.5208   8.5208
     8.9984   8.9984   9.0694   9.0694

     occupation numbers 
     1.0000   1.0000   1.0000   1.0000   1.0000   1.0000   1.0000   1.0000
     1.0000   1.0000   1.0000   1.0000   1.0000   1.0000   1.0000   1.0000
     1.0000   1.0000   1.0000   1.0000   1.0000   1.0000   1.0000   1.0000
     1.0000   1.0000   1.0000   1.0000   1.0000   1.0000   1.0000   1.0000
     1.0000   1.0000   1.0000   1.0000

          k =-0.5000-0.2887 0.0000 (  3220 PWs)   bands (ev):

    -8.4903  -8.4902  -8.1150  -8.1150   3.0895   3.0895   3.1505   3.1505
     3.9682   3.9682   4.1068   4.1068   4.4639   4.4639   4.8241   4.8241
     5.3882   5.3882   5.4623   5.4624   5.6168   5.6168   5.7186   5.7186
     5.8985   5.8985   6.4166   6.4166   7.0224   7.0224   7.1803   7.1803
     8.7984   8.7984   8.9651   8.9651

     occupation numbers 
     1.0000   1.0000   1.0000   1.0000   1.0000   1.0000   1.0000   1.0000
     1.0000   1.0000   1.0000   1.0000   1.0000   1.0000   1.0000   1.0000
     1.0000   1.0000   1.0000   1.0000   1.0000   1.0000   1.0000   1.0000
     1.0000   1.0000   1.0000   1.0000   1.0000   1.0000   1.0000   1.0000
     1.0000   1.0000   1.0000   1.0000

          k =-0.5000-0.2887 0.1122 (  3216 PWs)   bands (ev):

    -8.4576  -8.4576  -8.1315  -8.1314   2.9679   2.9679   3.0450   3.0450
     3.9885   3.9885   4.0485   4.0485   4.4137   4.4137   4.6099   4.6099
     5.4691   5.4691   5.4726   5.4726   5.6803   5.6803   5.7056   5.7056
     5.9543   5.9543   6.3168   6.3168   7.3369   7.3369   7.4529   7.4529
     8.8642   8.8642   8.9624   8.9624

     occupation numbers 
     1.0000   1.0000   1.0000   1.0000   1.0000   1.0000   1.0000   1.0000
     1.0000   1.0000   1.0000   1.0000   1.0000   1.0000   1.0000   1.0000
     1.0000   1.0000   1.0000   1.0000   1.0000   1.0000   1.0000   1.0000
     1.0000   1.0000   1.0000   1.0000   1.0000   1.0000   1.0000   1.0000
     1.0000   1.0000   1.0000   1.0000

          k =-0.5000-0.2887 0.2244 (  3208 PWs)   bands (ev):

    -8.3731  -8.3731  -8.1835  -8.1835   2.7460   2.7460   2.8172   2.8172
     4.0260   4.0260   4.0518   4.0518   4.2924   4.2924   4.3097   4.3097
     5.5018   5.5018   5.5916   5.5916   5.6090   5.6090   5.7286   5.7286
     6.0873   6.0873   6.2365   6.2365   7.7161   7.7161   8.2653   8.2653
     8.5806   8.5806   9.1711   9.1711

     occupation numbers 
     1.0000   1.0000   1.0000   1.0000   1.0000   1.0000   1.0000   1.0000
     1.0000   1.0000   1.0000   1.0000   1.0000   1.0000   1.0000   1.0000
     1.0000   1.0000   1.0000   1.0000   1.0000   1.0000   1.0000   1.0000
     1.0000   1.0000   1.0000   1.0000   1.0000   1.0000   1.0000   1.0000
     1.0000   1.0000   1.0000   1.0000

          k =-0.5000-0.2887-0.3367 (  3216 PWs)   bands (ev):

    -8.2701  -8.2701  -8.2701  -8.2701   2.6728   2.6728   2.6728   2.6728
     4.1136   4.1136   4.1136   4.1136   4.1578   4.1578   4.1578   4.1578
     5.5472   5.5472   5.5472   5.5472   5.6807   5.6807   5.6807   5.6807
     6.1801   6.1801   6.1801   6.1801   8.1693   8.1693   8.1693   8.1693
     8.9534   8.9534   8.9534   8.9534

     occupation numbers 
     1.0000   1.0000   1.0000   1.0000   1.0000   1.0000   1.0000   1.0000
     1.0000   1.0000   1.0000   1.0000   1.0000   1.0000   1.0000   1.0000
     1.0000   1.0000   1.0000   1.0000   1.0000   1.0000   1.0000   1.0000
     1.0000   1.0000   1.0000   1.0000   1.0000   1.0000   1.0000   1.0000
     1.0000   1.0000   1.0000   1.0000

          k =-0.5000-0.1925 0.0000 (  3196 PWs)   bands (ev):

    -8.4948  -8.4948  -8.1121  -8.1121   3.1139   3.1139   3.2542   3.2542
     3.9329   3.9329   4.0801   4.0801   4.4782   4.4782   4.8274   4.8274
     5.2676   5.2676   5.4187   5.4187   5.6755   5.6755   5.7221   5.7221
     5.9479   5.9479   6.5168   6.5168   6.8260   6.8260   7.2691   7.2691
     8.7272   8.7272   8.8907   8.8907

     occupation numbers 
     1.0000   1.0000   1.0000   1.0000   1.0000   1.0000   1.0000   1.0000
     1.0000   1.0000   1.0000   1.0000   1.0000   1.0000   1.0000   1.0000
     1.0000   1.0000   1.0000   1.0000   1.0000   1.0000   1.0000   1.0000
     1.0000   1.0000   1.0000   1.0000   1.0000   1.0000   1.0000   1.0000
     1.0000   1.0000   1.0000   1.0000

          k =-0.5000-0.1925 0.1122 (  3204 PWs)   bands (ev):

    -8.4617  -8.4617  -8.1292  -8.1291   3.0111   3.0111   3.1236   3.1236
     3.9486   3.9486   4.0299   4.0299   4.4121   4.4121   4.5897   4.5897
     5.3739   5.3739   5.4646   5.4646   5.6842   5.6842   5.7576   5.7576
     5.9940   5.9940   6.4183   6.4183   7.1017   7.1017   7.5706   7.5706
     8.7050   8.7050   8.9763   8.9763

     occupation numbers 
     1.0000   1.0000   1.0000   1.0000   1.0000   1.0000   1.0000   1.0000
     1.0000   1.0000   1.0000   1.0000   1.0000   1.0000   1.0000   1.0000
     1.0000   1.0000   1.0000   1.0000   1.0000   1.0000   1.0000   1.0000
     1.0000   1.0000   1.0000   1.0000   1.0000   1.0000   1.0000   1.0000
     1.0000   1.0000   1.0000   1.0000

          k =-0.5000-0.1925 0.2244 (  3200 PWs)   bands (ev):

    -8.3760  -8.3760  -8.1826  -8.1826   2.8023   2.8023   2.8714   2.8714
     3.9852   3.9852   4.0190   4.0190   4.2706   4.2706   4.3117   4.3117
     5.4783   5.4783   5.5135   5.5135   5.6588   5.6588   5.7683   5.7683
     6.1308   6.1308   6.3302   6.3302   7.5341   7.5341   8.3053   8.3053
     8.4338   8.4338   9.1830   9.1830

     occupation numbers 
     1.0000   1.0000   1.0000   1.0000   1.0000   1.0000   1.0000   1.0000
     1.0000   1.0000   1.0000   1.0000   1.0000   1.0000   1.0000   1.0000
     1.0000   1.0000   1.0000   1.0000   1.0000   1.0000   1.0000   1.0000
     1.0000   1.0000   1.0000   1.0000   1.0000   1.0000   1.0000   1.0000
     1.0000   1.0000   1.0000   1.0000

          k =-0.5000-0.1925-0.3367 (  3196 PWs)   bands (ev):

    -8.2712  -8.2712  -8.2712  -8.2712   2.7258   2.7258   2.7258   2.7258
     4.0395   4.0395   4.0395   4.0395   4.1848   4.1848   4.1848   4.1848
     5.5165   5.5165   5.5165   5.5165   5.7105   5.7105   5.7105   5.7105
     6.2474   6.2474   6.2474   6.2474   7.9989   7.9989   7.9989   7.9989
     8.9843   8.9843   8.9843   8.9843

     occupation numbers 
     1.0000   1.0000   1.0000   1.0000   1.0000   1.0000   1.0000   1.0000
     1.0000   1.0000   1.0000   1.0000   1.0000   1.0000   1.0000   1.0000
     1.0000   1.0000   1.0000   1.0000   1.0000   1.0000   1.0000   1.0000
     1.0000   1.0000   1.0000   1.0000   1.0000   1.0000   1.0000   1.0000
     1.0000   1.0000   1.0000   1.0000

          k =-0.5000-0.0962 0.0000 (  3204 PWs)   bands (ev):

    -8.5037  -8.5037  -8.1066  -8.1066   3.2147   3.2147   3.4441   3.4441
[...]
     5.3875   5.3879   5.4705   5.4940   5.5920   5.6069   5.6083   5.7661
     6.2332   6.5303   7.2346   7.8490   8.1982   8.6866   8.7093   9.2361
     9.2390   9.3605   9.8633   9.8981

     occupation numbers 
     1.0000   1.0000   1.0000   1.0000   1.0000   1.0000   1.0000   1.0000
     1.0000   1.0000   1.0000   1.0000   1.0000   1.0000   1.0000   1.0000
     1.0000   1.0000   1.0000   1.0000   1.0000   1.0000   1.0000   1.0000
     1.0000   1.0000   1.0000   1.0000   1.0000   1.0000   1.0000   1.0000
     1.0000   1.0000   1.0000   1.0000

          k = 0.0000 0.1925-0.1122 (  3209 PWs)   bands (ev):

    -9.1736  -8.7412  -8.2477  -8.1334   2.9261   3.1918   3.2088   3.3126
     3.6070   3.7099   3.7658   3.8752   3.9576   3.9642   4.1524   4.3185
     5.1929   5.2336   5.2766   5.3448   5.6509   5.6759   5.7268   5.8354
     6.4003   6.4897   7.0042   7.6091   7.8759   8.3230   8.8213   8.8532
     9.2240   9.3290   9.8084   9.8686

     occupation numbers 
     1.0000   1.0000   1.0000   1.0000   1.0000   1.0000   1.0000   1.0000
     1.0000   1.0000   1.0000   1.0000   1.0000   1.0000   1.0000   1.0000
     1.0000   1.0000   1.0000   1.0000   1.0000   1.0000   1.0000   1.0000
     1.0000   1.0000   1.0000   1.0000   1.0000   1.0000   1.0000   1.0000
     1.0000   1.0000   1.0000   1.0000

          k = 0.0000 0.1925-0.2244 (  3213 PWs)   bands (ev):

    -8.9810  -8.6039  -8.4452  -8.2511   2.7867   2.9049   3.0289   3.1324
     3.6137   3.6909   3.7043   3.7882   3.9050   3.9089   4.0660   4.0873
     5.3785   5.3788   5.4093   5.4161   5.5949   5.6033   5.6504   5.7545
     6.6921   7.1123   7.2591   8.1004   8.1909   8.3637   8.7047   8.9631
     9.0521   9.3668   9.6519   9.6578

     occupation numbers 
     1.0000   1.0000   1.0000   1.0000   1.0000   1.0000   1.0000   1.0000
     1.0000   1.0000   1.0000   1.0000   1.0000   1.0000   1.0000   1.0000
     1.0000   1.0000   1.0000   1.0000   1.0000   1.0000   1.0000   1.0000
     1.0000   1.0000   1.0000   1.0000   1.0000   1.0000   1.0000   1.0000
     1.0000   1.0000   1.0000   1.0000

          k =-0.1667 0.0962-0.1122 (  3210 PWs)   bands (ev):

    -9.1736  -8.4698  -8.2477  -8.1248   3.1259   3.1919   3.2898   3.3127
     3.6069   3.7099   3.7658   3.8641   3.9643   3.9944   4.3699   4.5376
     5.2336   5.2684   5.2766   5.4523   5.6509   5.6847   5.7268   5.8615
     6.0386   6.4897   6.5912   6.8470   7.5959   8.3232   8.4404   8.8212
     8.8533   8.9551   9.8084   9.8684

     occupation numbers 
     1.0000   1.0000   1.0000   1.0000   1.0000   1.0000   1.0000   1.0000
     1.0000   1.0000   1.0000   1.0000   1.0000   1.0000   1.0000   1.0000
     1.0000   1.0000   1.0000   1.0000   1.0000   1.0000   1.0000   1.0000
     1.0000   1.0000   1.0000   1.0000   1.0000   1.0000   1.0000   1.0000
     1.0000   1.0000   1.0000   1.0000

          k =-0.1667 0.0962-0.2244 (  3216 PWs)   bands (ev):

    -8.9810  -8.4452  -8.3817  -8.1812   2.9323   2.9954   3.0290   3.1325
     3.6136   3.6910   3.7042   3.7882   3.8792   3.9467   4.2135   4.3252
     5.3785   5.3788   5.4116   5.4810   5.5949   5.6505   5.6842   5.8454
     6.2325   6.5427   7.1978   7.2591   8.0422   8.3638   8.4171   8.7048
     9.0520   9.1926   9.6520   9.6576

     occupation numbers 
     1.0000   1.0000   1.0000   1.0000   1.0000   1.0000   1.0000   1.0000
     1.0000   1.0000   1.0000   1.0000   1.0000   1.0000   1.0000   1.0000
     1.0000   1.0000   1.0000   1.0000   1.0000   1.0000   1.0000   1.0000
     1.0000   1.0000   1.0000   1.0000   1.0000   1.0000   1.0000   1.0000
     1.0000   1.0000   1.0000   1.0000

          k =-0.1667 0.1925-0.1122 (  3195 PWs)   bands (ev):

    -9.0466  -8.6527  -8.2049  -8.1217   3.0562   3.1190   3.2702   3.2780
     3.6720   3.8175   3.8386   3.8507   3.9455   4.0523   4.1755   4.3814
     5.2125   5.2138   5.2756   5.3835   5.6593   5.6817   5.7772   5.8770
     6.3374   6.5284   7.0544   7.3457   7.4497   7.8931   8.2986   8.5919
     8.7872   9.2338   9.6131   9.6877

     occupation numbers 
     1.0000   1.0000   1.0000   1.0000   1.0000   1.0000   1.0000   1.0000
     1.0000   1.0000   1.0000   1.0000   1.0000   1.0000   1.0000   1.0000
     1.0000   1.0000   1.0000   1.0000   1.0000   1.0000   1.0000   1.0000
     1.0000   1.0000   1.0000   1.0000   1.0000   1.0000   1.0000   1.0000
     1.0000   1.0000   1.0000   1.0000

          k =-0.1667 0.1925-0.2244 (  3211 PWs)   bands (ev):

    -8.8682  -8.5295  -8.3807  -8.2212   2.9018   2.9682   2.9719   3.0279
     3.6816   3.7465   3.8018   3.8246   3.8788   3.9018   4.0690   4.2182
     5.3758   5.3814   5.4080   5.4508   5.5968   5.6282   5.6887   5.7924
     6.6259   7.0451   7.2298   7.6078   8.0350   8.0971   8.3659   8.5394
     8.7209   9.3482   9.3780   9.5738

     occupation numbers 
     1.0000   1.0000   1.0000   1.0000   1.0000   1.0000   1.0000   1.0000
     1.0000   1.0000   1.0000   1.0000   1.0000   1.0000   1.0000   1.0000
     1.0000   1.0000   1.0000   1.0000   1.0000   1.0000   1.0000   1.0000
     1.0000   1.0000   1.0000   1.0000   1.0000   1.0000   1.0000   1.0000
     1.0000   1.0000   1.0000   1.0000

          k =-0.3333 0.1925-0.1122 (  3201 PWs)   bands (ev):

    -8.7412  -8.4698  -8.1334  -8.1248   2.9262   3.1259   3.2089   3.2899
     3.8640   3.8751   3.9577   3.9944   4.1523   4.3186   4.3698   4.5376
     5.1929   5.2685   5.3448   5.4523   5.6759   5.6847   5.8354   5.8615
     6.0386   6.4004   6.5912   6.8470   7.0043   7.5958   7.6092   7.8758
     8.4403   8.9551   9.2239   9.3290

     occupation numbers 
     1.0000   1.0000   1.0000   1.0000   1.0000   1.0000   1.0000   1.0000
     1.0000   1.0000   1.0000   1.0000   1.0000   1.0000   1.0000   1.0000
     1.0000   1.0000   1.0000   1.0000   1.0000   1.0000   1.0000   1.0000
     1.0000   1.0000   1.0000   1.0000   1.0000   1.0000   1.0000   1.0000
     1.0000   1.0000   1.0000   1.0000

          k =-0.3333 0.1925-0.2244 (  3195 PWs)   bands (ev):

    -8.6039  -8.3817  -8.2511  -8.1812   2.7868   2.9049   2.9323   2.9954
     3.8791   3.9050   3.9088   3.9467   4.0659   4.0873   4.2134   4.3252
     5.4093   5.4117   5.4161   5.4811   5.6033   5.6842   5.7546   5.8454
     6.2325   6.5427   6.6921   7.1124   7.1977   8.0421   8.1004   8.1908
     8.4171   8.9630   9.1926   9.3668

     occupation numbers 
     1.0000   1.0000   1.0000   1.0000   1.0000   1.0000   1.0000   1.0000
     1.0000   1.0000   1.0000   1.0000   1.0000   1.0000   1.0000   1.0000
     1.0000   1.0000   1.0000   1.0000   1.0000   1.0000   1.0000   1.0000
     1.0000   1.0000   1.0000   1.0000   1.0000   1.0000   1.0000   1.0000
     1.0000   1.0000   1.0000   1.0000

          k =-0.3333-0.0962-0.1122 (  3198 PWs)   bands (ev):

    -8.8294  -8.3350  -8.1578  -8.1483   2.9956   3.2506   3.3783   3.4622
     3.7865   3.7898   3.9312   3.9681   4.0469   4.2273   4.4800   4.5964
     5.1918   5.2522   5.3161   5.4193   5.6132   5.6719   5.7212   5.8307
     6.1017   6.2661   6.5249   6.5624   7.2244   7.8009   7.8046   7.9697
     8.0358   8.6473   9.2561   9.4491

     occupation numbers 
     1.0000   1.0000   1.0000   1.0000   1.0000   1.0000   1.0000   1.0000
     1.0000   1.0000   1.0000   1.0000   1.0000   1.0000   1.0000   1.0000
     1.0000   1.0000   1.0000   1.0000   1.0000   1.0000   1.0000   1.0000
     1.0000   1.0000   1.0000   1.0000   1.0000   1.0000   1.0000   1.0000
     1.0000   1.0000   1.0000   1.0000

          k =-0.3333-0.0962-0.2244 (  3197 PWs)   bands (ev):

    -8.6790  -8.2839  -8.2801  -8.1770   2.8593   2.9490   3.1387   3.1605
     3.7851   3.7955   3.8706   3.8980   3.9542   4.0656   4.3193   4.3797
     5.3037   5.3922   5.4024   5.4026   5.6036   5.7429   5.7994   5.9370
     6.2094   6.3714   6.6674   6.9335   7.4189   7.5548   8.0905   8.2538
     8.5902   8.9939   9.0225   9.4431

     occupation numbers 
     1.0000   1.0000   1.0000   1.0000   1.0000   1.0000   1.0000   1.0000
     1.0000   1.0000   1.0000   1.0000   1.0000   1.0000   1.0000   1.0000
     1.0000   1.0000   1.0000   1.0000   1.0000   1.0000   1.0000   1.0000
     1.0000   1.0000   1.0000   1.0000   1.0000   1.0000   1.0000   1.0000
     1.0000   1.0000   1.0000   1.0000

          k = 0.5000-0.1925-0.1122 (  3204 PWs)   bands (ev):

    -8.4617  -8.4617  -8.1292  -8.1291   3.0111   3.0111   3.1236   3.1236
     3.9486   3.9486   4.0299   4.0299   4.4121   4.4121   4.5897   4.5897
     5.3739   5.3739   5.4646   5.4646   5.6842   5.6842   5.7576   5.7576
     5.9940   5.9940   6.4183   6.4183   7.1017   7.1017   7.5706   7.5706
     8.7050   8.7050   8.9763   8.9763

     occupation numbers 
     1.0000   1.0000   1.0000   1.0000   1.0000   1.0000   1.0000   1.0000
     1.0000   1.0000   1.0000   1.0000   1.0000   1.0000   1.0000   1.0000
     1.0000   1.0000   1.0000   1.0000   1.0000   1.0000   1.0000   1.0000
     1.0000   1.0000   1.0000   1.0000   1.0000   1.0000   1.0000   1.0000
     1.0000   1.0000   1.0000   1.0000

          k = 0.5000-0.1925-0.2244 (  3200 PWs)   bands (ev):

    -8.3760  -8.3760  -8.1826  -8.1826   2.8023   2.8023   2.8714   2.8714
     3.9852   3.9852   4.0190   4.0190   4.2706   4.2706   4.3117   4.3117
     5.4783   5.4783   5.5135   5.5135   5.6588   5.6588   5.7683   5.7683
     6.1308   6.1308   6.3302   6.3302   7.5341   7.5341   8.3053   8.3053
     8.4338   8.4338   9.1830   9.1830

     occupation numbers 
     1.0000   1.0000   1.0000   1.0000   1.0000   1.0000   1.0000   1.0000
     1.0000   1.0000   1.0000   1.0000   1.0000   1.0000   1.0000   1.0000
     1.0000   1.0000   1.0000   1.0000   1.0000   1.0000   1.0000   1.0000
     1.0000   1.0000   1.0000   1.0000   1.0000   1.0000   1.0000   1.0000
     1.0000   1.0000   1.0000   1.0000

          k = 0.5000-0.0962-0.1122 (  3202 PWs)   bands (ev):

    -8.4698  -8.4698  -8.1248  -8.1248   3.1260   3.1260   3.2899   3.2899
     3.8640   3.8640   3.9944   3.9944   4.3699   4.3699   4.5375   4.5375
     5.2684   5.2684   5.4523   5.4523   5.6847   5.6847   5.8615   5.8615
     6.0386   6.0386   6.5912   6.5912   6.8470   6.8470   7.5958   7.5959
     8.4403   8.4403   8.9550   8.9551

     occupation numbers 
     1.0000   1.0000   1.0000   1.0000   1.0000   1.0000   1.0000   1.0000
     1.0000   1.0000   1.0000   1.0000   1.0000   1.0000   1.0000   1.0000
     1.0000   1.0000   1.0000   1.0000   1.0000   1.0000   1.0000   1.0000
     1.0000   1.0000   1.0000   1.0000   1.0000   1.0000   1.0000   1.0000
     1.0000   1.0000   1.0000   1.0000

          k = 0.5000-0.0962-0.2244 (  3198 PWs)   bands (ev):

    -8.3817  -8.3817  -8.1812  -8.1812   2.9323   2.9323   2.9955   2.9955
     3.8791   3.8791   3.9467   3.9467   4.2134   4.2135   4.3251   4.3252
     5.4117   5.4117   5.4811   5.4811   5.6842   5.6842   5.8455   5.8455
     6.2325   6.2325   6.5427   6.5427   7.1977   7.1977   8.0421   8.0421
     8.4171   8.4171   9.1926   9.1926

     occupation numbers 
     1.0000   1.0000   1.0000   1.0000   1.0000   1.0000   1.0000   1.0000
     1.0000   1.0000   1.0000   1.0000   1.0000   1.0000   1.0000   1.0000
     1.0000   1.0000   1.0000   1.0000   1.0000   1.0000   1.0000   1.0000
     1.0000   1.0000   1.0000   1.0000   1.0000   1.0000   1.0000   1.0000
     1.0000   1.0000   1.0000   1.0000

     highest occupied level (ev):    10.2275

!    total energy              =    -723.10924084 Ry
     estimated scf accuracy    <          5.7E-09 Ry

     The total energy is the sum of the following terms:
     one-electron contribution =    -260.61683449 Ry
     hartree contribution      =     219.87739209 Ry
     xc contribution           =    -220.03283965 Ry
     ewald contribution        =    -462.33695880 Ry

     convergence has been achieved in  25 iterations

     Forces acting on atoms (cartesian axes, Ry/au):

     atom    1 type  1   force =     0.00000000    0.00000709    0.01721939
     atom    2 type  2   force =     0.00000000    0.00000644   -0.01722041
     atom    3 type  1   force =     0.00000000   -0.00000720    0.01721945
     atom    4 type  2   force =     0.00000000   -0.00000762   -0.01722037
     atom    5 type  1   force =     0.00000000    0.00000238    0.01722101
     atom    6 type  2   force =     0.00000000    0.00000918   -0.01722091
     atom    7 type  1   force =     0.00000000   -0.00000280    0.01722115
     atom    8 type  2   force =     0.00000000   -0.00000746   -0.01721931
     The non-local contrib.  to forces
     atom    1 type  1   force =     0.00000000   -0.00003080    0.13619439
     atom    2 type  2   force =     0.00000000    0.00017053    0.09736824
     atom    3 type  1   force =     0.00000000    0.00003137    0.13619441
     atom    4 type  2   force =     0.00000000   -0.00017184    0.09736797
     atom    5 type  1   force =     0.00000000   -0.00003303    0.13619648
     atom    6 type  2   force =     0.00000000    0.00017110    0.09736785
     atom    7 type  1   force =     0.00000000    0.00003194    0.13619507
     atom    8 type  2   force =     0.00000000   -0.00017042    0.09736904
     The ionic contribution  to forces
     atom    1 type  1   force =    -0.00000000   -0.00000000    0.93141675
     atom    2 type  2   force =    -0.00000000    0.00000000   -0.93141675
     atom    3 type  1   force =     0.00000000    0.00000000    0.93141675
     atom    4 type  2   force =     0.00000000   -0.00000000   -0.93141675
     atom    5 type  1   force =     0.00000000   -0.00000000    0.93141675
     atom    6 type  2   force =    -0.00000000    0.00000000   -0.93141675
     atom    7 type  1   force =     0.00000000    0.00000000    0.93141675
     atom    8 type  2   force =     0.00000000   -0.00000000   -0.93141675
     The local contribution  to forces
     atom    1 type  1   force =     0.00000000    0.00004000   -1.03908846
     atom    2 type  2   force =     0.00000000   -0.00016226    0.81749232
     atom    3 type  1   force =    -0.00000000   -0.00004123   -1.03908720
     atom    4 type  2   force =    -0.00000000    0.00016078    0.81749289
     atom    5 type  1   force =    -0.00000000    0.00004583   -1.03909193
     atom    6 type  2   force =    -0.00000000   -0.00016006    0.81749320
     atom    7 type  1   force =    -0.00000000   -0.00004346   -1.03908890
     atom    8 type  2   force =     0.00000000    0.00016206    0.81749369
     The core correction contribution to forces
     atom    1 type  1   force =    -0.00000001   -0.00000535   -0.01130709
     atom    2 type  2   force =     0.00000000   -0.00000192   -0.00066331
     atom    3 type  1   force =     0.00000007    0.00000528   -0.01130719
     atom    4 type  2   force =    -0.00000001    0.00000192   -0.00066331
     atom    5 type  1   force =    -0.00000007   -0.00000503   -0.01130723
     atom    6 type  2   force =    -0.00000001   -0.00000194   -0.00066332
     atom    7 type  1   force =    -0.00000023    0.00000500   -0.01130732
     atom    8 type  2   force =    -0.00000000    0.00000193   -0.00066333
     The Hubbard contrib.    to forces
     atom    1 type  1   force =     0.00000000    0.00000000    0.00000000
     atom    2 type  2   force =     0.00000000    0.00000000    0.00000000
     atom    3 type  1   force =     0.00000000    0.00000000    0.00000000
     atom    4 type  2   force =     0.00000000    0.00000000    0.00000000
     atom    5 type  1   force =     0.00000000    0.00000000    0.00000000
     atom    6 type  2   force =     0.00000000    0.00000000    0.00000000
     atom    7 type  1   force =     0.00000000    0.00000000    0.00000000
     atom    8 type  2   force =     0.00000000    0.00000000    0.00000000
     The SCF correction term to forces
     atom    1 type  1   force =    -0.00000000    0.00000303    0.00000429
     atom    2 type  2   force =     0.00000000   -0.00000013   -0.00000043
     atom    3 type  1   force =    -0.00000000   -0.00000284    0.00000319
     atom    4 type  2   force =     0.00000000    0.00000131   -0.00000069
     atom    5 type  1   force =     0.00000000   -0.00000560    0.00000743
     atom    6 type  2   force =     0.00000000   -0.00000014   -0.00000141
     atom    7 type  1   force =     0.00000000    0.00000351    0.00000604
     atom    8 type  2   force =     0.00000000   -0.00000123   -0.00000148

     Total force =     0.048706     Total SCF correction =     0.000014

     init_run     :      5.89s CPU      6.19s WALL (       1 calls)
     electrons    :    370.44s CPU    385.99s WALL (       1 calls)
     forces       :      1.57s CPU      1.59s WALL (       1 calls)

     Called by init_run:
     wfcinit      :      4.01s CPU      4.25s WALL (       1 calls)
     wfcinit:atom :      0.05s CPU      0.05s WALL (      40 calls)
     wfcinit:wfcr :      3.71s CPU      3.94s WALL (      40 calls)
     potinit      :      0.59s CPU      0.60s WALL (       1 calls)
     hinit0       :      0.91s CPU      0.93s WALL (       1 calls)

     Called by electrons:
     c_bands      :    334.41s CPU    348.11s WALL (      25 calls)
     sum_band     :     32.29s CPU     34.05s WALL (      25 calls)
     v_of_rho     :      1.28s CPU      1.33s WALL (      26 calls)
     v_h          :      0.07s CPU      0.08s WALL (      26 calls)
     v_xc         :      1.25s CPU      1.30s WALL (      27 calls)
     newd         :      2.27s CPU      2.31s WALL (      26 calls)
     mix_rho      :      0.20s CPU      0.21s WALL (      25 calls)

     Called by c_bands:
     init_us_2    :      2.12s CPU      2.16s WALL (    2080 calls)
     init_us_2:cp :      2.11s CPU      2.15s WALL (    2080 calls)
     cegterg      :    308.17s CPU    321.80s WALL (    1000 calls)

     Called by sum_band:
     sum_band:wei :      0.00s CPU      0.00s WALL (      25 calls)
     sum_band:loo :     28.68s CPU     30.36s WALL (      25 calls)
     sum_band:buf :      0.16s CPU      0.16s WALL (    1000 calls)
     sum_band:ini :      1.01s CPU      1.03s WALL (    1000 calls)
     sum_band:cal :      3.53s CPU      3.64s WALL (    1000 calls)
     sum_band:bec :      0.11s CPU      0.11s WALL (    1000 calls)
     addusdens    :      2.52s CPU      2.57s WALL (      25 calls)
                                        0.00s GPU  (      25 calls)
     addusd:skk   :      0.02s CPU      0.02s WALL (      50 calls)
                                        0.00s GPU  (      50 calls)

     Called by *egterg:
     cdiaghg      :     28.20s CPU     28.26s WALL (    6374 calls)
     cegterg:over :     15.56s CPU     16.01s WALL (    5374 calls)
     cegterg:upda :      9.52s CPU      9.55s WALL (    5374 calls)
     cegterg:last :     23.28s CPU     23.31s WALL (    3864 calls)
     h_psi        :    213.40s CPU    226.56s WALL (    6414 calls)
     s_psi        :     15.76s CPU     15.81s WALL (    6414 calls)
     g_psi        :      0.97s CPU      0.98s WALL (    5374 calls)

     Called by h_psi:
     h_psi:calbec :     14.97s CPU     15.59s WALL (    6414 calls)
     vloc_psi     :    181.76s CPU    194.22s WALL (    6414 calls)
     add_vuspsi   :     16.06s CPU     16.14s WALL (    6414 calls)

     General routines
     calbec       :     19.02s CPU     19.78s WALL (    7574 calls)
     fft          :      0.91s CPU      0.99s WALL (     347 calls)
     ffts         :      0.17s CPU      0.17s WALL (      51 calls)
     fftw         :    176.86s CPU    189.19s WALL (  327246 calls)
     interpolate  :      0.21s CPU      0.22s WALL (      26 calls)

     Parallel routines

     PWSCF        :   6m18.39s CPU   6m34.29s WALL


   This run was terminated on:  14: 4:22  13Jul2025            

=------------------------------------------------------------------------------=
   JOB DONE.
=------------------------------------------------------------------------------=
Note: The following floating-point exceptions are signalling: IEEE_INVALID_FLAG
Note: The following floating-point exceptions are signalling: IEEE_INVALID_FLAG
