Authorization required, but no authorization protocol specified

Authorization required, but no authorization protocol specified

Authorization required, but no authorization protocol specified

Authorization required, but no authorization protocol specified

Authorization required, but no authorization protocol specified

Authorization required, but no authorization protocol specified

Authorization required, but no authorization protocol specified

Authorization required, but no authorization protocol specified

Authorization required, but no authorization protocol specified

Authorization required, but no authorization protocol specified


     Program PWSCF v.7.2 starts on 13Jul2025 at 14:20:50 

     This program is part of the open-source Quantum ESPRESSO suite
     for quantum simulation of materials; please cite
         "P. Giannozzi et al., J. Phys.:Condens. Matter 21 395502 (2009);
         "P. Giannozzi et al., J. Phys.:Condens. Matter 29 465901 (2017);
         "P. Giannozzi et al., J. Chem. Phys. 152 154105 (2020);
          URL http://www.quantum-espresso.org", 
     in publications or presentations arising from this work. More details at
     http://www.quantum-espresso.org/quote

     Parallel version (MPI), running on     8 processors

     MPI processes distributed on     1 nodes
     56392 MiB available memory on the printing compute node when the environment starts

     Reading input from /home/jvc/QEspresso7.2/ZnO_database/scripts/cell121.in/ZnO-3.14-1.61-121.in
Warning: card &CELL ignored
Warning: card / ignored
Warning: card &FCP ignored
Warning: card / ignored
Warning: card &RISM ignored
Warning: card / ignored

     Current dimensions of program PWSCF are:
     Max number of different atomic species (ntypx) = 10
     Max number of k-points (npk) =  40000
     Max angular momentum in pseudopotentials (lmaxx) =  4
     file Zn.upf: wavefunction(s)  3D renormalized
     Found identity + (  0.0000 -0.5000  0.0000) symmetry
     This is a supercell, fractional translations are disabled
     Message from routine setup:
     using ibrav=0 with symmetry is DISCOURAGED, use correct ibrav instead

     K-points division:     npool     =       2
     R & G space division:  proc/nbgrp/npool/nimage =       4
     Subspace diagonalization in iterative solution of the eigenvalue problem:
     a serial algorithm will be used


     Parallelization info
     --------------------
     sticks:   dense  smooth     PW     G-vecs:    dense   smooth      PW
     Min         482     245     74                19722     6973    1238
     Max         483     246     75                19726     6976    1243
     Sum        1929     981    299                78893    27895    4967

     Using Slab Decomposition



     bravais-lattice index     =            0
     lattice parameter (alat)  =       5.9317  a.u.
     unit-cell volume          =     583.5769 (a.u.)^3
     number of atoms/cell      =            8
     number of atomic types    =            2
     number of electrons       =        72.00
     number of Kohn-Sham states=           36
     kinetic-energy cutoff     =      50.0000  Ry
     charge density cutoff     =     400.0000  Ry
     scf convergence threshold =      1.0E-08
     mixing beta               =       0.3000
     number of iterations used =            8  plain     mixing
     Exchange-correlation= PBE
                           (   1   4   3   4   0   0   0)

     celldm(1)=   5.931700  celldm(2)=   0.000000  celldm(3)=   0.000000
     celldm(4)=   0.000000  celldm(5)=   0.000000  celldm(6)=   0.000000

     crystal axes: (cart. coord. in units of alat)
               a(1) = (   1.000000   0.000000   0.000000 )  
               a(2) = (  -1.000000   1.732051   0.000000 )  
               a(3) = (   0.000000   0.000000   1.614358 )  

     reciprocal axes: (cart. coord. in units 2 pi/alat)
               b(1) = (  1.000000  0.577350 -0.000000 )  
               b(2) = (  0.000000  0.577350  0.000000 )  
               b(3) = (  0.000000 -0.000000  0.619441 )  


     PseudoPot. # 1 for Zn read from file:
     /home/jvc/QEspresso7.2/ZnO_database/pseudos/Zn.upf
     MD5 check sum: 7f56cabf9682ed8c977c2f7d0c5985c5
     Pseudo is Ultrasoft + core correction, Zval = 12.0
     Generated using &quot;atomic&quot; code by A. Dal Corso  v.6.2.2
     Using radial grid of 1201 points,  6 beta functions with: 
                l(1) =   0
                l(2) =   0
                l(3) =   1
                l(4) =   1
                l(5) =   2
                l(6) =   2
     Q(r) pseudized with 0 coefficients 


     PseudoPot. # 2 for O  read from file:
     /home/jvc/QEspresso7.2/ZnO_database/pseudos/O.upf
     MD5 check sum: 91400c9766925bcf19f520983a725ff0
     Pseudo is Ultrasoft + core correction, Zval =  6.0
     Generated using &quot;atomic&quot; code by A. Dal Corso  v.6.3MaX
     Using radial grid of 1095 points,  4 beta functions with: 
                l(1) =   0
                l(2) =   0
                l(3) =   1
                l(4) =   1
     Q(r) pseudized with 0 coefficients 


     atomic species   valence    mass     pseudopotential
        Zn            12.00    65.38000     Zn( 1.00)
        O              6.00    15.99900     O ( 1.00)

      2 Sym. Ops. (no inversion) found


                                    s                        frac. trans.

      isym =  1     identity                                     

 cryst.   s( 1) = (     1          0          0      )
                  (     0          1          0      )
                  (     0          0          1      )

 cart.    s( 1) = (  1.0000000  0.0000000  0.0000000 )
                  (  0.0000000  1.0000000  0.0000000 )
                  (  0.0000000  0.0000000  1.0000000 )


      isym =  2     inv. 180 deg rotation - cart. axis [1,0,0]   

 cryst.   s( 2) = (    -1          0          0      )
                  (     2          1          0      )
                  (     0          0          1      )

 cart.    s( 2) = ( -1.0000000  0.0000000  0.0000000 )
                  (  0.0000000  1.0000000  0.0000000 )
                  (  0.0000000  0.0000000  1.0000000 )


   Cartesian axes

     site n.     atom                  positions (alat units)
         1           Zn  tau(   1) = (   0.0000000   0.0000000   0.0000000  )
         2           O   tau(   2) = (   0.0000000   0.5773503   0.1971092  )
         3           Zn  tau(   3) = (   0.0000000   0.5773503   0.8071792  )
         4           O   tau(   4) = (   0.0000000   0.0000000   1.0042884  )
         5           Zn  tau(   5) = (  -0.5000000   0.8660254   0.0000000  )
         6           O   tau(   6) = (  -0.5000000   1.4433757   0.1971092  )
         7           Zn  tau(   7) = (  -0.5000000   1.4433757   0.8071792  )
         8           O   tau(   8) = (  -0.5000000   0.8660254   1.0042884  )

   Crystallographic axes

     site n.     atom                  positions (cryst. coord.)
         1           Zn  tau(   1) = (  0.0000000  0.0000000  0.0000000  )
         2           O   tau(   2) = (  0.3333333  0.3333333  0.1220976  )
         3           Zn  tau(   3) = (  0.3333333  0.3333333  0.5000000  )
         4           O   tau(   4) = (  0.0000000  0.0000000  0.6220976  )
         5           Zn  tau(   5) = (  0.0000000  0.5000000  0.0000000  )
         6           O   tau(   6) = (  0.3333333  0.8333333  0.1220976  )
         7           Zn  tau(   7) = (  0.3333333  0.8333333  0.5000000  )
         8           O   tau(   8) = (  0.0000000  0.5000000  0.6220976  )

     number of k points=    80
                       cart. coord. in units 2pi/alat
        k(    1) = (   0.0000000   0.0000000   0.0000000), wk =   0.0092593
        k(    2) = (   0.0000000   0.0000000   0.1032402), wk =   0.0185185
        k(    3) = (   0.0000000   0.0000000   0.2064804), wk =   0.0185185
        k(    4) = (   0.0000000   0.0000000  -0.3097206), wk =   0.0092593
        k(    5) = (   0.0000000   0.0962250   0.0000000), wk =   0.0185185
        k(    6) = (   0.0000000   0.0962250   0.1032402), wk =   0.0185185
        k(    7) = (   0.0000000   0.0962250   0.2064804), wk =   0.0185185
        k(    8) = (   0.0000000   0.0962250  -0.3097206), wk =   0.0185185
        k(    9) = (   0.0000000   0.1924501   0.0000000), wk =   0.0185185
        k(   10) = (   0.0000000   0.1924501   0.1032402), wk =   0.0185185
        k(   11) = (   0.0000000   0.1924501   0.2064804), wk =   0.0185185
        k(   12) = (   0.0000000   0.1924501  -0.3097206), wk =   0.0185185
        k(   13) = (   0.0000000  -0.2886751   0.0000000), wk =   0.0092593
        k(   14) = (   0.0000000  -0.2886751   0.1032402), wk =   0.0185185
        k(   15) = (   0.0000000  -0.2886751   0.2064804), wk =   0.0185185
        k(   16) = (   0.0000000  -0.2886751  -0.3097206), wk =   0.0092593
        k(   17) = (   0.1666667   0.0962250   0.0000000), wk =   0.0370370
        k(   18) = (   0.1666667   0.0962250   0.1032402), wk =   0.0370370
        k(   19) = (   0.1666667   0.0962250   0.2064804), wk =   0.0370370
        k(   20) = (   0.1666667   0.0962250  -0.3097206), wk =   0.0370370
        k(   21) = (   0.1666667   0.1924501   0.0000000), wk =   0.0370370
        k(   22) = (   0.1666667   0.1924501   0.1032402), wk =   0.0370370
        k(   23) = (   0.1666667   0.1924501   0.2064804), wk =   0.0370370
        k(   24) = (   0.1666667   0.1924501  -0.3097206), wk =   0.0370370
        k(   25) = (   0.1666667   0.2886751   0.0000000), wk =   0.0185185
        k(   26) = (   0.1666667   0.2886751   0.1032402), wk =   0.0370370
        k(   27) = (   0.1666667   0.2886751   0.2064804), wk =   0.0370370
        k(   28) = (   0.1666667   0.2886751  -0.3097206), wk =   0.0185185
        k(   29) = (   0.1666667   0.0000000   0.0000000), wk =   0.0185185
        k(   30) = (   0.1666667   0.0000000   0.1032402), wk =   0.0370370
        k(   31) = (   0.1666667   0.0000000   0.2064804), wk =   0.0370370
        k(   32) = (   0.1666667   0.0000000  -0.3097206), wk =   0.0185185
        k(   33) = (   0.3333333   0.1924501   0.0000000), wk =   0.0370370
        k(   34) = (   0.3333333   0.1924501   0.1032402), wk =   0.0370370
        k(   35) = (   0.3333333   0.1924501   0.2064804), wk =   0.0370370
        k(   36) = (   0.3333333   0.1924501  -0.3097206), wk =   0.0370370
        k(   37) = (   0.3333333   0.2886751   0.0000000), wk =   0.0185185
        k(   38) = (   0.3333333   0.2886751   0.1032402), wk =   0.0370370
        k(   39) = (   0.3333333   0.2886751   0.2064804), wk =   0.0370370
        k(   40) = (   0.3333333   0.2886751  -0.3097206), wk =   0.0185185
        k(   41) = (   0.3333333  -0.0962250   0.0000000), wk =   0.0370370
        k(   42) = (   0.3333333  -0.0962250   0.1032402), wk =   0.0370370
        k(   43) = (   0.3333333  -0.0962250   0.2064804), wk =   0.0370370
        k(   44) = (   0.3333333  -0.0962250  -0.3097206), wk =   0.0370370
        k(   45) = (   0.3333333  -0.0000000   0.0000000), wk =   0.0185185
        k(   46) = (   0.3333333  -0.0000000   0.1032402), wk =   0.0370370
        k(   47) = (   0.3333333  -0.0000000   0.2064804), wk =   0.0370370
        k(   48) = (   0.3333333  -0.0000000  -0.3097206), wk =   0.0185185
        k(   49) = (  -0.5000000  -0.2886751   0.0000000), wk =   0.0092593
        k(   50) = (  -0.5000000  -0.2886751   0.1032402), wk =   0.0185185
        k(   51) = (  -0.5000000  -0.2886751   0.2064804), wk =   0.0185185
        k(   52) = (  -0.5000000  -0.2886751  -0.3097206), wk =   0.0092593
        k(   53) = (  -0.5000000  -0.1924501   0.0000000), wk =   0.0185185
        k(   54) = (  -0.5000000  -0.1924501   0.1032402), wk =   0.0185185
        k(   55) = (  -0.5000000  -0.1924501   0.2064804), wk =   0.0185185
        k(   56) = (  -0.5000000  -0.1924501  -0.3097206), wk =   0.0185185
        k(   57) = (  -0.5000000  -0.0962250   0.0000000), wk =   0.0185185
        k(   58) = (  -0.5000000  -0.0962250   0.1032402), wk =   0.0185185
        k(   59) = (  -0.5000000  -0.0962250   0.2064804), wk =   0.0185185
        k(   60) = (  -0.5000000  -0.0962250  -0.3097206), wk =   0.0185185
        k(   61) = (  -0.5000000  -0.5773503   0.0000000), wk =   0.0092593
        k(   62) = (  -0.5000000  -0.5773503   0.1032402), wk =   0.0185185
        k(   63) = (  -0.5000000  -0.5773503   0.2064804), wk =   0.0185185
        k(   64) = (  -0.5000000  -0.5773503  -0.3097206), wk =   0.0092593
        k(   65) = (   0.0000000   0.0962250  -0.1032402), wk =   0.0185185
        k(   66) = (   0.0000000   0.0962250  -0.2064804), wk =   0.0185185
        k(   67) = (   0.0000000   0.1924501  -0.1032402), wk =   0.0185185
        k(   68) = (   0.0000000   0.1924501  -0.2064804), wk =   0.0185185
        k(   69) = (  -0.1666667   0.0962250  -0.1032402), wk =   0.0370370
        k(   70) = (  -0.1666667   0.0962250  -0.2064804), wk =   0.0370370
        k(   71) = (  -0.1666667   0.1924501  -0.1032402), wk =   0.0370370
        k(   72) = (  -0.1666667   0.1924501  -0.2064804), wk =   0.0370370
        k(   73) = (  -0.3333333   0.1924501  -0.1032402), wk =   0.0370370
        k(   74) = (  -0.3333333   0.1924501  -0.2064804), wk =   0.0370370
        k(   75) = (  -0.3333333  -0.0962250  -0.1032402), wk =   0.0370370
        k(   76) = (  -0.3333333  -0.0962250  -0.2064804), wk =   0.0370370
        k(   77) = (   0.5000000  -0.1924501  -0.1032402), wk =   0.0185185
        k(   78) = (   0.5000000  -0.1924501  -0.2064804), wk =   0.0185185
        k(   79) = (   0.5000000  -0.0962250  -0.1032402), wk =   0.0185185
        k(   80) = (   0.5000000  -0.0962250  -0.2064804), wk =   0.0185185

                       cryst. coord.
        k(    1) = (   0.0000000   0.0000000   0.0000000), wk =   0.0092593
        k(    2) = (   0.0000000   0.0000000   0.1666667), wk =   0.0185185
        k(    3) = (   0.0000000   0.0000000   0.3333333), wk =   0.0185185
        k(    4) = (   0.0000000   0.0000000  -0.5000000), wk =   0.0092593
        k(    5) = (   0.0000000   0.1666667   0.0000000), wk =   0.0185185
        k(    6) = (   0.0000000   0.1666667   0.1666667), wk =   0.0185185
        k(    7) = (   0.0000000   0.1666667   0.3333333), wk =   0.0185185
        k(    8) = (   0.0000000   0.1666667  -0.5000000), wk =   0.0185185
        k(    9) = (   0.0000000   0.3333333   0.0000000), wk =   0.0185185
        k(   10) = (   0.0000000   0.3333333   0.1666667), wk =   0.0185185
        k(   11) = (   0.0000000   0.3333333   0.3333333), wk =   0.0185185
        k(   12) = (   0.0000000   0.3333333  -0.5000000), wk =   0.0185185
        k(   13) = (   0.0000000  -0.5000000   0.0000000), wk =   0.0092593
        k(   14) = (   0.0000000  -0.5000000   0.1666667), wk =   0.0185185
        k(   15) = (   0.0000000  -0.5000000   0.3333333), wk =   0.0185185
        k(   16) = (   0.0000000  -0.5000000  -0.5000000), wk =   0.0092593
        k(   17) = (   0.1666667  -0.0000000   0.0000000), wk =   0.0370370
        k(   18) = (   0.1666667  -0.0000000   0.1666667), wk =   0.0370370
        k(   19) = (   0.1666667  -0.0000000   0.3333333), wk =   0.0370370
        k(   20) = (   0.1666667  -0.0000000  -0.5000000), wk =   0.0370370
        k(   21) = (   0.1666667   0.1666667   0.0000000), wk =   0.0370370
        k(   22) = (   0.1666667   0.1666667   0.1666667), wk =   0.0370370
        k(   23) = (   0.1666667   0.1666667   0.3333333), wk =   0.0370370
        k(   24) = (   0.1666667   0.1666667  -0.5000000), wk =   0.0370370
        k(   25) = (   0.1666667   0.3333333   0.0000000), wk =   0.0185185
        k(   26) = (   0.1666667   0.3333333   0.1666667), wk =   0.0370370
        k(   27) = (   0.1666667   0.3333333   0.3333333), wk =   0.0370370
        k(   28) = (   0.1666667   0.3333333  -0.5000000), wk =   0.0185185
        k(   29) = (   0.1666667  -0.1666667   0.0000000), wk =   0.0185185
        k(   30) = (   0.1666667  -0.1666667   0.1666667), wk =   0.0370370
        k(   31) = (   0.1666667  -0.1666667   0.3333333), wk =   0.0370370
        k(   32) = (   0.1666667  -0.1666667  -0.5000000), wk =   0.0185185
        k(   33) = (   0.3333333  -0.0000000   0.0000000), wk =   0.0370370
        k(   34) = (   0.3333333  -0.0000000   0.1666667), wk =   0.0370370
        k(   35) = (   0.3333333  -0.0000000   0.3333333), wk =   0.0370370
        k(   36) = (   0.3333333  -0.0000000  -0.5000000), wk =   0.0370370
        k(   37) = (   0.3333333   0.1666667   0.0000000), wk =   0.0185185
        k(   38) = (   0.3333333   0.1666667   0.1666667), wk =   0.0370370
        k(   39) = (   0.3333333   0.1666667   0.3333333), wk =   0.0370370
        k(   40) = (   0.3333333   0.1666667  -0.5000000), wk =   0.0185185
        k(   41) = (   0.3333333  -0.5000000   0.0000000), wk =   0.0370370
        k(   42) = (   0.3333333  -0.5000000   0.1666667), wk =   0.0370370
        k(   43) = (   0.3333333  -0.5000000   0.3333333), wk =   0.0370370
        k(   44) = (   0.3333333  -0.5000000  -0.5000000), wk =   0.0370370
        k(   45) = (   0.3333333  -0.3333333   0.0000000), wk =   0.0185185
        k(   46) = (   0.3333333  -0.3333333   0.1666667), wk =   0.0370370
        k(   47) = (   0.3333333  -0.3333333   0.3333333), wk =   0.0370370
        k(   48) = (   0.3333333  -0.3333333  -0.5000000), wk =   0.0185185
        k(   49) = (  -0.5000000   0.0000000   0.0000000), wk =   0.0092593
        k(   50) = (  -0.5000000   0.0000000   0.1666667), wk =   0.0185185
        k(   51) = (  -0.5000000   0.0000000   0.3333333), wk =   0.0185185
        k(   52) = (  -0.5000000   0.0000000  -0.5000000), wk =   0.0092593
        k(   53) = (  -0.5000000   0.1666667   0.0000000), wk =   0.0185185
        k(   54) = (  -0.5000000   0.1666667   0.1666667), wk =   0.0185185
        k(   55) = (  -0.5000000   0.1666667   0.3333333), wk =   0.0185185
        k(   56) = (  -0.5000000   0.1666667  -0.5000000), wk =   0.0185185
        k(   57) = (  -0.5000000   0.3333333   0.0000000), wk =   0.0185185
        k(   58) = (  -0.5000000   0.3333333   0.1666667), wk =   0.0185185
        k(   59) = (  -0.5000000   0.3333333   0.3333333), wk =   0.0185185
        k(   60) = (  -0.5000000   0.3333333  -0.5000000), wk =   0.0185185
        k(   61) = (  -0.5000000  -0.5000000   0.0000000), wk =   0.0092593
        k(   62) = (  -0.5000000  -0.5000000   0.1666667), wk =   0.0185185
        k(   63) = (  -0.5000000  -0.5000000   0.3333333), wk =   0.0185185
        k(   64) = (  -0.5000000  -0.5000000  -0.5000000), wk =   0.0092593
        k(   65) = (   0.0000000   0.1666667  -0.1666667), wk =   0.0185185
        k(   66) = (   0.0000000   0.1666667  -0.3333333), wk =   0.0185185
        k(   67) = (   0.0000000   0.3333333  -0.1666667), wk =   0.0185185
        k(   68) = (   0.0000000   0.3333333  -0.3333333), wk =   0.0185185
        k(   69) = (  -0.1666667   0.3333333  -0.1666667), wk =   0.0370370
        k(   70) = (  -0.1666667   0.3333333  -0.3333333), wk =   0.0370370
        k(   71) = (  -0.1666667   0.5000000  -0.1666667), wk =   0.0370370
        k(   72) = (  -0.1666667   0.5000000  -0.3333333), wk =   0.0370370
        k(   73) = (  -0.3333333   0.6666667  -0.1666667), wk =   0.0370370
        k(   74) = (  -0.3333333   0.6666667  -0.3333333), wk =   0.0370370
        k(   75) = (  -0.3333333   0.1666667  -0.1666667), wk =   0.0370370
        k(   76) = (  -0.3333333   0.1666667  -0.3333333), wk =   0.0370370
        k(   77) = (   0.5000000  -0.8333333  -0.1666667), wk =   0.0185185
        k(   78) = (   0.5000000  -0.8333333  -0.3333333), wk =   0.0185185
        k(   79) = (   0.5000000  -0.6666667  -0.1666667), wk =   0.0185185
        k(   80) = (   0.5000000  -0.6666667  -0.3333333), wk =   0.0185185

     Dense  grid:    78893 G-vectors     FFT dimensions: (  40,  75,  64)

     Smooth grid:    27895 G-vectors     FFT dimensions: (  27,  54,  45)

     Dynamical RAM for                 wfc:       0.48 MB

     Dynamical RAM for     wfc (w. buffer):      19.62 MB

     Dynamical RAM for           str. fact:       0.60 MB

     Dynamical RAM for           local pot:       0.00 MB

     Dynamical RAM for          nlocal pot:       1.38 MB

     Dynamical RAM for                qrad:       3.21 MB

     Dynamical RAM for          rho,v,vnew:       2.00 MB

     Dynamical RAM for               rhoin:       0.67 MB

     Dynamical RAM for            rho*nmix:       4.82 MB

     Dynamical RAM for           G-vectors:       1.18 MB

     Dynamical RAM for          h,s,v(r/c):       0.24 MB

     Dynamical RAM for          <psi|beta>:       0.06 MB

     Dynamical RAM for                 psi:       0.96 MB

     Dynamical RAM for                hpsi:       0.96 MB

     Dynamical RAM for                spsi:       0.96 MB

     Dynamical RAM for      wfcinit/wfcrot:       1.44 MB

     Dynamical RAM for           addusdens:      28.75 MB

     Dynamical RAM for          addusforce:      29.66 MB

     Estimated static dynamical RAM per process >      31.40 MB

     Estimated max dynamical RAM per process >      65.88 MB

     Estimated total dynamical RAM >     507.74 MB

     Check: negative core charge=   -0.000002

     Initial potential from superposition of free atoms

     starting charge      71.9851, renormalised to      72.0000
     Starting wfcs are   52 randomized atomic wfcs

     total cpu time spent up to now is        7.5 secs

     Self-consistent Calculation

     iteration #  1     ecut=    50.00 Ry     beta= 0.30
     Davidson diagonalization with overlap

---- Real-time Memory Report at c_bands before calling an iterative solver
            73 MiB given to the printing process from OS
             0 MiB allocation reported by mallinfo(arena+hblkhd)
         55974 MiB available memory on the node where the printing process lives
------------------
     ethr =  1.00E-02,  avg # of iterations =  2.0

     total cpu time spent up to now is       17.0 secs

     total energy              =    -722.92860330 Ry
     estimated scf accuracy    <       1.34345755 Ry

     iteration #  2     ecut=    50.00 Ry     beta= 0.30
     Davidson diagonalization with overlap

---- Real-time Memory Report at c_bands before calling an iterative solver
            99 MiB given to the printing process from OS
             0 MiB allocation reported by mallinfo(arena+hblkhd)
         55820 MiB available memory on the node where the printing process lives
------------------
     ethr =  1.87E-03,  avg # of iterations =  2.0

     total cpu time spent up to now is       28.4 secs

     total energy              =    -723.06740916 Ry
     estimated scf accuracy    <       0.22026465 Ry

     iteration #  3     ecut=    50.00 Ry     beta= 0.30
     Davidson diagonalization with overlap

---- Real-time Memory Report at c_bands before calling an iterative solver
            99 MiB given to the printing process from OS
             0 MiB allocation reported by mallinfo(arena+hblkhd)
         55822 MiB available memory on the node where the printing process lives
------------------
     ethr =  3.06E-04,  avg # of iterations =  6.2

     total cpu time spent up to now is       47.7 secs

     total energy              =    -723.15805995 Ry
     estimated scf accuracy    <       0.15014911 Ry

     iteration #  4     ecut=    50.00 Ry     beta= 0.30
     Davidson diagonalization with overlap

---- Real-time Memory Report at c_bands before calling an iterative solver
            99 MiB given to the printing process from OS
             0 MiB allocation reported by mallinfo(arena+hblkhd)
         55797 MiB available memory on the node where the printing process lives
------------------
     ethr =  2.09E-04,  avg # of iterations =  6.2

     total cpu time spent up to now is       66.0 secs

     total energy              =    -723.26892231 Ry
     estimated scf accuracy    <       0.09097543 Ry

     iteration #  5     ecut=    50.00 Ry     beta= 0.30
     Davidson diagonalization with overlap

---- Real-time Memory Report at c_bands before calling an iterative solver
            99 MiB given to the printing process from OS
             0 MiB allocation reported by mallinfo(arena+hblkhd)
         55814 MiB available memory on the node where the printing process lives
------------------
     ethr =  1.26E-04,  avg # of iterations =  3.1

     total cpu time spent up to now is       77.7 secs

     total energy              =    -723.19760716 Ry
     estimated scf accuracy    <       0.18356099 Ry

     iteration #  6     ecut=    50.00 Ry     beta= 0.30
     Davidson diagonalization with overlap

---- Real-time Memory Report at c_bands before calling an iterative solver
           100 MiB given to the printing process from OS
             0 MiB allocation reported by mallinfo(arena+hblkhd)
         55814 MiB available memory on the node where the printing process lives
------------------
     ethr =  1.26E-04,  avg # of iterations =  2.1

     total cpu time spent up to now is       87.7 secs

     total energy              =    -723.17994972 Ry
     estimated scf accuracy    <       0.04642050 Ry

     iteration #  7     ecut=    50.00 Ry     beta= 0.30
     Davidson diagonalization with overlap

---- Real-time Memory Report at c_bands before calling an iterative solver
           100 MiB given to the printing process from OS
             0 MiB allocation reported by mallinfo(arena+hblkhd)
         55815 MiB available memory on the node where the printing process lives
------------------
     ethr =  6.45E-05,  avg # of iterations =  6.8

     total cpu time spent up to now is      107.9 secs

     total energy              =    -723.22597685 Ry
     estimated scf accuracy    <       0.04701166 Ry

     iteration #  8     ecut=    50.00 Ry     beta= 0.30
     Davidson diagonalization with overlap

---- Real-time Memory Report at c_bands before calling an iterative solver
           100 MiB given to the printing process from OS
             0 MiB allocation reported by mallinfo(arena+hblkhd)
         55813 MiB available memory on the node where the printing process lives
------------------
     ethr =  6.45E-05,  avg # of iterations =  1.0

     total cpu time spent up to now is      116.5 secs

     total energy              =    -723.21837650 Ry
     estimated scf accuracy    <       0.03796794 Ry

     iteration #  9     ecut=    50.00 Ry     beta= 0.30
     Davidson diagonalization with overlap

---- Real-time Memory Report at c_bands before calling an iterative solver
           100 MiB given to the printing process from OS
             0 MiB allocation reported by mallinfo(arena+hblkhd)
         55813 MiB available memory on the node where the printing process lives
------------------
     ethr =  5.27E-05,  avg # of iterations =  1.0

     total cpu time spent up to now is      125.1 secs

     total energy              =    -723.21740110 Ry
     estimated scf accuracy    <       0.01945178 Ry

     iteration # 10     ecut=    50.00 Ry     beta= 0.30
     Davidson diagonalization with overlap

---- Real-time Memory Report at c_bands before calling an iterative solver
           101 MiB given to the printing process from OS
             0 MiB allocation reported by mallinfo(arena+hblkhd)
         55814 MiB available memory on the node where the printing process lives
------------------
     ethr =  2.70E-05,  avg # of iterations =  1.8

     total cpu time spent up to now is      134.3 secs

     total energy              =    -723.21482911 Ry
     estimated scf accuracy    <       0.01293469 Ry

     iteration # 11     ecut=    50.00 Ry     beta= 0.30
     Davidson diagonalization with overlap

---- Real-time Memory Report at c_bands before calling an iterative solver
           101 MiB given to the printing process from OS
             0 MiB allocation reported by mallinfo(arena+hblkhd)
         55815 MiB available memory on the node where the printing process lives
------------------
     ethr =  1.80E-05,  avg # of iterations =  2.0

     total cpu time spent up to now is      143.9 secs

     total energy              =    -723.21584651 Ry
     estimated scf accuracy    <       0.00490307 Ry

     iteration # 12     ecut=    50.00 Ry     beta= 0.30
     Davidson diagonalization with overlap

---- Real-time Memory Report at c_bands before calling an iterative solver
           101 MiB given to the printing process from OS
             0 MiB allocation reported by mallinfo(arena+hblkhd)
         55815 MiB available memory on the node where the printing process lives
------------------
     ethr =  6.81E-06,  avg # of iterations =  4.5

     total cpu time spent up to now is      157.1 secs

     total energy              =    -723.21699361 Ry
     estimated scf accuracy    <       0.00130508 Ry

     iteration # 13     ecut=    50.00 Ry     beta= 0.30
     Davidson diagonalization with overlap

---- Real-time Memory Report at c_bands before calling an iterative solver
           101 MiB given to the printing process from OS
             0 MiB allocation reported by mallinfo(arena+hblkhd)
         55816 MiB available memory on the node where the printing process lives
------------------
     ethr =  1.81E-06,  avg # of iterations =  3.4

     total cpu time spent up to now is      168.9 secs

     total energy              =    -723.21713721 Ry
     estimated scf accuracy    <       0.00070937 Ry

     iteration # 14     ecut=    50.00 Ry     beta= 0.30
     Davidson diagonalization with overlap

---- Real-time Memory Report at c_bands before calling an iterative solver
           101 MiB given to the printing process from OS
             0 MiB allocation reported by mallinfo(arena+hblkhd)
         55816 MiB available memory on the node where the printing process lives
------------------
     ethr =  9.85E-07,  avg # of iterations =  1.9

     total cpu time spent up to now is      178.4 secs

     total energy              =    -723.21694523 Ry
     estimated scf accuracy    <       0.00050544 Ry

     iteration # 15     ecut=    50.00 Ry     beta= 0.30
     Davidson diagonalization with overlap

---- Real-time Memory Report at c_bands before calling an iterative solver
           101 MiB given to the printing process from OS
             0 MiB allocation reported by mallinfo(arena+hblkhd)
         55816 MiB available memory on the node where the printing process lives
------------------
     ethr =  7.02E-07,  avg # of iterations =  4.6

     total cpu time spent up to now is      192.5 secs

     total energy              =    -723.21708726 Ry
     estimated scf accuracy    <       0.00000226 Ry

     iteration # 16     ecut=    50.00 Ry     beta= 0.30
     Davidson diagonalization with overlap

---- Real-time Memory Report at c_bands before calling an iterative solver
           101 MiB given to the printing process from OS
             0 MiB allocation reported by mallinfo(arena+hblkhd)
         55817 MiB available memory on the node where the printing process lives
------------------
     c_bands:  2 eigenvalues not converged
     c_bands:  1 eigenvalues not converged
     ethr =  3.14E-09,  avg # of iterations = 12.7

     total cpu time spent up to now is      229.4 secs

     total energy              =    -723.21713256 Ry
     estimated scf accuracy    <       0.00008058 Ry

     iteration # 17     ecut=    50.00 Ry     beta= 0.30
     Davidson diagonalization with overlap

---- Real-time Memory Report at c_bands before calling an iterative solver
           101 MiB given to the printing process from OS
             0 MiB allocation reported by mallinfo(arena+hblkhd)
         55820 MiB available memory on the node where the printing process lives
------------------
     ethr =  3.14E-09,  avg # of iterations =  2.1

     total cpu time spent up to now is      239.3 secs

     total energy              =    -723.21709317 Ry
     estimated scf accuracy    <       0.00006658 Ry

     iteration # 18     ecut=    50.00 Ry     beta= 0.30
     Davidson diagonalization with overlap

---- Real-time Memory Report at c_bands before calling an iterative solver
           101 MiB given to the printing process from OS
             0 MiB allocation reported by mallinfo(arena+hblkhd)
         55821 MiB available memory on the node where the printing process lives
------------------
     ethr =  3.14E-09,  avg # of iterations = 12.0

     total cpu time spent up to now is      273.3 secs

     total energy              =    -723.21711704 Ry
     estimated scf accuracy    <       0.00001718 Ry

     iteration # 19     ecut=    50.00 Ry     beta= 0.30
     Davidson diagonalization with overlap

---- Real-time Memory Report at c_bands before calling an iterative solver
           101 MiB given to the printing process from OS
             0 MiB allocation reported by mallinfo(arena+hblkhd)
         55823 MiB available memory on the node where the printing process lives
------------------
     ethr =  3.14E-09,  avg # of iterations =  5.3

     total cpu time spent up to now is      290.4 secs

     total energy              =    -723.21712277 Ry
     estimated scf accuracy    <       0.00000330 Ry

     iteration # 20     ecut=    50.00 Ry     beta= 0.30
     Davidson diagonalization with overlap

---- Real-time Memory Report at c_bands before calling an iterative solver
           101 MiB given to the printing process from OS
             0 MiB allocation reported by mallinfo(arena+hblkhd)
         55823 MiB available memory on the node where the printing process lives
------------------
     ethr =  3.14E-09,  avg # of iterations =  6.5

     total cpu time spent up to now is      310.1 secs

     total energy              =    -723.21712133 Ry
     estimated scf accuracy    <       0.00002384 Ry

     iteration # 21     ecut=    50.00 Ry     beta= 0.30
     Davidson diagonalization with overlap

---- Real-time Memory Report at c_bands before calling an iterative solver
           101 MiB given to the printing process from OS
             0 MiB allocation reported by mallinfo(arena+hblkhd)
         55935 MiB available memory on the node where the printing process lives
------------------
     ethr =  3.14E-09,  avg # of iterations =  2.0

     total cpu time spent up to now is      319.5 secs

     total energy              =    -723.21711695 Ry
     estimated scf accuracy    <       0.00001782 Ry

     iteration # 22     ecut=    50.00 Ry     beta= 0.30
     Davidson diagonalization with overlap

---- Real-time Memory Report at c_bands before calling an iterative solver
           101 MiB given to the printing process from OS
             0 MiB allocation reported by mallinfo(arena+hblkhd)
         55816 MiB available memory on the node where the printing process lives
------------------
     ethr =  3.14E-09,  avg # of iterations =  6.1

     total cpu time spent up to now is      337.5 secs

     total energy              =    -723.21711872 Ry
     estimated scf accuracy    <       0.00000356 Ry

     iteration # 23     ecut=    50.00 Ry     beta= 0.30
     Davidson diagonalization with overlap

---- Real-time Memory Report at c_bands before calling an iterative solver
           101 MiB given to the printing process from OS
             0 MiB allocation reported by mallinfo(arena+hblkhd)
         55824 MiB available memory on the node where the printing process lives
------------------
     ethr =  3.14E-09,  avg # of iterations =  1.1

     total cpu time spent up to now is      346.3 secs

     total energy              =    -723.21711752 Ry
     estimated scf accuracy    <       0.00000408 Ry

     iteration # 24     ecut=    50.00 Ry     beta= 0.30
     Davidson diagonalization with overlap

---- Real-time Memory Report at c_bands before calling an iterative solver
           101 MiB given to the printing process from OS
             0 MiB allocation reported by mallinfo(arena+hblkhd)
         55824 MiB available memory on the node where the printing process lives
------------------
     ethr =  3.14E-09,  avg # of iterations =  2.2

     total cpu time spent up to now is      356.3 secs

     total energy              =    -723.21711726 Ry
     estimated scf accuracy    <       0.00000162 Ry

     iteration # 25     ecut=    50.00 Ry     beta= 0.30
     Davidson diagonalization with overlap

---- Real-time Memory Report at c_bands before calling an iterative solver
           101 MiB given to the printing process from OS
             0 MiB allocation reported by mallinfo(arena+hblkhd)
         55825 MiB available memory on the node where the printing process lives
------------------
     ethr =  2.25E-09,  avg # of iterations =  3.4

     total cpu time spent up to now is      368.2 secs

     total energy              =    -723.21711748 Ry
     estimated scf accuracy    <       0.00000023 Ry

     iteration # 26     ecut=    50.00 Ry     beta= 0.30
     Davidson diagonalization with overlap

---- Real-time Memory Report at c_bands before calling an iterative solver
           101 MiB given to the printing process from OS
             0 MiB allocation reported by mallinfo(arena+hblkhd)
         55826 MiB available memory on the node where the printing process lives
------------------
     ethr =  3.16E-10,  avg # of iterations =  6.5

     total cpu time spent up to now is      388.0 secs

     total energy              =    -723.21711769 Ry
     estimated scf accuracy    <       0.00000006 Ry

     iteration # 27     ecut=    50.00 Ry     beta= 0.30
     Davidson diagonalization with overlap

---- Real-time Memory Report at c_bands before calling an iterative solver
           101 MiB given to the printing process from OS
             0 MiB allocation reported by mallinfo(arena+hblkhd)
         55817 MiB available memory on the node where the printing process lives
------------------
     ethr =  8.14E-11,  avg # of iterations =  2.0

     total cpu time spent up to now is      397.6 secs

     total energy              =    -723.21711770 Ry
     estimated scf accuracy    <       0.00000003 Ry

     iteration # 28     ecut=    50.00 Ry     beta= 0.30
     Davidson diagonalization with overlap

---- Real-time Memory Report at c_bands before calling an iterative solver
           101 MiB given to the printing process from OS
             0 MiB allocation reported by mallinfo(arena+hblkhd)
         55818 MiB available memory on the node where the printing process lives
------------------
     ethr =  4.02E-11,  avg # of iterations =  1.6

     total cpu time spent up to now is      406.7 secs

     total energy              =    -723.21711770 Ry
     estimated scf accuracy    <       0.00000004 Ry

     iteration # 29     ecut=    50.00 Ry     beta= 0.30
     Davidson diagonalization with overlap

---- Real-time Memory Report at c_bands before calling an iterative solver
           101 MiB given to the printing process from OS
             0 MiB allocation reported by mallinfo(arena+hblkhd)
         55818 MiB available memory on the node where the printing process lives
------------------
     ethr =  4.02E-11,  avg # of iterations =  1.6

     total cpu time spent up to now is      415.7 secs

     total energy              =    -723.21711769 Ry
     estimated scf accuracy    <       0.00000004 Ry

     iteration # 30     ecut=    50.00 Ry     beta= 0.30
     Davidson diagonalization with overlap

---- Real-time Memory Report at c_bands before calling an iterative solver
           101 MiB given to the printing process from OS
             0 MiB allocation reported by mallinfo(arena+hblkhd)
         55818 MiB available memory on the node where the printing process lives
------------------
     ethr =  4.02E-11,  avg # of iterations =  2.0

     total cpu time spent up to now is      426.1 secs

     total energy              =    -723.21711769 Ry
     estimated scf accuracy    <       0.00000001 Ry

     iteration # 31     ecut=    50.00 Ry     beta= 0.30
     Davidson diagonalization with overlap

---- Real-time Memory Report at c_bands before calling an iterative solver
           101 MiB given to the printing process from OS
             0 MiB allocation reported by mallinfo(arena+hblkhd)
         55818 MiB available memory on the node where the printing process lives
------------------
     ethr =  1.94E-11,  avg # of iterations =  4.8

     total cpu time spent up to now is      439.9 secs

     End of self-consistent calculation

          k = 0.0000 0.0000 0.0000 (  3495 PWs)   bands (ev):

   -10.1180  -9.2817  -9.2396  -9.0132   2.2317   2.3557   2.3558   2.5920
     2.5922   2.6275   2.8239   2.8240   2.8832   3.2090   3.3309   3.5291
     4.0860   4.0860   4.1098   4.3044   4.3497   4.3497   4.4104   4.4976
     4.6553   4.9516   4.9773   5.7026   6.2216   7.3621   7.8614   7.8943
     7.8946   8.7007   8.8138   8.8141

     occupation numbers 
     1.0000   1.0000   1.0000   1.0000   1.0000   1.0000   1.0000   1.0000
     1.0000   1.0000   1.0000   1.0000   1.0000   1.0000   1.0000   1.0000
     1.0000   1.0000   1.0000   1.0000   1.0000   1.0000   1.0000   1.0000
     1.0000   1.0000   1.0000   1.0000   1.0000   1.0000   1.0000   1.0000
     1.0000   1.0000   1.0000   1.0000

          k = 0.0000 0.0000 0.1032 (  3487 PWs)   bands (ev):

   -10.0628  -9.3022  -9.2608  -9.0280   2.1657   2.2476   2.2842   2.5577
     2.6002   2.6004   2.8000   2.8001   2.9154   3.1776   3.2946   3.4699
     4.1103   4.1103   4.1910   4.3078   4.3399   4.3399   4.3926   4.4965
     4.9199   4.9340   4.9519   6.0117   6.3544   7.4495   7.7627   7.9566
     7.9568   8.1615   8.7534   8.7537

     occupation numbers 
     1.0000   1.0000   1.0000   1.0000   1.0000   1.0000   1.0000   1.0000
     1.0000   1.0000   1.0000   1.0000   1.0000   1.0000   1.0000   1.0000
     1.0000   1.0000   1.0000   1.0000   1.0000   1.0000   1.0000   1.0000
     1.0000   1.0000   1.0000   1.0000   1.0000   1.0000   1.0000   1.0000
     1.0000   1.0000   1.0000   1.0000

          k = 0.0000 0.0000 0.2065 (  3496 PWs)   bands (ev):

    -9.9094  -9.4705  -9.2058  -9.0709   2.0336   2.0559   2.2042   2.3957
     2.6277   2.6279   2.7420   2.7422   3.0087   3.1534   3.2251   3.3235
     4.1718   4.1718   4.3058   4.3058   4.3174   4.3253   4.3604   4.4800
     4.8693   4.8972   5.6542   6.6543   6.6881   7.3499   7.4892   7.5141
     8.1267   8.1269   8.5872   8.5875

     occupation numbers 
     1.0000   1.0000   1.0000   1.0000   1.0000   1.0000   1.0000   1.0000
     1.0000   1.0000   1.0000   1.0000   1.0000   1.0000   1.0000   1.0000
     1.0000   1.0000   1.0000   1.0000   1.0000   1.0000   1.0000   1.0000
     1.0000   1.0000   1.0000   1.0000   1.0000   1.0000   1.0000   1.0000
     1.0000   1.0000   1.0000   1.0000

          k = 0.0000 0.0000-0.3097 (  3506 PWs)   bands (ev):

    -9.6937  -9.6936  -9.1354  -9.1353   1.9692   1.9693   2.2458   2.2459
     2.6775   2.6775   2.6777   2.6777   3.1531   3.1531   3.1716   3.1716
     4.2455   4.2455   4.2455   4.2455   4.3345   4.3345   4.4264   4.4264
     4.8677   4.8677   6.4998   6.4998   7.1020   7.1021   7.2485   7.2486
     8.3579   8.3580   8.3582   8.3583

     occupation numbers 
     1.0000   1.0000   1.0000   1.0000   1.0000   1.0000   1.0000   1.0000
     1.0000   1.0000   1.0000   1.0000   1.0000   1.0000   1.0000   1.0000
     1.0000   1.0000   1.0000   1.0000   1.0000   1.0000   1.0000   1.0000
     1.0000   1.0000   1.0000   1.0000   1.0000   1.0000   1.0000   1.0000
     1.0000   1.0000   1.0000   1.0000

          k = 0.0000 0.0962 0.0000 (  3485 PWs)   bands (ev):

   -10.0716  -9.3595  -9.2186  -9.0107   2.1595   2.4151   2.4530   2.5388
     2.6177   2.6582   2.8143   2.8598   2.8723   3.1413   3.3575   3.4655
     4.0648   4.0801   4.0827   4.2635   4.3543   4.3726   4.4043   4.5721
     4.6470   4.6602   5.1786   5.9210   6.3547   7.5209   7.6231   7.7895
     7.9345   8.3515   8.6494   8.7581

     occupation numbers 
     1.0000   1.0000   1.0000   1.0000   1.0000   1.0000   1.0000   1.0000
     1.0000   1.0000   1.0000   1.0000   1.0000   1.0000   1.0000   1.0000
     1.0000   1.0000   1.0000   1.0000   1.0000   1.0000   1.0000   1.0000
     1.0000   1.0000   1.0000   1.0000   1.0000   1.0000   1.0000   1.0000
     1.0000   1.0000   1.0000   1.0000

          k = 0.0000 0.0962 0.1032 (  3492 PWs)   bands (ev):

   -10.0177  -9.3338  -9.2791  -9.0313   2.1054   2.3224   2.3298   2.4909
     2.6267   2.6435   2.8013   2.8353   2.9018   3.1122   3.2933   3.4117
     4.0923   4.1070   4.1258   4.2694   4.3432   4.3548   4.3866   4.5481
     4.7523   4.9581   5.2831   6.0497   6.4793   7.5905   7.6854   7.8381
     7.8555   7.9906   8.6036   8.6947

     occupation numbers 
     1.0000   1.0000   1.0000   1.0000   1.0000   1.0000   1.0000   1.0000
     1.0000   1.0000   1.0000   1.0000   1.0000   1.0000   1.0000   1.0000
     1.0000   1.0000   1.0000   1.0000   1.0000   1.0000   1.0000   1.0000
     1.0000   1.0000   1.0000   1.0000   1.0000   1.0000   1.0000   1.0000
     1.0000   1.0000   1.0000   1.0000

          k = 0.0000 0.0962 0.2065 (  3488 PWs)   bands (ev):

    -9.8681  -9.4418  -9.2650  -9.0899   2.0025   2.1037   2.2088   2.3530
     2.6523   2.6563   2.7537   2.7756   2.9884   3.0913   3.1929   3.2784
     4.1619   4.1689   4.2328   4.2871   4.3064   4.3129   4.3504   4.4581
     4.9403   5.2692   5.6717   6.5961   6.7967   7.2946   7.5716   7.5904
     7.8819   8.0354   8.4091   8.5201

     occupation numbers 
     1.0000   1.0000   1.0000   1.0000   1.0000   1.0000   1.0000   1.0000
     1.0000   1.0000   1.0000   1.0000   1.0000   1.0000   1.0000   1.0000
     1.0000   1.0000   1.0000   1.0000   1.0000   1.0000   1.0000   1.0000
     1.0000   1.0000   1.0000   1.0000   1.0000   1.0000   1.0000   1.0000
     1.0000   1.0000   1.0000   1.0000

          k = 0.0000 0.0962-0.3097 (  3512 PWs)   bands (ev):

    -9.6583  -9.6582  -9.1749  -9.1748   1.9770   1.9770   2.2238   2.2239
     2.6948   2.6948   2.7083   2.7084   3.1201   3.1201   3.1219   3.1219
     4.2435   4.2435   4.2440   4.2440   4.3149   4.3149   4.3507   4.3507
     5.1219   5.1219   6.5031   6.5031   7.1957   7.1958   7.2385   7.2385
     8.1398   8.1399   8.2790   8.2791

     occupation numbers 
     1.0000   1.0000   1.0000   1.0000   1.0000   1.0000   1.0000   1.0000
     1.0000   1.0000   1.0000   1.0000   1.0000   1.0000   1.0000   1.0000
     1.0000   1.0000   1.0000   1.0000   1.0000   1.0000   1.0000   1.0000
     1.0000   1.0000   1.0000   1.0000   1.0000   1.0000   1.0000   1.0000
     1.0000   1.0000   1.0000   1.0000

          k = 0.0000 0.1925 0.0000 (  3495 PWs)   bands (ev):

    -9.9407  -9.5390  -9.1629  -9.0338   2.1387   2.3675   2.5600   2.6212
     2.6848   2.7030   2.8347   2.8415   2.9634   2.9981   3.3073   3.3134
     3.9501   4.0074   4.0841   4.1803   4.3647   4.3902   4.4195   4.4242
     4.6399   4.8224   5.4056   6.4546   6.6892   6.9326   7.5033   7.7050
     7.8683   8.1256   8.4905   8.5995

     occupation numbers 
     1.0000   1.0000   1.0000   1.0000   1.0000   1.0000   1.0000   1.0000
     1.0000   1.0000   1.0000   1.0000   1.0000   1.0000   1.0000   1.0000
     1.0000   1.0000   1.0000   1.0000   1.0000   1.0000   1.0000   1.0000
     1.0000   1.0000   1.0000   1.0000   1.0000   1.0000   1.0000   1.0000
     1.0000   1.0000   1.0000   1.0000

          k = 0.0000 0.1925 0.1032 (  3480 PWs)   bands (ev):

    -9.8907  -9.5041  -9.2170  -9.0661   2.0962   2.3148   2.4156   2.4471
     2.6966   2.7194   2.8463   2.8583   2.9365   2.9766   3.2078   3.2650
     4.0092   4.0464   4.1073   4.1931   4.3508   4.3729   4.3922   4.4664
     4.9830   5.0346   5.5536   6.3931   6.7969   7.0019   7.5347   7.5795
     7.8869   8.0358   8.4033   8.5284

     occupation numbers 
     1.0000   1.0000   1.0000   1.0000   1.0000   1.0000   1.0000   1.0000
     1.0000   1.0000   1.0000   1.0000   1.0000   1.0000   1.0000   1.0000
     1.0000   1.0000   1.0000   1.0000   1.0000   1.0000   1.0000   1.0000
     1.0000   1.0000   1.0000   1.0000   1.0000   1.0000   1.0000   1.0000
     1.0000   1.0000   1.0000   1.0000

          k = 0.0000 0.1925 0.2065 (  3481 PWs)   bands (ev):

    -9.7526  -9.4092  -9.3635  -9.1558   2.0160   2.1565   2.1921   2.2585
     2.7236   2.7329   2.8098   2.8699   2.9276   2.9642   3.0824   3.1595
     4.1378   4.1382   4.1671   4.2278   4.3082   4.3295   4.3328   4.4032
     5.3822   5.7097   5.7922   6.5630   7.0089   7.0780   7.3388   7.7393
     7.7851   7.7880   8.0952   8.3325

     occupation numbers 
     1.0000   1.0000   1.0000   1.0000   1.0000   1.0000   1.0000   1.0000
     1.0000   1.0000   1.0000   1.0000   1.0000   1.0000   1.0000   1.0000
     1.0000   1.0000   1.0000   1.0000   1.0000   1.0000   1.0000   1.0000
     1.0000   1.0000   1.0000   1.0000   1.0000   1.0000   1.0000   1.0000
     1.0000   1.0000   1.0000   1.0000

          k = 0.0000 0.1925-0.3097 (  3486 PWs)   bands (ev):

    -9.5602  -9.5601  -9.2813  -9.2812   2.0098   2.0098   2.1597   2.1597
     2.7571   2.7571   2.7940   2.7940   2.9998   2.9998   3.0346   3.0346
     4.2418   4.2418   4.2436   4.2436   4.2767   4.2767   4.2805   4.2805
     5.6435   5.6435   6.4592   6.4593   7.2282   7.2283   7.4408   7.4408
     7.6655   7.6656   8.0612   8.0613

     occupation numbers 
     1.0000   1.0000   1.0000   1.0000   1.0000   1.0000   1.0000   1.0000
     1.0000   1.0000   1.0000   1.0000   1.0000   1.0000   1.0000   1.0000
     1.0000   1.0000   1.0000   1.0000   1.0000   1.0000   1.0000   1.0000
     1.0000   1.0000   1.0000   1.0000   1.0000   1.0000   1.0000   1.0000
     1.0000   1.0000   1.0000   1.0000

          k = 0.0000-0.2887 0.0000 (  3504 PWs)   bands (ev):

    -9.7501  -9.7500  -9.0922  -9.0921   2.2223   2.2223   2.6360   2.6360
     2.7674   2.7674   2.8383   2.8383   3.0563   3.0563   3.1218   3.1218
     3.9386   3.9387   4.1130   4.1130   4.3769   4.3769   4.4361   4.4361
     4.7067   4.7067   6.1074   6.1075   7.0707   7.0707   7.1068   7.1069
     8.2220   8.2220   8.3703   8.3704

     occupation numbers 
     1.0000   1.0000   1.0000   1.0000   1.0000   1.0000   1.0000   1.0000
     1.0000   1.0000   1.0000   1.0000   1.0000   1.0000   1.0000   1.0000
     1.0000   1.0000   1.0000   1.0000   1.0000   1.0000   1.0000   1.0000
     1.0000   1.0000   1.0000   1.0000   1.0000   1.0000   1.0000   1.0000
     1.0000   1.0000   1.0000   1.0000

          k = 0.0000-0.2887 0.1032 (  3476 PWs)   bands (ev):

    -9.7066  -9.7065  -9.1364  -9.1364   2.1807   2.1807   2.4631   2.4631
     2.7842   2.7842   2.8336   2.8336   3.0076   3.0076   3.0893   3.0894
     3.9976   3.9976   4.1322   4.1322   4.3604   4.3605   4.4317   4.4317
     5.0368   5.0369   6.1981   6.1981   6.9561   6.9561   7.1974   7.1974
     8.1769   8.1769   8.2896   8.2896

     occupation numbers 
     1.0000   1.0000   1.0000   1.0000   1.0000   1.0000   1.0000   1.0000
     1.0000   1.0000   1.0000   1.0000   1.0000   1.0000   1.0000   1.0000
     1.0000   1.0000   1.0000   1.0000   1.0000   1.0000   1.0000   1.0000
     1.0000   1.0000   1.0000   1.0000   1.0000   1.0000   1.0000   1.0000
     1.0000   1.0000   1.0000   1.0000

          k = 0.0000-0.2887 0.2065 (  3478 PWs)   bands (ev):

    -9.5871  -9.5870  -9.2576  -9.2575   2.0957   2.0957   2.2042   2.2042
     2.8324   2.8324   2.8341   2.8341   2.9313   2.9313   3.0082   3.0082
     4.1186   4.1186   4.1831   4.1831   4.3144   4.3144   4.3637   4.3637
     5.6908   5.6908   6.3907   6.3907   6.8328   6.8328   7.4387   7.4387
     7.8902   7.8902   8.0671   8.0671

     occupation numbers 
     1.0000   1.0000   1.0000   1.0000   1.0000   1.0000   1.0000   1.0000
     1.0000   1.0000   1.0000   1.0000   1.0000   1.0000   1.0000   1.0000
     1.0000   1.0000   1.0000   1.0000   1.0000   1.0000   1.0000   1.0000
     1.0000   1.0000   1.0000   1.0000   1.0000   1.0000   1.0000   1.0000
     1.0000   1.0000   1.0000   1.0000

          k = 0.0000-0.2887-0.3097 (  3488 PWs)   bands (ev):

    -9.4228  -9.4228  -9.4228  -9.4226   2.0763   2.0763   2.0763   2.0764
     2.8660   2.8660   2.8660   2.8660   2.9136   2.9136   2.9136   2.9136
     4.2498   4.2498   4.2498   4.2498   4.2512   4.2512   4.2512   4.2512
     6.1812   6.1812   6.1812   6.1812   7.3115   7.3115   7.3115   7.3115
     7.7574   7.7574   7.7574   7.7575

     occupation numbers 
     1.0000   1.0000   1.0000   1.0000   1.0000   1.0000   1.0000   1.0000
     1.0000   1.0000   1.0000   1.0000   1.0000   1.0000   1.0000   1.0000
     1.0000   1.0000   1.0000   1.0000   1.0000   1.0000   1.0000   1.0000
     1.0000   1.0000   1.0000   1.0000   1.0000   1.0000   1.0000   1.0000
     1.0000   1.0000   1.0000   1.0000

          k = 0.1667 0.0962 0.0000 (  3495 PWs)   bands (ev):

    -9.9407  -9.2925  -9.1629  -9.0076   2.3441   2.3676   2.5916   2.6212
     2.6847   2.7030   2.8416   2.8542   2.9633   3.0852   3.4265   3.5380
     4.0074   4.0351   4.0841   4.1148   4.3647   4.4229   4.4242   4.5589
     4.6399   4.7543   5.3475   5.6259   6.0167   6.9328   7.3147   7.5031
     7.5609   7.7051   8.4905   8.5993

     occupation numbers 
     1.0000   1.0000   1.0000   1.0000   1.0000   1.0000   1.0000   1.0000
     1.0000   1.0000   1.0000   1.0000   1.0000   1.0000   1.0000   1.0000
     1.0000   1.0000   1.0000   1.0000   1.0000   1.0000   1.0000   1.0000
     1.0000   1.0000   1.0000   1.0000   1.0000   1.0000   1.0000   1.0000
     1.0000   1.0000   1.0000   1.0000

          k = 0.1667 0.0962 0.1032 (  3484 PWs)   bands (ev):

    -9.8907  -9.2707  -9.2170  -9.0236   2.2903   2.3149   2.4472   2.4815
     2.6965   2.7195   2.8421   2.8464   2.9364   3.0549   3.3546   3.4499
     4.0463   4.0540   4.1074   4.2259   4.3508   4.3922   4.4168   4.6365
     4.7331   4.9830   5.4089   5.7252   6.1997   7.0021   7.3070   7.5348
     7.5426   7.5793   8.4033   8.5282

     occupation numbers 
     1.0000   1.0000   1.0000   1.0000   1.0000   1.0000   1.0000   1.0000
     1.0000   1.0000   1.0000   1.0000   1.0000   1.0000   1.0000   1.0000
     1.0000   1.0000   1.0000   1.0000   1.0000   1.0000   1.0000   1.0000
     1.0000   1.0000   1.0000   1.0000   1.0000   1.0000   1.0000   1.0000
     1.0000   1.0000   1.0000   1.0000

          k = 0.1667 0.0962 0.2065 (  3492 PWs)   bands (ev):

    -9.7526  -9.3635  -9.2128  -9.0698   2.1760   2.1921   2.2586   2.2596
     2.7236   2.7327   2.8098   2.8653   2.8697   3.0062   3.2697   3.3186
     4.1378   4.1599   4.1671   4.2692   4.3082   4.3329   4.4263   4.5769
     4.9164   5.3120   5.7097   6.1049   6.6832   7.0090   7.0799   7.3389
     7.5662   7.7849   8.0954   8.3323

     occupation numbers 
     1.0000   1.0000   1.0000   1.0000   1.0000   1.0000   1.0000   1.0000
     1.0000   1.0000   1.0000   1.0000   1.0000   1.0000   1.0000   1.0000
     1.0000   1.0000   1.0000   1.0000   1.0000   1.0000   1.0000   1.0000
     1.0000   1.0000   1.0000   1.0000   1.0000   1.0000   1.0000   1.0000
     1.0000   1.0000   1.0000   1.0000

          k = 0.1667 0.0962-0.3097 (  3488 PWs)   bands (ev):

    -9.5602  -9.5601  -9.1384  -9.1383   2.1368   2.1368   2.1598   2.1598
     2.7572   2.7572   2.7938   2.7939   2.9388   2.9388   3.2488   3.2488
     4.2418   4.2418   4.2436   4.2436   4.2444   4.2444   4.4821   4.4821
     5.1299   5.1299   6.4593   6.4593   6.5525   6.5525   7.3300   7.3300
     7.6657   7.6657   8.0610   8.0611

     occupation numbers 
     1.0000   1.0000   1.0000   1.0000   1.0000   1.0000   1.0000   1.0000
     1.0000   1.0000   1.0000   1.0000   1.0000   1.0000   1.0000   1.0000
     1.0000   1.0000   1.0000   1.0000   1.0000   1.0000   1.0000   1.0000
     1.0000   1.0000   1.0000   1.0000   1.0000   1.0000   1.0000   1.0000
     1.0000   1.0000   1.0000   1.0000

          k = 0.1667 0.1925 0.0000 (  3491 PWs)   bands (ev):

    -9.8219  -9.4579  -9.1170  -9.0174   2.2978   2.3119   2.5269   2.5830
     2.7426   2.8156   2.8577   2.9404   3.0046   3.0690   3.3581   3.3811
     3.9312   3.9723   4.0867   4.1287   4.3706   4.4002   4.4464   4.5209
     4.6725   4.8443   5.5550   5.9907   6.3163   6.4968   7.0120   7.4336
     7.7235   7.7915   8.3379   8.4050

     occupation numbers 
     1.0000   1.0000   1.0000   1.0000   1.0000   1.0000   1.0000   1.0000
     1.0000   1.0000   1.0000   1.0000   1.0000   1.0000   1.0000   1.0000
     1.0000   1.0000   1.0000   1.0000   1.0000   1.0000   1.0000   1.0000
     1.0000   1.0000   1.0000   1.0000   1.0000   1.0000   1.0000   1.0000
     1.0000   1.0000   1.0000   1.0000

          k = 0.1667 0.1925 0.1032 (  3486 PWs)   bands (ev):

    -9.7758  -9.4268  -9.1651  -9.0448   2.2425   2.2659   2.4380   2.4386
     2.7397   2.7893   2.8462   2.9304   2.9592   3.0396   3.2313   3.3328
     3.9896   4.0188   4.1141   4.2096   4.3550   4.3871   4.4230   4.5414
     5.0014   5.0175   5.7256   6.0785   6.3058   6.5812   7.0088   7.3897
     7.6391   7.8063   8.2741   8.3269

     occupation numbers 
     1.0000   1.0000   1.0000   1.0000   1.0000   1.0000   1.0000   1.0000
     1.0000   1.0000   1.0000   1.0000   1.0000   1.0000   1.0000   1.0000
     1.0000   1.0000   1.0000   1.0000   1.0000   1.0000   1.0000   1.0000
     1.0000   1.0000   1.0000   1.0000   1.0000   1.0000   1.0000   1.0000
     1.0000   1.0000   1.0000   1.0000

          k = 0.1667 0.1925 0.2065 (  3485 PWs)   bands (ev):

    -9.6490  -9.3425  -9.2961  -9.1215   2.1345   2.1625   2.2133   2.2267
     2.7577   2.7855   2.8563   2.8917   2.9115   2.9684   3.1374   3.2274
     4.1262   4.1272   4.1730   4.2613   4.3101   4.3550   4.3614   4.4611
     5.3200   5.7205   5.7969   6.4731   6.5584   6.7024   6.9645   7.3653
     7.5121   7.7238   7.9705   8.1083

     occupation numbers 
     1.0000   1.0000   1.0000   1.0000   1.0000   1.0000   1.0000   1.0000
     1.0000   1.0000   1.0000   1.0000   1.0000   1.0000   1.0000   1.0000
     1.0000   1.0000   1.0000   1.0000   1.0000   1.0000   1.0000   1.0000
     1.0000   1.0000   1.0000   1.0000   1.0000   1.0000   1.0000   1.0000
     1.0000   1.0000   1.0000   1.0000

          k = 0.1667 0.1925-0.3097 (  3482 PWs)   bands (ev):

    -9.4736  -9.4735  -9.2302  -9.2301   2.1020   2.1020   2.1169   2.1169
     2.7837   2.7837   2.8892   2.8892   2.8973   2.8973   3.1393   3.1393
     4.2416   4.2416   4.2526   4.2526   4.2551   4.2551   4.3606   4.3606
     5.5886   5.5886   6.3366   6.3366   6.8511   6.8512   7.3341   7.3341
     7.4196   7.4196   7.8119   7.8119

     occupation numbers 
     1.0000   1.0000   1.0000   1.0000   1.0000   1.0000   1.0000   1.0000
     1.0000   1.0000   1.0000   1.0000   1.0000   1.0000   1.0000   1.0000
     1.0000   1.0000   1.0000   1.0000   1.0000   1.0000   1.0000   1.0000
     1.0000   1.0000   1.0000   1.0000   1.0000   1.0000   1.0000   1.0000
     1.0000   1.0000   1.0000   1.0000

          k = 0.1667 0.2887 0.0000 (  3490 PWs)   bands (ev):

    -9.6493  -9.6492  -9.0605  -9.0604   2.2847   2.2847   2.5294   2.5294
     2.8290   2.8290   2.8825   2.8825   3.1587   3.1587   3.2221   3.2221
     3.9395   3.9395   4.1055   4.1055   4.3805   4.3805   4.4545   4.4545
     4.7796   4.7796   6.0200   6.0200   6.3908   6.3909   6.9561   6.9562
     8.0861   8.0861   8.0947   8.0947

     occupation numbers 
     1.0000   1.0000   1.0000   1.0000   1.0000   1.0000   1.0000   1.0000
     1.0000   1.0000   1.0000   1.0000   1.0000   1.0000   1.0000   1.0000
     1.0000   1.0000   1.0000   1.0000   1.0000   1.0000   1.0000   1.0000
     1.0000   1.0000   1.0000   1.0000   1.0000   1.0000   1.0000   1.0000
     1.0000   1.0000   1.0000   1.0000

          k = 0.1667 0.2887 0.1032 (  3482 PWs)   bands (ev):

    -9.6096  -9.6095  -9.0993  -9.0992   2.2354   2.2354   2.4234   2.4234
     2.8179   2.8179   2.8422   2.8422   3.0800   3.0801   3.1871   3.1871
     3.9934   3.9934   4.1506   4.1506   4.3646   4.3646   4.4649   4.4649
     5.0753   5.0754   6.1436   6.1437   6.4111   6.4111   6.9227   6.9227
     7.9913   7.9914   8.0787   8.0787

     occupation numbers 
     1.0000   1.0000   1.0000   1.0000   1.0000   1.0000   1.0000   1.0000
     1.0000   1.0000   1.0000   1.0000   1.0000   1.0000   1.0000   1.0000
     1.0000   1.0000   1.0000   1.0000   1.0000   1.0000   1.0000   1.0000
     1.0000   1.0000   1.0000   1.0000   1.0000   1.0000   1.0000   1.0000
     1.0000   1.0000   1.0000   1.0000

          k = 0.1667 0.2887 0.2065 (  3480 PWs)   bands (ev):

    -9.5012  -9.5011  -9.2061  -9.2060   2.1332   2.1332   2.2011   2.2011
     2.8121   2.8121   2.8275   2.8275   3.0150   3.0150   3.1040   3.1040
     4.1200   4.1200   4.2061   4.2061   4.3233   4.3233   4.3936   4.3936
     5.6409   5.6409   6.3068   6.3068   6.5767   6.5768   7.0404   7.0404
     7.7368   7.7369   7.8606   7.8606

     occupation numbers 
     1.0000   1.0000   1.0000   1.0000   1.0000   1.0000   1.0000   1.0000
     1.0000   1.0000   1.0000   1.0000   1.0000   1.0000   1.0000   1.0000
     1.0000   1.0000   1.0000   1.0000   1.0000   1.0000   1.0000   1.0000
     1.0000   1.0000   1.0000   1.0000   1.0000   1.0000   1.0000   1.0000
     1.0000   1.0000   1.0000   1.0000

          k = 0.1667 0.2887-0.3097 (  3460 PWs)   bands (ev):

    -9.3533  -9.3532  -9.3532  -9.3531   2.0916   2.0916   2.0916   2.0916
     2.8252   2.8252   2.8253   2.8253   3.0258   3.0258   3.0259   3.0259
     4.2489   4.2489   4.2489   4.2489   4.2840   4.2840   4.2840   4.2840
     6.0384   6.0384   6.0384   6.0384   7.2046   7.2047   7.2047   7.2047
     7.4547   7.4547   7.4547   7.4547

     occupation numbers 
     1.0000   1.0000   1.0000   1.0000   1.0000   1.0000   1.0000   1.0000
     1.0000   1.0000   1.0000   1.0000   1.0000   1.0000   1.0000   1.0000
     1.0000   1.0000   1.0000   1.0000   1.0000   1.0000   1.0000   1.0000
     1.0000   1.0000   1.0000   1.0000   1.0000   1.0000   1.0000   1.0000
     1.0000   1.0000   1.0000   1.0000

          k = 0.1667 0.0000 0.0000 (  3483 PWs)   bands (ev):

    -9.9829  -9.2172  -9.1802  -9.0181   2.3680   2.4470   2.5024   2.6605
     2.6955   2.7022   2.8087   2.8349   2.9330   3.1079   3.4132   3.5964
     4.0300   4.0772   4.0778   4.1799   4.3608   4.4122   4.4227   4.4268
     4.6387   4.9882   5.1530   5.2802   6.1676   7.0670   7.2000   7.4767
     7.4872   7.9345   8.5457   8.6316

     occupation numbers 
     1.0000   1.0000   1.0000   1.0000   1.0000   1.0000   1.0000   1.0000
     1.0000   1.0000   1.0000   1.0000   1.0000   1.0000   1.0000   1.0000
     1.0000   1.0000   1.0000   1.0000   1.0000   1.0000   1.0000   1.0000
     1.0000   1.0000   1.0000   1.0000   1.0000   1.0000   1.0000   1.0000
     1.0000   1.0000   1.0000   1.0000

          k = 0.1667 0.0000 0.1032 (  3482 PWs)   bands (ev):

    -9.9316  -9.2364  -9.2007  -9.0280   2.3202   2.3769   2.4005   2.5125
     2.6841   2.6905   2.8207   2.8271   2.9070   3.1039   3.3747   3.5097
     4.0632   4.1030   4.1388   4.2078   4.3476   4.3822   4.4462   4.4534
     4.9306   4.9739   5.1054   5.5159   6.3798   7.0956   7.2740   7.4396
     7.4922   7.7886   8.4632   8.5619

     occupation numbers 
     1.0000   1.0000   1.0000   1.0000   1.0000   1.0000   1.0000   1.0000
     1.0000   1.0000   1.0000   1.0000   1.0000   1.0000   1.0000   1.0000
     1.0000   1.0000   1.0000   1.0000   1.0000   1.0000   1.0000   1.0000
     1.0000   1.0000   1.0000   1.0000   1.0000   1.0000   1.0000   1.0000
     1.0000   1.0000   1.0000   1.0000

          k = 0.1667 0.0000 0.2065 (  3497 PWs)   bands (ev):

    -9.7897  -9.3883  -9.1577  -9.0577   2.2066   2.2099   2.2715   2.2805
     2.6919   2.7068   2.7898   2.8438   2.8581   3.0552   3.3225   3.3735
     4.1463   4.1652   4.2032   4.2323   4.3066   4.3273   4.5279   4.5324
     4.8706   4.9981   5.7001   5.9623   6.8754   6.8802   7.1379   7.4806
     7.4874   7.8485   8.1901   8.3708

     occupation numbers 
     1.0000   1.0000   1.0000   1.0000   1.0000   1.0000   1.0000   1.0000
     1.0000   1.0000   1.0000   1.0000   1.0000   1.0000   1.0000   1.0000
     1.0000   1.0000   1.0000   1.0000   1.0000   1.0000   1.0000   1.0000
     1.0000   1.0000   1.0000   1.0000   1.0000   1.0000   1.0000   1.0000
     1.0000   1.0000   1.0000   1.0000

          k = 0.1667 0.0000-0.3097 (  3500 PWs)   bands (ev):

    -9.5915  -9.5914  -9.1045  -9.1044   2.1566   2.1566   2.1825   2.1825
     2.7212   2.7212   2.7784   2.7784   2.9522   2.9522   3.3122   3.3122
     4.2287   4.2287   4.2404   4.2404   4.2447   4.2447   4.5807   4.5807
     4.8920   4.8920   6.4436   6.4436   6.4857   6.4857   7.3345   7.3346
     7.8109   7.8109   8.1113   8.1114

     occupation numbers 
     1.0000   1.0000   1.0000   1.0000   1.0000   1.0000   1.0000   1.0000
     1.0000   1.0000   1.0000   1.0000   1.0000   1.0000   1.0000   1.0000
     1.0000   1.0000   1.0000   1.0000   1.0000   1.0000   1.0000   1.0000
     1.0000   1.0000   1.0000   1.0000   1.0000   1.0000   1.0000   1.0000
     1.0000   1.0000   1.0000   1.0000

          k = 0.3333 0.1925 0.0000 (  3480 PWs)   bands (ev):

    -9.5390  -9.2925  -9.0338  -9.0076   2.1389   2.3442   2.5601   2.5916
     2.8345   2.8542   2.9982   3.0852   3.3071   3.3135   3.4265   3.5378
     3.9502   4.0351   4.1147   4.1804   4.3902   4.4195   4.4229   4.5590
     4.7543   4.8225   5.3475   5.4057   5.6259   6.0167   6.4547   6.6891
     7.3146   7.5608   7.8683   8.1253

     occupation numbers 
     1.0000   1.0000   1.0000   1.0000   1.0000   1.0000   1.0000   1.0000
     1.0000   1.0000   1.0000   1.0000   1.0000   1.0000   1.0000   1.0000
     1.0000   1.0000   1.0000   1.0000   1.0000   1.0000   1.0000   1.0000
     1.0000   1.0000   1.0000   1.0000   1.0000   1.0000   1.0000   1.0000
     1.0000   1.0000   1.0000   1.0000

          k = 0.3333 0.1925 0.1032 (  3472 PWs)   bands (ev):

    -9.5041  -9.2707  -9.0661  -9.0236   2.0963   2.2903   2.4157   2.4815
     2.8421   2.8582   2.9767   3.0549   3.2078   3.2649   3.3546   3.4498
     4.0092   4.0541   4.1931   4.2259   4.3729   4.4168   4.4664   4.6366
     4.7331   5.0346   5.4089   5.5537   5.7252   6.1996   6.3931   6.7967
     7.3068   7.5425   7.8869   8.0356

     occupation numbers 
     1.0000   1.0000   1.0000   1.0000   1.0000   1.0000   1.0000   1.0000
     1.0000   1.0000   1.0000   1.0000   1.0000   1.0000   1.0000   1.0000
     1.0000   1.0000   1.0000   1.0000   1.0000   1.0000   1.0000   1.0000
     1.0000   1.0000   1.0000   1.0000   1.0000   1.0000   1.0000   1.0000
     1.0000   1.0000   1.0000   1.0000

          k = 0.3333 0.1925 0.2065 (  3477 PWs)   bands (ev):

    -9.4092  -9.2128  -9.1558  -9.0698   2.0161   2.1566   2.1760   2.2597
     2.8653   2.9274   2.9643   3.0063   3.0825   3.1594   3.2697   3.3185
     4.1382   4.1599   4.2279   4.2692   4.3296   4.4033   4.4263   4.5769
     4.9164   5.3121   5.3822   5.7923   6.1048   6.5631   6.6832   7.0778
     7.0798   7.5662   7.7394   7.7877

     occupation numbers 
     1.0000   1.0000   1.0000   1.0000   1.0000   1.0000   1.0000   1.0000
     1.0000   1.0000   1.0000   1.0000   1.0000   1.0000   1.0000   1.0000
     1.0000   1.0000   1.0000   1.0000   1.0000   1.0000   1.0000   1.0000
     1.0000   1.0000   1.0000   1.0000   1.0000   1.0000   1.0000   1.0000
     1.0000   1.0000   1.0000   1.0000

          k = 0.3333 0.1925-0.3097 (  3482 PWs)   bands (ev):

    -9.2813  -9.2812  -9.1384  -9.1383   2.0099   2.0099   2.1368   2.1368
     2.9388   2.9388   2.9998   2.9998   3.0345   3.0345   3.2488   3.2488
     4.2444   4.2444   4.2768   4.2768   4.2805   4.2805   4.4821   4.4821
     5.1300   5.1300   5.6436   5.6436   6.5524   6.5524   7.2283   7.2283
     7.3300   7.3300   7.4406   7.4406

     occupation numbers 
     1.0000   1.0000   1.0000   1.0000   1.0000   1.0000   1.0000   1.0000
     1.0000   1.0000   1.0000   1.0000   1.0000   1.0000   1.0000   1.0000
     1.0000   1.0000   1.0000   1.0000   1.0000   1.0000   1.0000   1.0000
     1.0000   1.0000   1.0000   1.0000   1.0000   1.0000   1.0000   1.0000
     1.0000   1.0000   1.0000   1.0000

          k = 0.3333 0.2887 0.0000 (  3466 PWs)   bands (ev):

    -9.4222  -9.4221  -9.0142  -9.0141   2.1852   2.1852   2.5387   2.5387
     2.8340   2.8340   3.0732   3.0733   3.3675   3.3675   3.4183   3.4183
     4.0073   4.0073   4.1812   4.1812   4.4012   4.4012   4.5105   4.5105
     4.7851   4.7851   5.2797   5.2797   6.1376   6.1377   6.3119   6.3119
     7.6477   7.6477   7.9048   7.9048

     occupation numbers 
     1.0000   1.0000   1.0000   1.0000   1.0000   1.0000   1.0000   1.0000
     1.0000   1.0000   1.0000   1.0000   1.0000   1.0000   1.0000   1.0000
     1.0000   1.0000   1.0000   1.0000   1.0000   1.0000   1.0000   1.0000
     1.0000   1.0000   1.0000   1.0000   1.0000   1.0000   1.0000   1.0000
     1.0000   1.0000   1.0000   1.0000

          k = 0.3333 0.2887 0.1032 (  3490 PWs)   bands (ev):

    -9.3929  -9.3928  -9.0392  -9.0391   2.1361   2.1361   2.4083   2.4083
     2.8564   2.8564   3.0456   3.0456   3.2752   3.2752   3.3594   3.3594
     4.0441   4.0441   4.2302   4.2302   4.3858   4.3858   4.5321   4.5321
     4.8923   4.8923   5.4531   5.4532   6.1429   6.1430   6.4395   6.4395
     7.6849   7.6850   7.8190   7.8190

     occupation numbers 
     1.0000   1.0000   1.0000   1.0000   1.0000   1.0000   1.0000   1.0000
     1.0000   1.0000   1.0000   1.0000   1.0000   1.0000   1.0000   1.0000
     1.0000   1.0000   1.0000   1.0000   1.0000   1.0000   1.0000   1.0000
     1.0000   1.0000   1.0000   1.0000   1.0000   1.0000   1.0000   1.0000
     1.0000   1.0000   1.0000   1.0000

          k = 0.3333 0.2887 0.2065 (  3482 PWs)   bands (ev):

    -9.3141  -9.3140  -9.1094  -9.1093   2.0428   2.0428   2.1648   2.1648
     2.9221   2.9222   3.0181   3.0181   3.1614   3.1614   3.2413   3.2413
     4.1615   4.1615   4.2690   4.2690   4.3542   4.3542   4.4516   4.4516
     5.1368   5.1368   5.5382   5.5382   6.5293   6.5294   6.7681   6.7681
     7.5001   7.5001   7.6823   7.6823

     occupation numbers 
     1.0000   1.0000   1.0000   1.0000   1.0000   1.0000   1.0000   1.0000
     1.0000   1.0000   1.0000   1.0000   1.0000   1.0000   1.0000   1.0000
     1.0000   1.0000   1.0000   1.0000   1.0000   1.0000   1.0000   1.0000
     1.0000   1.0000   1.0000   1.0000   1.0000   1.0000   1.0000   1.0000
     1.0000   1.0000   1.0000   1.0000

          k = 0.3333 0.2887-0.3097 (  3468 PWs)   bands (ev):

    -9.2096  -9.2096  -9.2096  -9.2094   2.0260   2.0261   2.0261   2.0261
     2.9976   2.9976   2.9976   2.9976   3.1382   3.1382   3.1382   3.1382
     4.2733   4.2733   4.2733   4.2733   4.3509   4.3509   4.3509   4.3509
     5.3659   5.3659   5.3659   5.3659   7.0585   7.0585   7.0585   7.0585
     7.3165   7.3166   7.3166   7.3166

     occupation numbers 
     1.0000   1.0000   1.0000   1.0000   1.0000   1.0000   1.0000   1.0000
     1.0000   1.0000   1.0000   1.0000   1.0000   1.0000   1.0000   1.0000
     1.0000   1.0000   1.0000   1.0000   1.0000   1.0000   1.0000   1.0000
     1.0000   1.0000   1.0000   1.0000   1.0000   1.0000   1.0000   1.0000
     1.0000   1.0000   1.0000   1.0000

          k = 0.3333-0.0962 0.0000 (  3477 PWs)   bands (ev):

    -9.6202  -9.1734  -9.0528  -9.0275   2.2052   2.4610   2.5891   2.7835
     2.7840   2.9441   2.9668   3.0479   3.2108   3.2427   3.5201   3.6476
     3.9291   4.0285   4.0584   4.1319   4.3180   4.3690   4.3838   4.4392
     4.7917   4.8913   5.0222   5.3510   5.7400   6.2423   6.5778   6.8305
     6.9543   7.1718   8.0267   8.1402

     occupation numbers 
     1.0000   1.0000   1.0000   1.0000   1.0000   1.0000   1.0000   1.0000
     1.0000   1.0000   1.0000   1.0000   1.0000   1.0000   1.0000   1.0000
     1.0000   1.0000   1.0000   1.0000   1.0000   1.0000   1.0000   1.0000
     1.0000   1.0000   1.0000   1.0000   1.0000   1.0000   1.0000   1.0000
     1.0000   1.0000   1.0000   1.0000

          k = 0.3333-0.0962 0.1032 (  3475 PWs)   bands (ev):

    -9.5817  -9.1603  -9.0900  -9.0337   2.1614   2.4465   2.4520   2.6590
     2.7992   2.8346   2.9194   3.0483   3.1186   3.2040   3.4609   3.5288
     3.9905   4.0412   4.1631   4.1803   4.3672   4.4017   4.4352   4.4615
     4.9123   5.0701   5.1210   5.3141   5.8568   6.4428   6.5534   6.8650
     6.9175   7.2193   8.0085   8.0599

     occupation numbers 
     1.0000   1.0000   1.0000   1.0000   1.0000   1.0000   1.0000   1.0000
     1.0000   1.0000   1.0000   1.0000   1.0000   1.0000   1.0000   1.0000
     1.0000   1.0000   1.0000   1.0000   1.0000   1.0000   1.0000   1.0000
     1.0000   1.0000   1.0000   1.0000   1.0000   1.0000   1.0000   1.0000
     1.0000   1.0000   1.0000   1.0000

          k = 0.3333-0.0962 0.2065 (  3478 PWs)   bands (ev):

    -9.4767  -9.1923  -9.1267  -9.0534   2.0750   2.1923   2.3711   2.4335
     2.7455   2.8417   2.9003   2.9580   3.0257   3.1142   3.3956   3.4184
     4.1090   4.1212   4.1891   4.2109   4.3246   4.3934   4.5142   4.6616
     4.8520   5.1273   5.5733   5.5776   6.0874   6.5095   6.6088   6.9932
     7.0967   7.3963   7.7706   7.8459

     occupation numbers 
     1.0000   1.0000   1.0000   1.0000   1.0000   1.0000   1.0000   1.0000
     1.0000   1.0000   1.0000   1.0000   1.0000   1.0000   1.0000   1.0000
     1.0000   1.0000   1.0000   1.0000   1.0000   1.0000   1.0000   1.0000
     1.0000   1.0000   1.0000   1.0000   1.0000   1.0000   1.0000   1.0000
     1.0000   1.0000   1.0000   1.0000

          k = 0.3333-0.0962-0.3097 (  3484 PWs)   bands (ev):

    -9.3339  -9.3338  -9.0867  -9.0866   2.0573   2.0573   2.3164   2.3164
     2.8259   2.8259   2.8861   2.8861   3.0254   3.0255   3.3808   3.3808
     4.1583   4.1583   4.2537   4.2537   4.2819   4.2819   4.6439   4.6439
     4.9658   4.9658   5.9116   5.9116   6.0592   6.0592   7.2157   7.2157
     7.3505   7.3505   7.4873   7.4874

     occupation numbers 
     1.0000   1.0000   1.0000   1.0000   1.0000   1.0000   1.0000   1.0000
     1.0000   1.0000   1.0000   1.0000   1.0000   1.0000   1.0000   1.0000
     1.0000   1.0000   1.0000   1.0000   1.0000   1.0000   1.0000   1.0000
     1.0000   1.0000   1.0000   1.0000   1.0000   1.0000   1.0000   1.0000
     1.0000   1.0000   1.0000   1.0000

          k = 0.3333-0.0000 0.0000 (  3482 PWs)   bands (ev):

    -9.6493  -9.0824  -9.0823  -9.0605   2.2849   2.4840   2.5294   2.8290
     2.8824   2.9313   2.9313   3.1587   3.1939   3.2220   3.6389   3.6389
     3.9395   3.9756   4.1056   4.1318   4.1319   4.1595   4.3805   4.4544
     4.7797   4.7879   5.1701   5.1701   6.0200   6.3909   6.6698   6.6699
     6.8710   6.9561   8.0860   8.0947

     occupation numbers 
     1.0000   1.0000   1.0000   1.0000   1.0000   1.0000   1.0000   1.0000
     1.0000   1.0000   1.0000   1.0000   1.0000   1.0000   1.0000   1.0000
     1.0000   1.0000   1.0000   1.0000   1.0000   1.0000   1.0000   1.0000
     1.0000   1.0000   1.0000   1.0000   1.0000   1.0000   1.0000   1.0000
     1.0000   1.0000   1.0000   1.0000

          k = 0.3333-0.0000 0.1032 (  3481 PWs)   bands (ev):

    -9.6096  -9.0993  -9.0788  -9.0787   2.2356   2.4234   2.5120   2.7918
     2.7918   2.8179   2.8421   3.0801   3.1026   3.1870   3.5515   3.5515
     3.9934   3.9972   4.1496   4.1507   4.3222   4.3222   4.3646   4.4649
     4.9456   5.0754   5.1173   5.1173   6.1437   6.4112   6.7270   6.8452
     6.8452   6.9226   7.9912   8.0787

     occupation numbers 
     1.0000   1.0000   1.0000   1.0000   1.0000   1.0000   1.0000   1.0000
     1.0000   1.0000   1.0000   1.0000   1.0000   1.0000   1.0000   1.0000
     1.0000   1.0000   1.0000   1.0000   1.0000   1.0000   1.0000   1.0000
     1.0000   1.0000   1.0000   1.0000   1.0000   1.0000   1.0000   1.0000
     1.0000   1.0000   1.0000   1.0000

          k = 0.3333-0.0000 0.2065 (  3480 PWs)   bands (ev):

    -9.5011  -9.2061  -9.0715  -9.0714   2.1333   2.2012   2.5475   2.5475
     2.5960   2.8121   2.8275   2.9155   3.0150   3.1039   3.4843   3.4843
     4.0391   4.1200   4.1222   4.2061   4.3233   4.3937   4.5883   4.5883
     5.0003   5.0004   5.3409   5.6409   6.3069   6.3469   6.5768   7.0402
     7.1883   7.1883   7.7367   7.8606

     occupation numbers 
     1.0000   1.0000   1.0000   1.0000   1.0000   1.0000   1.0000   1.0000
     1.0000   1.0000   1.0000   1.0000   1.0000   1.0000   1.0000   1.0000
     1.0000   1.0000   1.0000   1.0000   1.0000   1.0000   1.0000   1.0000
     1.0000   1.0000   1.0000   1.0000   1.0000   1.0000   1.0000   1.0000
     1.0000   1.0000   1.0000   1.0000

          k = 0.3333-0.0000-0.3097 (  3470 PWs)   bands (ev):

    -9.3532  -9.3531  -9.0678  -9.0677   2.0916   2.0917   2.4401   2.4401
     2.7338   2.7339   2.8252   2.8252   3.0258   3.0258   3.4661   3.4661
     4.0829   4.0829   4.2490   4.2490   4.2841   4.2841   4.7406   4.7406
     4.8987   4.8987   5.8456   5.8456   6.0385   6.0385   7.2047   7.2047
     7.3586   7.3587   7.4545   7.4546

     occupation numbers 
     1.0000   1.0000   1.0000   1.0000   1.0000   1.0000   1.0000   1.0000
     1.0000   1.0000   1.0000   1.0000   1.0000   1.0000   1.0000   1.0000
     1.0000   1.0000   1.0000   1.0000   1.0000   1.0000   1.0000   1.0000
     1.0000   1.0000   1.0000   1.0000   1.0000   1.0000   1.0000   1.0000
     1.0000   1.0000   1.0000   1.0000

          k =-0.5000-0.2887 0.0000 (  3468 PWs)   bands (ev):

    -9.2818  -9.2817  -9.0132  -9.0131   2.2317   2.2317   2.3559   2.3559
     2.8831   2.8831   3.2090   3.2091   3.3309   3.3310   3.5290   3.5290
     4.1098   4.1098   4.3045   4.3045   4.4104   4.4104   4.4976   4.4976
     4.9517   4.9517   4.9774   4.9774   5.7026   5.7026   6.2214   6.2215
     7.3621   7.3621   7.8612   7.8612

     occupation numbers 
     1.0000   1.0000   1.0000   1.0000   1.0000   1.0000   1.0000   1.0000
     1.0000   1.0000   1.0000   1.0000   1.0000   1.0000   1.0000   1.0000
     1.0000   1.0000   1.0000   1.0000   1.0000   1.0000   1.0000   1.0000
     1.0000   1.0000   1.0000   1.0000   1.0000   1.0000   1.0000   1.0000
     1.0000   1.0000   1.0000   1.0000

          k =-0.5000-0.2887 0.1032 (  3464 PWs)   bands (ev):

    -9.2609  -9.2608  -9.0280  -9.0279   2.1657   2.1657   2.2477   2.2477
     2.9152   2.9153   3.1777   3.1777   3.2947   3.2947   3.4698   3.4698
     4.1911   4.1911   4.3079   4.3079   4.3926   4.3926   4.4965   4.4965
     4.9199   4.9199   4.9341   4.9341   6.0117   6.0117   6.3542   6.3542
     7.4495   7.4495   7.7625   7.7625

     occupation numbers 
     1.0000   1.0000   1.0000   1.0000   1.0000   1.0000   1.0000   1.0000
     1.0000   1.0000   1.0000   1.0000   1.0000   1.0000   1.0000   1.0000
     1.0000   1.0000   1.0000   1.0000   1.0000   1.0000   1.0000   1.0000
     1.0000   1.0000   1.0000   1.0000   1.0000   1.0000   1.0000   1.0000
     1.0000   1.0000   1.0000   1.0000

          k =-0.5000-0.2887 0.2065 (  3480 PWs)   bands (ev):

    -9.2058  -9.2057  -9.0710  -9.0709   2.0336   2.0337   2.0560   2.0560
     3.0085   3.0085   3.1534   3.1535   3.2252   3.2252   3.3233   3.3234
     4.3174   4.3174   4.3254   4.3254   4.3604   4.3604   4.4801   4.4801
     4.8694   4.8694   4.8972   4.8972   6.6543   6.6544   6.6879   6.6879
     7.4889   7.4890   7.5141   7.5141

     occupation numbers 
     1.0000   1.0000   1.0000   1.0000   1.0000   1.0000   1.0000   1.0000
     1.0000   1.0000   1.0000   1.0000   1.0000   1.0000   1.0000   1.0000
     1.0000   1.0000   1.0000   1.0000   1.0000   1.0000   1.0000   1.0000
     1.0000   1.0000   1.0000   1.0000   1.0000   1.0000   1.0000   1.0000
     1.0000   1.0000   1.0000   1.0000

          k =-0.5000-0.2887-0.3097 (  3488 PWs)   bands (ev):

    -9.1354  -9.1353  -9.1353  -9.1352   1.9693   1.9693   1.9693   1.9694
     3.1529   3.1529   3.1530   3.1530   3.1716   3.1716   3.1717   3.1717
[...]
     4.1619   4.1689   4.2328   4.2871   4.3064   4.3129   4.3504   4.4581
     4.9403   5.2692   5.6717   6.5961   6.7967   7.2946   7.5716   7.5904
     7.8819   8.0354   8.4091   8.5201

     occupation numbers 
     1.0000   1.0000   1.0000   1.0000   1.0000   1.0000   1.0000   1.0000
     1.0000   1.0000   1.0000   1.0000   1.0000   1.0000   1.0000   1.0000
     1.0000   1.0000   1.0000   1.0000   1.0000   1.0000   1.0000   1.0000
     1.0000   1.0000   1.0000   1.0000   1.0000   1.0000   1.0000   1.0000
     1.0000   1.0000   1.0000   1.0000

          k = 0.0000 0.1925-0.1032 (  3480 PWs)   bands (ev):

    -9.8907  -9.5041  -9.2170  -9.0661   2.0962   2.3148   2.4156   2.4471
     2.6966   2.7194   2.8463   2.8583   2.9365   2.9766   3.2078   3.2650
     4.0092   4.0464   4.1073   4.1931   4.3508   4.3729   4.3922   4.4664
     4.9830   5.0346   5.5536   6.3931   6.7969   7.0019   7.5347   7.5795
     7.8869   8.0358   8.4033   8.5284

     occupation numbers 
     1.0000   1.0000   1.0000   1.0000   1.0000   1.0000   1.0000   1.0000
     1.0000   1.0000   1.0000   1.0000   1.0000   1.0000   1.0000   1.0000
     1.0000   1.0000   1.0000   1.0000   1.0000   1.0000   1.0000   1.0000
     1.0000   1.0000   1.0000   1.0000   1.0000   1.0000   1.0000   1.0000
     1.0000   1.0000   1.0000   1.0000

          k = 0.0000 0.1925-0.2065 (  3481 PWs)   bands (ev):

    -9.7526  -9.4092  -9.3635  -9.1558   2.0160   2.1565   2.1921   2.2585
     2.7236   2.7329   2.8098   2.8699   2.9276   2.9643   3.0824   3.1595
     4.1378   4.1382   4.1671   4.2278   4.3082   4.3295   4.3328   4.4032
     5.3822   5.7097   5.7922   6.5631   7.0089   7.0780   7.3387   7.7393
     7.7851   7.7880   8.0952   8.3325

     occupation numbers 
     1.0000   1.0000   1.0000   1.0000   1.0000   1.0000   1.0000   1.0000
     1.0000   1.0000   1.0000   1.0000   1.0000   1.0000   1.0000   1.0000
     1.0000   1.0000   1.0000   1.0000   1.0000   1.0000   1.0000   1.0000
     1.0000   1.0000   1.0000   1.0000   1.0000   1.0000   1.0000   1.0000
     1.0000   1.0000   1.0000   1.0000

          k =-0.1667 0.0962-0.1032 (  3484 PWs)   bands (ev):

    -9.8907  -9.2707  -9.2170  -9.0236   2.2903   2.3149   2.4472   2.4815
     2.6965   2.7195   2.8421   2.8464   2.9364   3.0549   3.3545   3.4499
     4.0463   4.0540   4.1074   4.2259   4.3508   4.3922   4.4168   4.6365
     4.7331   4.9830   5.4088   5.7253   6.1997   7.0021   7.3070   7.5349
     7.5426   7.5793   8.4033   8.5282

     occupation numbers 
     1.0000   1.0000   1.0000   1.0000   1.0000   1.0000   1.0000   1.0000
     1.0000   1.0000   1.0000   1.0000   1.0000   1.0000   1.0000   1.0000
     1.0000   1.0000   1.0000   1.0000   1.0000   1.0000   1.0000   1.0000
     1.0000   1.0000   1.0000   1.0000   1.0000   1.0000   1.0000   1.0000
     1.0000   1.0000   1.0000   1.0000

          k =-0.1667 0.0962-0.2065 (  3492 PWs)   bands (ev):

    -9.7526  -9.3635  -9.2128  -9.0698   2.1760   2.1921   2.2586   2.2596
     2.7236   2.7327   2.8098   2.8653   2.8697   3.0063   3.2697   3.3186
     4.1378   4.1599   4.1671   4.2692   4.3082   4.3329   4.4263   4.5769
     4.9164   5.3120   5.7097   6.1049   6.6833   7.0090   7.0799   7.3389
     7.5662   7.7849   8.0954   8.3323

     occupation numbers 
     1.0000   1.0000   1.0000   1.0000   1.0000   1.0000   1.0000   1.0000
     1.0000   1.0000   1.0000   1.0000   1.0000   1.0000   1.0000   1.0000
     1.0000   1.0000   1.0000   1.0000   1.0000   1.0000   1.0000   1.0000
     1.0000   1.0000   1.0000   1.0000   1.0000   1.0000   1.0000   1.0000
     1.0000   1.0000   1.0000   1.0000

          k =-0.1667 0.1925-0.1032 (  3486 PWs)   bands (ev):

    -9.7758  -9.4268  -9.1651  -9.0448   2.2425   2.2659   2.4380   2.4386
     2.7397   2.7893   2.8462   2.9304   2.9592   3.0396   3.2313   3.3328
     3.9896   4.0188   4.1141   4.2096   4.3550   4.3871   4.4230   4.5414
     5.0014   5.0175   5.7256   6.0785   6.3058   6.5812   7.0088   7.3897
     7.6391   7.8063   8.2741   8.3269

     occupation numbers 
     1.0000   1.0000   1.0000   1.0000   1.0000   1.0000   1.0000   1.0000
     1.0000   1.0000   1.0000   1.0000   1.0000   1.0000   1.0000   1.0000
     1.0000   1.0000   1.0000   1.0000   1.0000   1.0000   1.0000   1.0000
     1.0000   1.0000   1.0000   1.0000   1.0000   1.0000   1.0000   1.0000
     1.0000   1.0000   1.0000   1.0000

          k =-0.1667 0.1925-0.2065 (  3485 PWs)   bands (ev):

    -9.6490  -9.3425  -9.2961  -9.1215   2.1345   2.1625   2.2133   2.2267
     2.7577   2.7855   2.8563   2.8917   2.9115   2.9684   3.1374   3.2274
     4.1262   4.1272   4.1730   4.2613   4.3101   4.3550   4.3614   4.4611
     5.3200   5.7205   5.7969   6.4731   6.5584   6.7023   6.9645   7.3653
     7.5121   7.7238   7.9705   8.1083

     occupation numbers 
     1.0000   1.0000   1.0000   1.0000   1.0000   1.0000   1.0000   1.0000
     1.0000   1.0000   1.0000   1.0000   1.0000   1.0000   1.0000   1.0000
     1.0000   1.0000   1.0000   1.0000   1.0000   1.0000   1.0000   1.0000
     1.0000   1.0000   1.0000   1.0000   1.0000   1.0000   1.0000   1.0000
     1.0000   1.0000   1.0000   1.0000

          k =-0.3333 0.1925-0.1032 (  3472 PWs)   bands (ev):

    -9.5041  -9.2707  -9.0661  -9.0236   2.0963   2.2903   2.4157   2.4815
     2.8421   2.8582   2.9767   3.0549   3.2078   3.2649   3.3546   3.4498
     4.0092   4.0541   4.1931   4.2259   4.3729   4.4168   4.4664   4.6366
     4.7331   5.0346   5.4089   5.5537   5.7252   6.1996   6.3932   6.7967
     7.3068   7.5425   7.8869   8.0356

     occupation numbers 
     1.0000   1.0000   1.0000   1.0000   1.0000   1.0000   1.0000   1.0000
     1.0000   1.0000   1.0000   1.0000   1.0000   1.0000   1.0000   1.0000
     1.0000   1.0000   1.0000   1.0000   1.0000   1.0000   1.0000   1.0000
     1.0000   1.0000   1.0000   1.0000   1.0000   1.0000   1.0000   1.0000
     1.0000   1.0000   1.0000   1.0000

          k =-0.3333 0.1925-0.2065 (  3477 PWs)   bands (ev):

    -9.4092  -9.2128  -9.1558  -9.0698   2.0161   2.1566   2.1760   2.2597
     2.8653   2.9274   2.9643   3.0063   3.0825   3.1594   3.2697   3.3185
     4.1382   4.1599   4.2279   4.2692   4.3296   4.4033   4.4263   4.5769
     4.9164   5.3121   5.3823   5.7923   6.1048   6.5631   6.6832   7.0778
     7.0798   7.5662   7.7394   7.7877

     occupation numbers 
     1.0000   1.0000   1.0000   1.0000   1.0000   1.0000   1.0000   1.0000
     1.0000   1.0000   1.0000   1.0000   1.0000   1.0000   1.0000   1.0000
     1.0000   1.0000   1.0000   1.0000   1.0000   1.0000   1.0000   1.0000
     1.0000   1.0000   1.0000   1.0000   1.0000   1.0000   1.0000   1.0000
     1.0000   1.0000   1.0000   1.0000

          k =-0.3333-0.0962-0.1032 (  3475 PWs)   bands (ev):

    -9.5817  -9.1603  -9.0900  -9.0337   2.1614   2.4465   2.4520   2.6590
     2.7992   2.8346   2.9194   3.0483   3.1186   3.2040   3.4609   3.5288
     3.9905   4.0412   4.1631   4.1803   4.3672   4.4017   4.4352   4.4615
     4.9123   5.0701   5.1210   5.3141   5.8568   6.4428   6.5534   6.8650
     6.9175   7.2193   8.0085   8.0599

     occupation numbers 
     1.0000   1.0000   1.0000   1.0000   1.0000   1.0000   1.0000   1.0000
     1.0000   1.0000   1.0000   1.0000   1.0000   1.0000   1.0000   1.0000
     1.0000   1.0000   1.0000   1.0000   1.0000   1.0000   1.0000   1.0000
     1.0000   1.0000   1.0000   1.0000   1.0000   1.0000   1.0000   1.0000
     1.0000   1.0000   1.0000   1.0000

          k =-0.3333-0.0962-0.2065 (  3478 PWs)   bands (ev):

    -9.4767  -9.1923  -9.1267  -9.0534   2.0750   2.1923   2.3711   2.4335
     2.7455   2.8417   2.9003   2.9580   3.0257   3.1142   3.3956   3.4184
     4.1090   4.1212   4.1891   4.2109   4.3246   4.3934   4.5142   4.6616
     4.8520   5.1273   5.5733   5.5776   6.0874   6.5095   6.6088   6.9932
     7.0967   7.3963   7.7706   7.8459

     occupation numbers 
     1.0000   1.0000   1.0000   1.0000   1.0000   1.0000   1.0000   1.0000
     1.0000   1.0000   1.0000   1.0000   1.0000   1.0000   1.0000   1.0000
     1.0000   1.0000   1.0000   1.0000   1.0000   1.0000   1.0000   1.0000
     1.0000   1.0000   1.0000   1.0000   1.0000   1.0000   1.0000   1.0000
     1.0000   1.0000   1.0000   1.0000

          k = 0.5000-0.1925-0.1032 (  3480 PWs)   bands (ev):

    -9.2642  -9.2641  -9.0265  -9.0264   2.1878   2.1879   2.3394   2.3394
     2.8849   2.8849   3.1389   3.1389   3.3164   3.3165   3.4662   3.4662
     4.1567   4.1567   4.2659   4.2659   4.4057   4.4057   4.5384   4.5384
     4.7864   4.7864   5.1530   5.1530   5.9252   5.9252   6.3142   6.3143
     7.4097   7.4098   7.6740   7.6741

     occupation numbers 
     1.0000   1.0000   1.0000   1.0000   1.0000   1.0000   1.0000   1.0000
     1.0000   1.0000   1.0000   1.0000   1.0000   1.0000   1.0000   1.0000
     1.0000   1.0000   1.0000   1.0000   1.0000   1.0000   1.0000   1.0000
     1.0000   1.0000   1.0000   1.0000   1.0000   1.0000   1.0000   1.0000
     1.0000   1.0000   1.0000   1.0000

          k = 0.5000-0.1925-0.2065 (  3486 PWs)   bands (ev):

    -9.2082  -9.2081  -9.0706  -9.0705   2.0666   2.0666   2.1275   2.1275
     2.9593   2.9593   3.1106   3.1106   3.2459   3.2459   3.3223   3.3223
     4.2484   4.2484   4.2941   4.2941   4.4039   4.4039   4.5158   4.5158
     4.8361   4.8361   5.0659   5.0659   6.4312   6.4313   6.7617   6.7617
     7.3071   7.3072   7.5586   7.5586

     occupation numbers 
     1.0000   1.0000   1.0000   1.0000   1.0000   1.0000   1.0000   1.0000
     1.0000   1.0000   1.0000   1.0000   1.0000   1.0000   1.0000   1.0000
     1.0000   1.0000   1.0000   1.0000   1.0000   1.0000   1.0000   1.0000
     1.0000   1.0000   1.0000   1.0000   1.0000   1.0000   1.0000   1.0000
     1.0000   1.0000   1.0000   1.0000

          k = 0.5000-0.0962-0.1032 (  3476 PWs)   bands (ev):

    -9.2707  -9.2706  -9.0237  -9.0236   2.2903   2.2904   2.4816   2.4816
     2.8420   2.8420   3.0548   3.0549   3.3546   3.3546   3.4498   3.4498
     4.0540   4.0540   4.2259   4.2259   4.4168   4.4168   4.6366   4.6366
     4.7331   4.7331   5.4089   5.4089   5.7251   5.7252   6.1996   6.1996
     7.3068   7.3068   7.5425   7.5425

     occupation numbers 
     1.0000   1.0000   1.0000   1.0000   1.0000   1.0000   1.0000   1.0000
     1.0000   1.0000   1.0000   1.0000   1.0000   1.0000   1.0000   1.0000
     1.0000   1.0000   1.0000   1.0000   1.0000   1.0000   1.0000   1.0000
     1.0000   1.0000   1.0000   1.0000   1.0000   1.0000   1.0000   1.0000
     1.0000   1.0000   1.0000   1.0000

          k = 0.5000-0.0962-0.2065 (  3488 PWs)   bands (ev):

    -9.2129  -9.2128  -9.0698  -9.0697   2.1760   2.1761   2.2597   2.2597
     2.8652   2.8653   3.0062   3.0063   3.2697   3.2697   3.3185   3.3185
     4.1599   4.1599   4.2692   4.2692   4.4263   4.4263   4.5769   4.5769
     4.9164   4.9164   5.3121   5.3121   6.1047   6.1047   6.6832   6.6832
     7.0798   7.0798   7.5661   7.5662

     occupation numbers 
     1.0000   1.0000   1.0000   1.0000   1.0000   1.0000   1.0000   1.0000
     1.0000   1.0000   1.0000   1.0000   1.0000   1.0000   1.0000   1.0000
     1.0000   1.0000   1.0000   1.0000   1.0000   1.0000   1.0000   1.0000
     1.0000   1.0000   1.0000   1.0000   1.0000   1.0000   1.0000   1.0000
     1.0000   1.0000   1.0000   1.0000

     highest occupied level (ev):     8.8141

!    total energy              =    -723.21711769 Ry
     estimated scf accuracy    <          1.3E-09 Ry

     The total energy is the sum of the following terms:
     one-electron contribution =    -280.45716195 Ry
     hartree contribution      =     226.56586426 Ry
     xc contribution           =    -219.62881642 Ry
     ewald contribution        =    -449.69700358 Ry

     convergence has been achieved in  31 iterations

     Forces acting on atoms (cartesian axes, Ry/au):

     atom    1 type  1   force =     0.00000000    0.00000241    0.00174222
     atom    2 type  2   force =     0.00000000    0.00000141   -0.00175441
     atom    3 type  1   force =     0.00000000    0.00000767    0.00177262
     atom    4 type  2   force =     0.00000000   -0.00000130   -0.00175448
     atom    5 type  1   force =     0.00000000    0.00002305    0.00173362
     atom    6 type  2   force =     0.00000000    0.00000205   -0.00175364
     atom    7 type  1   force =     0.00000000   -0.00003367    0.00176830
     atom    8 type  2   force =     0.00000000   -0.00000162   -0.00175423
     The non-local contrib.  to forces
     atom    1 type  1   force =     0.00000000   -0.00003421    0.01200713
     atom    2 type  2   force =     0.00000000    0.00019168    0.00090973
     atom    3 type  1   force =     0.00000000    0.00003856    0.01202136
     atom    4 type  2   force =     0.00000000   -0.00019339    0.00090623
     atom    5 type  1   force =     0.00000000   -0.00002355    0.01200497
     atom    6 type  2   force =     0.00000000    0.00019837    0.00091208
     atom    7 type  1   force =     0.00000000    0.00001840    0.01202120
     atom    8 type  2   force =     0.00000000   -0.00019692    0.00090698
     The ionic contribution  to forces
     atom    1 type  1   force =    -0.00000000   -0.00000000   -0.02254485
     atom    2 type  2   force =     0.00000000    0.00000000    0.02254485
     atom    3 type  1   force =     0.00000000    0.00000000   -0.02254485
     atom    4 type  2   force =     0.00000000   -0.00000000    0.02254485
     atom    5 type  1   force =     0.00000000   -0.00000000   -0.02254485
     atom    6 type  2   force =    -0.00000000    0.00000000    0.02254485
     atom    7 type  1   force =     0.00000000    0.00000000   -0.02254485
     atom    8 type  2   force =     0.00000000   -0.00000000    0.02254485
     The local contribution  to forces
     atom    1 type  1   force =    -0.00000000    0.00006097    0.01356946
     atom    2 type  2   force =     0.00000000   -0.00019840   -0.02521246
     atom    3 type  1   force =    -0.00000000   -0.00007988    0.01352443
     atom    4 type  2   force =    -0.00000000    0.00019770   -0.02523319
     atom    5 type  1   force =    -0.00000000    0.00003062    0.01358709
     atom    6 type  2   force =     0.00000000   -0.00018532   -0.02521087
     atom    7 type  1   force =    -0.00000000   -0.00001114    0.01353280
     atom    8 type  2   force =     0.00000000    0.00018334   -0.02522758
     The core correction contribution to forces
     atom    1 type  1   force =     0.00000007   -0.00000528   -0.00126686
     atom    2 type  2   force =     0.00000001   -0.00000220    0.00001236
     atom    3 type  1   force =     0.00000001    0.00000576   -0.00126641
     atom    4 type  2   force =     0.00000000    0.00000222    0.00001237
     atom    5 type  1   force =     0.00000001   -0.00000472   -0.00126755
     atom    6 type  2   force =     0.00000000   -0.00000225    0.00001235
     atom    7 type  1   force =     0.00000003    0.00000432   -0.00126677
     atom    8 type  2   force =     0.00000001    0.00000223    0.00001238
     The Hubbard contrib.    to forces
     atom    1 type  1   force =     0.00000000    0.00000000    0.00000000
     atom    2 type  2   force =     0.00000000    0.00000000    0.00000000
     atom    3 type  1   force =     0.00000000    0.00000000    0.00000000
     atom    4 type  2   force =     0.00000000    0.00000000    0.00000000
     atom    5 type  1   force =     0.00000000    0.00000000    0.00000000
     atom    6 type  2   force =     0.00000000    0.00000000    0.00000000
     atom    7 type  1   force =     0.00000000    0.00000000    0.00000000
     atom    8 type  2   force =     0.00000000    0.00000000    0.00000000
     The SCF correction term to forces
     atom    1 type  1   force =    -0.00000000   -0.00001928   -0.00002267
     atom    2 type  2   force =    -0.00000000    0.00001012   -0.00000889
     atom    3 type  1   force =    -0.00000000    0.00004302    0.00003808
     atom    4 type  2   force =    -0.00000000   -0.00000805    0.00001526
     atom    5 type  1   force =    -0.00000000    0.00002049   -0.00004604
     atom    6 type  2   force =     0.00000000   -0.00000896   -0.00001206
     atom    7 type  1   force =    -0.00000000   -0.00004545    0.00002592
     atom    8 type  2   force =     0.00000000    0.00000952    0.00000914

     Total force =     0.004962     Total SCF correction =     0.000102

     init_run     :      6.66s CPU      6.97s WALL (       1 calls)
     electrons    :    415.05s CPU    432.32s WALL (       1 calls)
     forces       :      1.69s CPU      1.71s WALL (       1 calls)

     Called by init_run:
     wfcinit      :      4.45s CPU      4.69s WALL (       1 calls)
     wfcinit:atom :      0.06s CPU      0.06s WALL (      40 calls)
     wfcinit:wfcr :      4.13s CPU      4.37s WALL (      40 calls)
     potinit      :      0.85s CPU      0.86s WALL (       1 calls)
     hinit0       :      0.92s CPU      0.93s WALL (       1 calls)

     Called by electrons:
     c_bands      :    364.46s CPU    379.17s WALL (      31 calls)
     sum_band     :     45.54s CPU     48.00s WALL (      31 calls)
     v_of_rho     :      1.67s CPU      1.73s WALL (      32 calls)
     v_h          :      0.09s CPU      0.10s WALL (      32 calls)
     v_xc         :      1.62s CPU      1.68s WALL (      33 calls)
     newd         :      3.11s CPU      3.16s WALL (      32 calls)
     mix_rho      :      0.28s CPU      0.29s WALL (      31 calls)

     Called by c_bands:
     init_us_2    :      2.80s CPU      2.84s WALL (    2560 calls)
     init_us_2:cp :      2.78s CPU      2.83s WALL (    2560 calls)
     cegterg      :    333.67s CPU    348.30s WALL (    1240 calls)

     Called by sum_band:
     sum_band:wei :      0.00s CPU      0.00s WALL (      31 calls)
     sum_band:loo :     41.59s CPU     43.94s WALL (      31 calls)
     sum_band:buf :      0.19s CPU      0.20s WALL (    1240 calls)
     sum_band:ini :      1.34s CPU      1.35s WALL (    1240 calls)
     sum_band:cal :      4.64s CPU      4.76s WALL (    1240 calls)
     sum_band:bec :      0.14s CPU      0.14s WALL (    1240 calls)
     addusdens    :      3.45s CPU      3.52s WALL (      31 calls)
                                        0.00s GPU  (      31 calls)
     addusd:skk   :      0.02s CPU      0.02s WALL (      62 calls)
                                        0.00s GPU  (      62 calls)

     Called by *egterg:
     cdiaghg      :     25.91s CPU     25.96s WALL (    6138 calls)
     cegterg:over :     15.51s CPU     15.89s WALL (    4898 calls)
     cegterg:upda :      9.20s CPU      9.23s WALL (    4898 calls)
     cegterg:last :     21.63s CPU     21.66s WALL (    3620 calls)
     h_psi        :    241.47s CPU    255.67s WALL (    6178 calls)
     s_psi        :     16.63s CPU     16.68s WALL (    6178 calls)
     g_psi        :      0.93s CPU      0.94s WALL (    4898 calls)

     Called by h_psi:
     h_psi:calbec :     15.80s CPU     16.40s WALL (    6178 calls)
     vloc_psi     :    208.11s CPU    221.62s WALL (    6178 calls)
     add_vuspsi   :     16.92s CPU     17.00s WALL (    6178 calls)

     General routines
     calbec       :     21.00s CPU     21.74s WALL (    7578 calls)
     fft          :      1.06s CPU      1.15s WALL (     425 calls)
     ffts         :      0.16s CPU      0.16s WALL (      63 calls)
     fftw         :    209.09s CPU    222.74s WALL (  331008 calls)
     interpolate  :      0.21s CPU      0.22s WALL (      32 calls)

     Parallel routines

     PWSCF        :   7m 3.97s CPU   7m21.59s WALL


   This run was terminated on:  14:28:11  13Jul2025            

=------------------------------------------------------------------------------=
   JOB DONE.
=------------------------------------------------------------------------------=
Note: The following floating-point exceptions are signalling: IEEE_INVALID_FLAG
Note: The following floating-point exceptions are signalling: IEEE_INVALID_FLAG
