Authorization required, but no authorization protocol specified

Authorization required, but no authorization protocol specified

Authorization required, but no authorization protocol specified

Authorization required, but no authorization protocol specified

Authorization required, but no authorization protocol specified

Authorization required, but no authorization protocol specified

Authorization required, but no authorization protocol specified

Authorization required, but no authorization protocol specified

Authorization required, but no authorization protocol specified

Authorization required, but no authorization protocol specified


     Program PWSCF v.7.2 starts on 13Jul2025 at 12:27:56 

     This program is part of the open-source Quantum ESPRESSO suite
     for quantum simulation of materials; please cite
         "P. Giannozzi et al., J. Phys.:Condens. Matter 21 395502 (2009);
         "P. Giannozzi et al., J. Phys.:Condens. Matter 29 465901 (2017);
         "P. Giannozzi et al., J. Chem. Phys. 152 154105 (2020);
          URL http://www.quantum-espresso.org", 
     in publications or presentations arising from this work. More details at
     http://www.quantum-espresso.org/quote

     Parallel version (MPI), running on     8 processors

     MPI processes distributed on     1 nodes
     56540 MiB available memory on the printing compute node when the environment starts

     Reading input from /home/jvc/QEspresso7.2/ZnO_database/scripts/cell121.in/ZnO-3.01-1.74-121.in
Warning: card &CELL ignored
Warning: card / ignored
Warning: card &FCP ignored
Warning: card / ignored
Warning: card &RISM ignored
Warning: card / ignored

     Current dimensions of program PWSCF are:
     Max number of different atomic species (ntypx) = 10
     Max number of k-points (npk) =  40000
     Max angular momentum in pseudopotentials (lmaxx) =  4
     file Zn.upf: wavefunction(s)  3D renormalized
     Found identity + (  0.0000 -0.5000  0.0000) symmetry
     This is a supercell, fractional translations are disabled
     Message from routine setup:
     using ibrav=0 with symmetry is DISCOURAGED, use correct ibrav instead

     K-points division:     npool     =       2
     R & G space division:  proc/nbgrp/npool/nimage =       4
     Subspace diagonalization in iterative solution of the eigenvalue problem:
     a serial algorithm will be used


     Parallelization info
     --------------------
     sticks:   dense  smooth     PW     G-vecs:    dense   smooth      PW
     Min         445     222     71                18723     6618    1186
     Max         446     223     74                18726     6621    1187
     Sum        1783     889    291                74901    26477    4747

     Using Slab Decomposition



     bravais-lattice index     =            0
     lattice parameter (alat)  =       5.6845  a.u.
     unit-cell volume          =     554.7172 (a.u.)^3
     number of atoms/cell      =            8
     number of atomic types    =            2
     number of electrons       =        72.00
     number of Kohn-Sham states=           36
     kinetic-energy cutoff     =      50.0000  Ry
     charge density cutoff     =     400.0000  Ry
     scf convergence threshold =      1.0E-08
     mixing beta               =       0.3000
     number of iterations used =            8  plain     mixing
     Exchange-correlation= PBE
                           (   1   4   3   4   0   0   0)

     celldm(1)=   5.684546  celldm(2)=   0.000000  celldm(3)=   0.000000
     celldm(4)=   0.000000  celldm(5)=   0.000000  celldm(6)=   0.000000

     crystal axes: (cart. coord. in units of alat)
               a(1) = (   1.000000   0.000000   0.000000 )  
               a(2) = (  -1.000000   1.732051   0.000000 )  
               a(3) = (   0.000000   0.000000   1.743507 )  

     reciprocal axes: (cart. coord. in units 2 pi/alat)
               b(1) = (  1.000000  0.577350 -0.000000 )  
               b(2) = (  0.000000  0.577350  0.000000 )  
               b(3) = (  0.000000 -0.000000  0.573557 )  


     PseudoPot. # 1 for Zn read from file:
     /home/jvc/QEspresso7.2/ZnO_database/pseudos/Zn.upf
     MD5 check sum: 7f56cabf9682ed8c977c2f7d0c5985c5
     Pseudo is Ultrasoft + core correction, Zval = 12.0
     Generated using &quot;atomic&quot; code by A. Dal Corso  v.6.2.2
     Using radial grid of 1201 points,  6 beta functions with: 
                l(1) =   0
                l(2) =   0
                l(3) =   1
                l(4) =   1
                l(5) =   2
                l(6) =   2
     Q(r) pseudized with 0 coefficients 


     PseudoPot. # 2 for O  read from file:
     /home/jvc/QEspresso7.2/ZnO_database/pseudos/O.upf
     MD5 check sum: 91400c9766925bcf19f520983a725ff0
     Pseudo is Ultrasoft + core correction, Zval =  6.0
     Generated using &quot;atomic&quot; code by A. Dal Corso  v.6.3MaX
     Using radial grid of 1095 points,  4 beta functions with: 
                l(1) =   0
                l(2) =   0
                l(3) =   1
                l(4) =   1
     Q(r) pseudized with 0 coefficients 


     atomic species   valence    mass     pseudopotential
        Zn            12.00    65.38000     Zn( 1.00)
        O              6.00    15.99900     O ( 1.00)

      2 Sym. Ops. (no inversion) found


                                    s                        frac. trans.

      isym =  1     identity                                     

 cryst.   s( 1) = (     1          0          0      )
                  (     0          1          0      )
                  (     0          0          1      )

 cart.    s( 1) = (  1.0000000  0.0000000  0.0000000 )
                  (  0.0000000  1.0000000  0.0000000 )
                  (  0.0000000  0.0000000  1.0000000 )


      isym =  2     inv. 180 deg rotation - cart. axis [1,0,0]   

 cryst.   s( 2) = (    -1          0          0      )
                  (     2          1          0      )
                  (     0          0          1      )

 cart.    s( 2) = ( -1.0000000  0.0000000  0.0000000 )
                  (  0.0000000  1.0000000  0.0000000 )
                  (  0.0000000  0.0000000  1.0000000 )


   Cartesian axes

     site n.     atom                  positions (alat units)
         1           Zn  tau(   1) = (   0.0000000   0.0000000   0.0000000  )
         2           O   tau(   2) = (   0.0000000   0.5773503   0.2446912  )
         3           Zn  tau(   3) = (   0.0000000   0.5773503   0.8717535  )
         4           O   tau(   4) = (   0.0000000   0.0000000   1.1164447  )
         5           Zn  tau(   5) = (  -0.5000000   0.8660254   0.0000000  )
         6           O   tau(   6) = (  -0.5000000   1.4433757   0.2446912  )
         7           Zn  tau(   7) = (  -0.5000000   1.4433757   0.8717535  )
         8           O   tau(   8) = (  -0.5000000   0.8660254   1.1164447  )

   Crystallographic axes

     site n.     atom                  positions (cryst. coord.)
         1           Zn  tau(   1) = (  0.0000000  0.0000000  0.0000000  )
         2           O   tau(   2) = (  0.3333333  0.3333333  0.1403443  )
         3           Zn  tau(   3) = (  0.3333333  0.3333333  0.5000000  )
         4           O   tau(   4) = (  0.0000000  0.0000000  0.6403443  )
         5           Zn  tau(   5) = (  0.0000000  0.5000000  0.0000000  )
         6           O   tau(   6) = (  0.3333333  0.8333333  0.1403443  )
         7           Zn  tau(   7) = (  0.3333333  0.8333333  0.5000000  )
         8           O   tau(   8) = (  0.0000000  0.5000000  0.6403443  )

     number of k points=    80
                       cart. coord. in units 2pi/alat
        k(    1) = (   0.0000000   0.0000000   0.0000000), wk =   0.0092593
        k(    2) = (   0.0000000   0.0000000   0.0955928), wk =   0.0185185
        k(    3) = (   0.0000000   0.0000000   0.1911855), wk =   0.0185185
        k(    4) = (   0.0000000   0.0000000  -0.2867783), wk =   0.0092593
        k(    5) = (   0.0000000   0.0962250   0.0000000), wk =   0.0185185
        k(    6) = (   0.0000000   0.0962250   0.0955928), wk =   0.0185185
        k(    7) = (   0.0000000   0.0962250   0.1911855), wk =   0.0185185
        k(    8) = (   0.0000000   0.0962250  -0.2867783), wk =   0.0185185
        k(    9) = (   0.0000000   0.1924501   0.0000000), wk =   0.0185185
        k(   10) = (   0.0000000   0.1924501   0.0955928), wk =   0.0185185
        k(   11) = (   0.0000000   0.1924501   0.1911855), wk =   0.0185185
        k(   12) = (   0.0000000   0.1924501  -0.2867783), wk =   0.0185185
        k(   13) = (   0.0000000  -0.2886751   0.0000000), wk =   0.0092593
        k(   14) = (   0.0000000  -0.2886751   0.0955928), wk =   0.0185185
        k(   15) = (   0.0000000  -0.2886751   0.1911855), wk =   0.0185185
        k(   16) = (   0.0000000  -0.2886751  -0.2867783), wk =   0.0092593
        k(   17) = (   0.1666667   0.0962250   0.0000000), wk =   0.0370370
        k(   18) = (   0.1666667   0.0962250   0.0955928), wk =   0.0370370
        k(   19) = (   0.1666667   0.0962250   0.1911855), wk =   0.0370370
        k(   20) = (   0.1666667   0.0962250  -0.2867783), wk =   0.0370370
        k(   21) = (   0.1666667   0.1924501   0.0000000), wk =   0.0370370
        k(   22) = (   0.1666667   0.1924501   0.0955928), wk =   0.0370370
        k(   23) = (   0.1666667   0.1924501   0.1911855), wk =   0.0370370
        k(   24) = (   0.1666667   0.1924501  -0.2867783), wk =   0.0370370
        k(   25) = (   0.1666667   0.2886751   0.0000000), wk =   0.0185185
        k(   26) = (   0.1666667   0.2886751   0.0955928), wk =   0.0370370
        k(   27) = (   0.1666667   0.2886751   0.1911855), wk =   0.0370370
        k(   28) = (   0.1666667   0.2886751  -0.2867783), wk =   0.0185185
        k(   29) = (   0.1666667   0.0000000   0.0000000), wk =   0.0185185
        k(   30) = (   0.1666667   0.0000000   0.0955928), wk =   0.0370370
        k(   31) = (   0.1666667   0.0000000   0.1911855), wk =   0.0370370
        k(   32) = (   0.1666667   0.0000000  -0.2867783), wk =   0.0185185
        k(   33) = (   0.3333333   0.1924501   0.0000000), wk =   0.0370370
        k(   34) = (   0.3333333   0.1924501   0.0955928), wk =   0.0370370
        k(   35) = (   0.3333333   0.1924501   0.1911855), wk =   0.0370370
        k(   36) = (   0.3333333   0.1924501  -0.2867783), wk =   0.0370370
        k(   37) = (   0.3333333   0.2886751   0.0000000), wk =   0.0185185
        k(   38) = (   0.3333333   0.2886751   0.0955928), wk =   0.0370370
        k(   39) = (   0.3333333   0.2886751   0.1911855), wk =   0.0370370
        k(   40) = (   0.3333333   0.2886751  -0.2867783), wk =   0.0185185
        k(   41) = (   0.3333333  -0.0962250   0.0000000), wk =   0.0370370
        k(   42) = (   0.3333333  -0.0962250   0.0955928), wk =   0.0370370
        k(   43) = (   0.3333333  -0.0962250   0.1911855), wk =   0.0370370
        k(   44) = (   0.3333333  -0.0962250  -0.2867783), wk =   0.0370370
        k(   45) = (   0.3333333  -0.0000000   0.0000000), wk =   0.0185185
        k(   46) = (   0.3333333  -0.0000000   0.0955928), wk =   0.0370370
        k(   47) = (   0.3333333  -0.0000000   0.1911855), wk =   0.0370370
        k(   48) = (   0.3333333  -0.0000000  -0.2867783), wk =   0.0185185
        k(   49) = (  -0.5000000  -0.2886751   0.0000000), wk =   0.0092593
        k(   50) = (  -0.5000000  -0.2886751   0.0955928), wk =   0.0185185
        k(   51) = (  -0.5000000  -0.2886751   0.1911855), wk =   0.0185185
        k(   52) = (  -0.5000000  -0.2886751  -0.2867783), wk =   0.0092593
        k(   53) = (  -0.5000000  -0.1924501   0.0000000), wk =   0.0185185
        k(   54) = (  -0.5000000  -0.1924501   0.0955928), wk =   0.0185185
        k(   55) = (  -0.5000000  -0.1924501   0.1911855), wk =   0.0185185
        k(   56) = (  -0.5000000  -0.1924501  -0.2867783), wk =   0.0185185
        k(   57) = (  -0.5000000  -0.0962250   0.0000000), wk =   0.0185185
        k(   58) = (  -0.5000000  -0.0962250   0.0955928), wk =   0.0185185
        k(   59) = (  -0.5000000  -0.0962250   0.1911855), wk =   0.0185185
        k(   60) = (  -0.5000000  -0.0962250  -0.2867783), wk =   0.0185185
        k(   61) = (  -0.5000000  -0.5773503   0.0000000), wk =   0.0092593
        k(   62) = (  -0.5000000  -0.5773503   0.0955928), wk =   0.0185185
        k(   63) = (  -0.5000000  -0.5773503   0.1911855), wk =   0.0185185
        k(   64) = (  -0.5000000  -0.5773503  -0.2867783), wk =   0.0092593
        k(   65) = (   0.0000000   0.0962250  -0.0955928), wk =   0.0185185
        k(   66) = (   0.0000000   0.0962250  -0.1911855), wk =   0.0185185
        k(   67) = (   0.0000000   0.1924501  -0.0955928), wk =   0.0185185
        k(   68) = (   0.0000000   0.1924501  -0.1911855), wk =   0.0185185
        k(   69) = (  -0.1666667   0.0962250  -0.0955928), wk =   0.0370370
        k(   70) = (  -0.1666667   0.0962250  -0.1911855), wk =   0.0370370
        k(   71) = (  -0.1666667   0.1924501  -0.0955928), wk =   0.0370370
        k(   72) = (  -0.1666667   0.1924501  -0.1911855), wk =   0.0370370
        k(   73) = (  -0.3333333   0.1924501  -0.0955928), wk =   0.0370370
        k(   74) = (  -0.3333333   0.1924501  -0.1911855), wk =   0.0370370
        k(   75) = (  -0.3333333  -0.0962250  -0.0955928), wk =   0.0370370
        k(   76) = (  -0.3333333  -0.0962250  -0.1911855), wk =   0.0370370
        k(   77) = (   0.5000000  -0.1924501  -0.0955928), wk =   0.0185185
        k(   78) = (   0.5000000  -0.1924501  -0.1911855), wk =   0.0185185
        k(   79) = (   0.5000000  -0.0962250  -0.0955928), wk =   0.0185185
        k(   80) = (   0.5000000  -0.0962250  -0.1911855), wk =   0.0185185

                       cryst. coord.
        k(    1) = (   0.0000000   0.0000000   0.0000000), wk =   0.0092593
        k(    2) = (   0.0000000   0.0000000   0.1666667), wk =   0.0185185
        k(    3) = (   0.0000000   0.0000000   0.3333333), wk =   0.0185185
        k(    4) = (   0.0000000   0.0000000  -0.5000000), wk =   0.0092593
        k(    5) = (   0.0000000   0.1666667   0.0000000), wk =   0.0185185
        k(    6) = (   0.0000000   0.1666667   0.1666667), wk =   0.0185185
        k(    7) = (   0.0000000   0.1666667   0.3333333), wk =   0.0185185
        k(    8) = (   0.0000000   0.1666667  -0.5000000), wk =   0.0185185
        k(    9) = (   0.0000000   0.3333333   0.0000000), wk =   0.0185185
        k(   10) = (   0.0000000   0.3333333   0.1666667), wk =   0.0185185
        k(   11) = (   0.0000000   0.3333333   0.3333333), wk =   0.0185185
        k(   12) = (   0.0000000   0.3333333  -0.5000000), wk =   0.0185185
        k(   13) = (   0.0000000  -0.5000000   0.0000000), wk =   0.0092593
        k(   14) = (   0.0000000  -0.5000000   0.1666667), wk =   0.0185185
        k(   15) = (   0.0000000  -0.5000000   0.3333333), wk =   0.0185185
        k(   16) = (   0.0000000  -0.5000000  -0.5000000), wk =   0.0092593
        k(   17) = (   0.1666667   0.0000000   0.0000000), wk =   0.0370370
        k(   18) = (   0.1666667   0.0000000   0.1666667), wk =   0.0370370
        k(   19) = (   0.1666667   0.0000000   0.3333333), wk =   0.0370370
        k(   20) = (   0.1666667   0.0000000  -0.5000000), wk =   0.0370370
        k(   21) = (   0.1666667   0.1666667   0.0000000), wk =   0.0370370
        k(   22) = (   0.1666667   0.1666667   0.1666667), wk =   0.0370370
        k(   23) = (   0.1666667   0.1666667   0.3333333), wk =   0.0370370
        k(   24) = (   0.1666667   0.1666667  -0.5000000), wk =   0.0370370
        k(   25) = (   0.1666667   0.3333333   0.0000000), wk =   0.0185185
        k(   26) = (   0.1666667   0.3333333   0.1666667), wk =   0.0370370
        k(   27) = (   0.1666667   0.3333333   0.3333333), wk =   0.0370370
        k(   28) = (   0.1666667   0.3333333  -0.5000000), wk =   0.0185185
        k(   29) = (   0.1666667  -0.1666667   0.0000000), wk =   0.0185185
        k(   30) = (   0.1666667  -0.1666667   0.1666667), wk =   0.0370370
        k(   31) = (   0.1666667  -0.1666667   0.3333333), wk =   0.0370370
        k(   32) = (   0.1666667  -0.1666667  -0.5000000), wk =   0.0185185
        k(   33) = (   0.3333333   0.0000000   0.0000000), wk =   0.0370370
        k(   34) = (   0.3333333   0.0000000   0.1666667), wk =   0.0370370
        k(   35) = (   0.3333333   0.0000000   0.3333333), wk =   0.0370370
        k(   36) = (   0.3333333   0.0000000  -0.5000000), wk =   0.0370370
        k(   37) = (   0.3333333   0.1666667   0.0000000), wk =   0.0185185
        k(   38) = (   0.3333333   0.1666667   0.1666667), wk =   0.0370370
        k(   39) = (   0.3333333   0.1666667   0.3333333), wk =   0.0370370
        k(   40) = (   0.3333333   0.1666667  -0.5000000), wk =   0.0185185
        k(   41) = (   0.3333333  -0.5000000   0.0000000), wk =   0.0370370
        k(   42) = (   0.3333333  -0.5000000   0.1666667), wk =   0.0370370
        k(   43) = (   0.3333333  -0.5000000   0.3333333), wk =   0.0370370
        k(   44) = (   0.3333333  -0.5000000  -0.5000000), wk =   0.0370370
        k(   45) = (   0.3333333  -0.3333333   0.0000000), wk =   0.0185185
        k(   46) = (   0.3333333  -0.3333333   0.1666667), wk =   0.0370370
        k(   47) = (   0.3333333  -0.3333333   0.3333333), wk =   0.0370370
        k(   48) = (   0.3333333  -0.3333333  -0.5000000), wk =   0.0185185
        k(   49) = (  -0.5000000   0.0000000   0.0000000), wk =   0.0092593
        k(   50) = (  -0.5000000   0.0000000   0.1666667), wk =   0.0185185
        k(   51) = (  -0.5000000   0.0000000   0.3333333), wk =   0.0185185
        k(   52) = (  -0.5000000   0.0000000  -0.5000000), wk =   0.0092593
        k(   53) = (  -0.5000000   0.1666667   0.0000000), wk =   0.0185185
        k(   54) = (  -0.5000000   0.1666667   0.1666667), wk =   0.0185185
        k(   55) = (  -0.5000000   0.1666667   0.3333333), wk =   0.0185185
        k(   56) = (  -0.5000000   0.1666667  -0.5000000), wk =   0.0185185
        k(   57) = (  -0.5000000   0.3333333   0.0000000), wk =   0.0185185
        k(   58) = (  -0.5000000   0.3333333   0.1666667), wk =   0.0185185
        k(   59) = (  -0.5000000   0.3333333   0.3333333), wk =   0.0185185
        k(   60) = (  -0.5000000   0.3333333  -0.5000000), wk =   0.0185185
        k(   61) = (  -0.5000000  -0.5000000   0.0000000), wk =   0.0092593
        k(   62) = (  -0.5000000  -0.5000000   0.1666667), wk =   0.0185185
        k(   63) = (  -0.5000000  -0.5000000   0.3333333), wk =   0.0185185
        k(   64) = (  -0.5000000  -0.5000000  -0.5000000), wk =   0.0092593
        k(   65) = (   0.0000000   0.1666667  -0.1666667), wk =   0.0185185
        k(   66) = (   0.0000000   0.1666667  -0.3333333), wk =   0.0185185
        k(   67) = (   0.0000000   0.3333333  -0.1666667), wk =   0.0185185
        k(   68) = (   0.0000000   0.3333333  -0.3333333), wk =   0.0185185
        k(   69) = (  -0.1666667   0.3333333  -0.1666667), wk =   0.0370370
        k(   70) = (  -0.1666667   0.3333333  -0.3333333), wk =   0.0370370
        k(   71) = (  -0.1666667   0.5000000  -0.1666667), wk =   0.0370370
        k(   72) = (  -0.1666667   0.5000000  -0.3333333), wk =   0.0370370
        k(   73) = (  -0.3333333   0.6666667  -0.1666667), wk =   0.0370370
        k(   74) = (  -0.3333333   0.6666667  -0.3333333), wk =   0.0370370
        k(   75) = (  -0.3333333   0.1666667  -0.1666667), wk =   0.0370370
        k(   76) = (  -0.3333333   0.1666667  -0.3333333), wk =   0.0370370
        k(   77) = (   0.5000000  -0.8333333  -0.1666667), wk =   0.0185185
        k(   78) = (   0.5000000  -0.8333333  -0.3333333), wk =   0.0185185
        k(   79) = (   0.5000000  -0.6666667  -0.1666667), wk =   0.0185185
        k(   80) = (   0.5000000  -0.6666667  -0.3333333), wk =   0.0185185

     Dense  grid:    74901 G-vectors     FFT dimensions: (  40,  75,  64)

     Smooth grid:    26477 G-vectors     FFT dimensions: (  25,  54,  45)

     Dynamical RAM for                 wfc:       0.45 MB

     Dynamical RAM for     wfc (w. buffer):      18.65 MB

     Dynamical RAM for           str. fact:       0.57 MB

     Dynamical RAM for           local pot:       0.00 MB

     Dynamical RAM for          nlocal pot:       1.31 MB

     Dynamical RAM for                qrad:       3.21 MB

     Dynamical RAM for          rho,v,vnew:       1.96 MB

     Dynamical RAM for               rhoin:       0.65 MB

     Dynamical RAM for            rho*nmix:       4.57 MB

     Dynamical RAM for           G-vectors:       1.12 MB

     Dynamical RAM for          h,s,v(r/c):       0.24 MB

     Dynamical RAM for          <psi|beta>:       0.06 MB

     Dynamical RAM for                 psi:       0.91 MB

     Dynamical RAM for                hpsi:       0.91 MB

     Dynamical RAM for                spsi:       0.91 MB

     Dynamical RAM for      wfcinit/wfcrot:       1.38 MB

     Dynamical RAM for           addusdens:      27.29 MB

     Dynamical RAM for          addusforce:      28.16 MB

     Estimated static dynamical RAM per process >      30.16 MB

     Estimated max dynamical RAM per process >      62.89 MB

     Estimated total dynamical RAM >     484.87 MB

     Check: negative core charge=   -0.000002

     Initial potential from superposition of free atoms

     starting charge      71.9851, renormalised to      72.0000
     Starting wfcs are   52 randomized atomic wfcs

     total cpu time spent up to now is        6.6 secs

     Self-consistent Calculation

     iteration #  1     ecut=    50.00 Ry     beta= 0.30
     Davidson diagonalization with overlap

---- Real-time Memory Report at c_bands before calling an iterative solver
            71 MiB given to the printing process from OS
             0 MiB allocation reported by mallinfo(arena+hblkhd)
         56178 MiB available memory on the node where the printing process lives
------------------
     ethr =  1.00E-02,  avg # of iterations =  2.0

     total cpu time spent up to now is       14.7 secs

     total energy              =    -722.87639139 Ry
     estimated scf accuracy    <       1.34209826 Ry

     iteration #  2     ecut=    50.00 Ry     beta= 0.30
     Davidson diagonalization with overlap

---- Real-time Memory Report at c_bands before calling an iterative solver
            96 MiB given to the printing process from OS
             0 MiB allocation reported by mallinfo(arena+hblkhd)
         56029 MiB available memory on the node where the printing process lives
------------------
     ethr =  1.86E-03,  avg # of iterations =  2.0

     total cpu time spent up to now is       24.7 secs

     total energy              =    -722.98802360 Ry
     estimated scf accuracy    <       0.24138592 Ry

     iteration #  3     ecut=    50.00 Ry     beta= 0.30
     Davidson diagonalization with overlap

---- Real-time Memory Report at c_bands before calling an iterative solver
            96 MiB given to the printing process from OS
             0 MiB allocation reported by mallinfo(arena+hblkhd)
         55959 MiB available memory on the node where the printing process lives
------------------
     ethr =  3.35E-04,  avg # of iterations =  6.4

     total cpu time spent up to now is       42.3 secs

     total energy              =    -723.11589609 Ry
     estimated scf accuracy    <       0.17165258 Ry

     iteration #  4     ecut=    50.00 Ry     beta= 0.30
     Davidson diagonalization with overlap

---- Real-time Memory Report at c_bands before calling an iterative solver
            96 MiB given to the printing process from OS
             0 MiB allocation reported by mallinfo(arena+hblkhd)
         55967 MiB available memory on the node where the printing process lives
------------------
     ethr =  2.38E-04,  avg # of iterations =  2.0

     total cpu time spent up to now is       51.4 secs

     total energy              =    -723.16462121 Ry
     estimated scf accuracy    <       0.02493332 Ry

     iteration #  5     ecut=    50.00 Ry     beta= 0.30
     Davidson diagonalization with overlap

---- Real-time Memory Report at c_bands before calling an iterative solver
            96 MiB given to the printing process from OS
             0 MiB allocation reported by mallinfo(arena+hblkhd)
         55960 MiB available memory on the node where the printing process lives
------------------
     ethr =  3.46E-05,  avg # of iterations = 11.1

     total cpu time spent up to now is       80.5 secs

     total energy              =    -723.36561062 Ry
     estimated scf accuracy    <       1.24128028 Ry

     iteration #  6     ecut=    50.00 Ry     beta= 0.30
     Davidson diagonalization with overlap

---- Real-time Memory Report at c_bands before calling an iterative solver
            96 MiB given to the printing process from OS
             0 MiB allocation reported by mallinfo(arena+hblkhd)
         55970 MiB available memory on the node where the printing process lives
------------------
     ethr =  3.46E-05,  avg # of iterations =  4.9

     total cpu time spent up to now is       93.9 secs

     total energy              =    -723.26799407 Ry
     estimated scf accuracy    <       0.84195192 Ry

     iteration #  7     ecut=    50.00 Ry     beta= 0.30
     Davidson diagonalization with overlap

---- Real-time Memory Report at c_bands before calling an iterative solver
            97 MiB given to the printing process from OS
             0 MiB allocation reported by mallinfo(arena+hblkhd)
         55971 MiB available memory on the node where the printing process lives
------------------
     ethr =  3.46E-05,  avg # of iterations =  5.1

     total cpu time spent up to now is      108.6 secs

     total energy              =    -723.01719175 Ry
     estimated scf accuracy    <       0.48313801 Ry

     iteration #  8     ecut=    50.00 Ry     beta= 0.30
     Davidson diagonalization with overlap

---- Real-time Memory Report at c_bands before calling an iterative solver
            97 MiB given to the printing process from OS
             0 MiB allocation reported by mallinfo(arena+hblkhd)
         55956 MiB available memory on the node where the printing process lives
------------------
     ethr =  3.46E-05,  avg # of iterations = 10.2

     total cpu time spent up to now is      135.0 secs

     total energy              =    -723.16753279 Ry
     estimated scf accuracy    <       0.03525514 Ry

     iteration #  9     ecut=    50.00 Ry     beta= 0.30
     Davidson diagonalization with overlap

---- Real-time Memory Report at c_bands before calling an iterative solver
            97 MiB given to the printing process from OS
             0 MiB allocation reported by mallinfo(arena+hblkhd)
         55964 MiB available memory on the node where the printing process lives
------------------
     ethr =  3.46E-05,  avg # of iterations =  1.3

     total cpu time spent up to now is      142.7 secs

     total energy              =    -723.16041148 Ry
     estimated scf accuracy    <       0.03929033 Ry

     iteration # 10     ecut=    50.00 Ry     beta= 0.30
     Davidson diagonalization with overlap

---- Real-time Memory Report at c_bands before calling an iterative solver
            97 MiB given to the printing process from OS
             0 MiB allocation reported by mallinfo(arena+hblkhd)
         55964 MiB available memory on the node where the printing process lives
------------------
     ethr =  3.46E-05,  avg # of iterations =  1.0

     total cpu time spent up to now is      150.3 secs

     total energy              =    -723.15048662 Ry
     estimated scf accuracy    <       0.02568374 Ry

     iteration # 11     ecut=    50.00 Ry     beta= 0.30
     Davidson diagonalization with overlap

---- Real-time Memory Report at c_bands before calling an iterative solver
            97 MiB given to the printing process from OS
             0 MiB allocation reported by mallinfo(arena+hblkhd)
         55965 MiB available memory on the node where the printing process lives
------------------
     ethr =  3.46E-05,  avg # of iterations =  2.1

     total cpu time spent up to now is      159.4 secs

     total energy              =    -723.15270077 Ry
     estimated scf accuracy    <       0.00563222 Ry

     iteration # 12     ecut=    50.00 Ry     beta= 0.30
     Davidson diagonalization with overlap

---- Real-time Memory Report at c_bands before calling an iterative solver
            97 MiB given to the printing process from OS
             0 MiB allocation reported by mallinfo(arena+hblkhd)
         55957 MiB available memory on the node where the printing process lives
------------------
     ethr =  7.82E-06,  avg # of iterations =  5.3

     total cpu time spent up to now is      173.7 secs

     total energy              =    -723.15602795 Ry
     estimated scf accuracy    <       0.00001442 Ry

     iteration # 13     ecut=    50.00 Ry     beta= 0.30
     Davidson diagonalization with overlap

---- Real-time Memory Report at c_bands before calling an iterative solver
            97 MiB given to the printing process from OS
             0 MiB allocation reported by mallinfo(arena+hblkhd)
         55973 MiB available memory on the node where the printing process lives
------------------
     c_bands:  1 eigenvalues not converged
     ethr =  2.00E-08,  avg # of iterations = 12.2

     total cpu time spent up to now is      205.0 secs

     total energy              =    -723.15627632 Ry
     estimated scf accuracy    <       0.00003332 Ry

     iteration # 14     ecut=    50.00 Ry     beta= 0.30
     Davidson diagonalization with overlap

---- Real-time Memory Report at c_bands before calling an iterative solver
            97 MiB given to the printing process from OS
             0 MiB allocation reported by mallinfo(arena+hblkhd)
         55980 MiB available memory on the node where the printing process lives
------------------
     ethr =  2.00E-08,  avg # of iterations =  6.5

     total cpu time spent up to now is      221.2 secs

     total energy              =    -723.15630027 Ry
     estimated scf accuracy    <       0.00014218 Ry

     iteration # 15     ecut=    50.00 Ry     beta= 0.30
     Davidson diagonalization with overlap

---- Real-time Memory Report at c_bands before calling an iterative solver
            97 MiB given to the printing process from OS
             0 MiB allocation reported by mallinfo(arena+hblkhd)
         55965 MiB available memory on the node where the printing process lives
------------------
     ethr =  2.00E-08,  avg # of iterations =  2.4

     total cpu time spent up to now is      230.0 secs

     total energy              =    -723.15641166 Ry
     estimated scf accuracy    <       0.00017646 Ry

     iteration # 16     ecut=    50.00 Ry     beta= 0.30
     Davidson diagonalization with overlap

---- Real-time Memory Report at c_bands before calling an iterative solver
            97 MiB given to the printing process from OS
             0 MiB allocation reported by mallinfo(arena+hblkhd)
         55964 MiB available memory on the node where the printing process lives
------------------
     ethr =  2.00E-08,  avg # of iterations =  9.0

     total cpu time spent up to now is      253.4 secs

     total energy              =    -723.15632546 Ry
     estimated scf accuracy    <       0.00074831 Ry

     iteration # 17     ecut=    50.00 Ry     beta= 0.30
     Davidson diagonalization with overlap

---- Real-time Memory Report at c_bands before calling an iterative solver
            97 MiB given to the printing process from OS
             0 MiB allocation reported by mallinfo(arena+hblkhd)
         55965 MiB available memory on the node where the printing process lives
------------------
     ethr =  2.00E-08,  avg # of iterations =  6.8

     total cpu time spent up to now is      271.5 secs

     total energy              =    -723.15631454 Ry
     estimated scf accuracy    <       0.00036411 Ry

     iteration # 18     ecut=    50.00 Ry     beta= 0.30
     Davidson diagonalization with overlap

---- Real-time Memory Report at c_bands before calling an iterative solver
            97 MiB given to the printing process from OS
             0 MiB allocation reported by mallinfo(arena+hblkhd)
         55965 MiB available memory on the node where the printing process lives
------------------
     ethr =  2.00E-08,  avg # of iterations =  2.2

     total cpu time spent up to now is      280.3 secs

     total energy              =    -723.15629825 Ry
     estimated scf accuracy    <       0.00030661 Ry

     iteration # 19     ecut=    50.00 Ry     beta= 0.30
     Davidson diagonalization with overlap

---- Real-time Memory Report at c_bands before calling an iterative solver
            97 MiB given to the printing process from OS
             0 MiB allocation reported by mallinfo(arena+hblkhd)
         55965 MiB available memory on the node where the printing process lives
------------------
     ethr =  2.00E-08,  avg # of iterations =  2.1

     total cpu time spent up to now is      289.9 secs

     total energy              =    -723.15625680 Ry
     estimated scf accuracy    <       0.00023429 Ry

     iteration # 20     ecut=    50.00 Ry     beta= 0.30
     Davidson diagonalization with overlap

---- Real-time Memory Report at c_bands before calling an iterative solver
            97 MiB given to the printing process from OS
             0 MiB allocation reported by mallinfo(arena+hblkhd)
         55962 MiB available memory on the node where the printing process lives
------------------
     ethr =  2.00E-08,  avg # of iterations =  6.1

     total cpu time spent up to now is      305.7 secs

     total energy              =    -723.15622262 Ry
     estimated scf accuracy    <       0.00009084 Ry

     iteration # 21     ecut=    50.00 Ry     beta= 0.30
     Davidson diagonalization with overlap

---- Real-time Memory Report at c_bands before calling an iterative solver
            97 MiB given to the printing process from OS
             0 MiB allocation reported by mallinfo(arena+hblkhd)
         55962 MiB available memory on the node where the printing process lives
------------------
     ethr =  2.00E-08,  avg # of iterations =  7.9

     total cpu time spent up to now is      325.8 secs

     total energy              =    -723.15624369 Ry
     estimated scf accuracy    <       0.00000030 Ry

     iteration # 22     ecut=    50.00 Ry     beta= 0.30
     Davidson diagonalization with overlap

---- Real-time Memory Report at c_bands before calling an iterative solver
            97 MiB given to the printing process from OS
             0 MiB allocation reported by mallinfo(arena+hblkhd)
         55962 MiB available memory on the node where the printing process lives
------------------
     ethr =  4.19E-10,  avg # of iterations =  7.1

     total cpu time spent up to now is      344.6 secs

     total energy              =    -723.15624423 Ry
     estimated scf accuracy    <       0.00000026 Ry

     iteration # 23     ecut=    50.00 Ry     beta= 0.30
     Davidson diagonalization with overlap

---- Real-time Memory Report at c_bands before calling an iterative solver
            97 MiB given to the printing process from OS
             0 MiB allocation reported by mallinfo(arena+hblkhd)
         55962 MiB available memory on the node where the printing process lives
------------------
     ethr =  3.57E-10,  avg # of iterations =  2.0

     total cpu time spent up to now is      353.3 secs

     total energy              =    -723.15624411 Ry
     estimated scf accuracy    <       0.00000049 Ry

     iteration # 24     ecut=    50.00 Ry     beta= 0.30
     Davidson diagonalization with overlap

---- Real-time Memory Report at c_bands before calling an iterative solver
            97 MiB given to the printing process from OS
             0 MiB allocation reported by mallinfo(arena+hblkhd)
         55962 MiB available memory on the node where the printing process lives
------------------
     ethr =  3.57E-10,  avg # of iterations =  1.9

     total cpu time spent up to now is      361.5 secs

     total energy              =    -723.15624396 Ry
     estimated scf accuracy    <       0.00000024 Ry

     iteration # 25     ecut=    50.00 Ry     beta= 0.30
     Davidson diagonalization with overlap

---- Real-time Memory Report at c_bands before calling an iterative solver
            97 MiB given to the printing process from OS
             0 MiB allocation reported by mallinfo(arena+hblkhd)
         55962 MiB available memory on the node where the printing process lives
------------------
     ethr =  3.37E-10,  avg # of iterations =  5.3

     total cpu time spent up to now is      376.7 secs

     total energy              =    -723.15624409 Ry
     estimated scf accuracy    <       0.00000006 Ry

     iteration # 26     ecut=    50.00 Ry     beta= 0.30
     Davidson diagonalization with overlap

---- Real-time Memory Report at c_bands before calling an iterative solver
            97 MiB given to the printing process from OS
             0 MiB allocation reported by mallinfo(arena+hblkhd)
         55963 MiB available memory on the node where the printing process lives
------------------
     ethr =  8.46E-11,  avg # of iterations =  3.3

     total cpu time spent up to now is      387.7 secs

     total energy              =    -723.15624407 Ry
     estimated scf accuracy    <       0.00000008 Ry

     iteration # 27     ecut=    50.00 Ry     beta= 0.30
     Davidson diagonalization with overlap

---- Real-time Memory Report at c_bands before calling an iterative solver
            97 MiB given to the printing process from OS
             0 MiB allocation reported by mallinfo(arena+hblkhd)
         55963 MiB available memory on the node where the printing process lives
------------------
     ethr =  8.46E-11,  avg # of iterations =  2.0

     total cpu time spent up to now is      396.2 secs

     total energy              =    -723.15624406 Ry
     estimated scf accuracy    <       0.00000003 Ry

     iteration # 28     ecut=    50.00 Ry     beta= 0.30
     Davidson diagonalization with overlap

---- Real-time Memory Report at c_bands before calling an iterative solver
            97 MiB given to the printing process from OS
             0 MiB allocation reported by mallinfo(arena+hblkhd)
         55963 MiB available memory on the node where the printing process lives
------------------
     ethr =  3.61E-11,  avg # of iterations =  5.6

     total cpu time spent up to now is      410.3 secs

     End of self-consistent calculation

          k = 0.0000 0.0000 0.0000 (  3281 PWs)   bands (ev):

    -9.7025  -8.8512  -8.7250  -8.4706   2.4680   2.6736   2.7889   2.9200
     3.2404   3.2406   3.4255   3.5342   3.5344   3.5775   3.7977   4.2165
     4.7091   4.7938   4.7939   5.0410   5.0411   5.0724   5.1226   5.2571
     5.2742   5.5700   5.9133   6.4226   7.1344   7.8972   8.7364   8.7368
     8.8615   9.4661   9.7013   9.7017

     occupation numbers 
     1.0000   1.0000   1.0000   1.0000   1.0000   1.0000   1.0000   1.0000
     1.0000   1.0000   1.0000   1.0000   1.0000   1.0000   1.0000   1.0000
     1.0000   1.0000   1.0000   1.0000   1.0000   1.0000   1.0000   1.0000
     1.0000   1.0000   1.0000   1.0000   1.0000   1.0000   1.0000   1.0000
     1.0000   1.0000   1.0000   1.0000

          k = 0.0000 0.0000 0.0956 (  3298 PWs)   bands (ev):

    -9.6498  -8.9131  -8.7063  -8.4858   2.4543   2.6132   2.6953   2.8597
     3.2546   3.2548   3.4652   3.5080   3.5081   3.5962   3.7710   4.1435
     4.7958   4.8135   4.8136   5.0287   5.0288   5.0738   5.1136   5.2489
     5.5240   5.5658   5.8506   6.6453   7.2712   7.9604   8.7554   8.8017
     8.8020   8.8781   9.6372   9.6376

     occupation numbers 
     1.0000   1.0000   1.0000   1.0000   1.0000   1.0000   1.0000   1.0000
     1.0000   1.0000   1.0000   1.0000   1.0000   1.0000   1.0000   1.0000
     1.0000   1.0000   1.0000   1.0000   1.0000   1.0000   1.0000   1.0000
     1.0000   1.0000   1.0000   1.0000   1.0000   1.0000   1.0000   1.0000
     1.0000   1.0000   1.0000   1.0000

          k = 0.0000 0.0000 0.1912 (  3314 PWs)   bands (ev):

    -9.5030  -9.0783  -8.6562  -8.5287   2.4655   2.4999   2.5306   2.7136
     3.2976   3.2979   3.4429   3.4431   3.5803   3.6347   3.7226   3.9644
     4.8663   4.8664   4.9641   4.9909   4.9909   5.0776   5.0971   5.2109
     5.5749   5.7240   6.1722   7.1717   7.6181   7.9680   7.9786   8.4630
     8.9796   8.9800   9.4619   9.4622

     occupation numbers 
     1.0000   1.0000   1.0000   1.0000   1.0000   1.0000   1.0000   1.0000
     1.0000   1.0000   1.0000   1.0000   1.0000   1.0000   1.0000   1.0000
     1.0000   1.0000   1.0000   1.0000   1.0000   1.0000   1.0000   1.0000
     1.0000   1.0000   1.0000   1.0000   1.0000   1.0000   1.0000   1.0000
     1.0000   1.0000   1.0000   1.0000

          k = 0.0000 0.0000-0.2868 (  3302 PWs)   bands (ev):

    -9.2953  -9.2952  -8.5907  -8.5907   2.4517   2.4517   2.5584   2.5585
     3.3648   3.3648   3.3650   3.3650   3.6767   3.6767   3.7570   3.7570
     4.9328   4.9328   4.9328   4.9328   5.0850   5.0850   5.1164   5.1164
     5.6224   5.6224   7.0354   7.0354   7.7053   7.7053   8.0527   8.0528
     9.2214   9.2214   9.2217   9.2218

     occupation numbers 
     1.0000   1.0000   1.0000   1.0000   1.0000   1.0000   1.0000   1.0000
     1.0000   1.0000   1.0000   1.0000   1.0000   1.0000   1.0000   1.0000
     1.0000   1.0000   1.0000   1.0000   1.0000   1.0000   1.0000   1.0000
     1.0000   1.0000   1.0000   1.0000   1.0000   1.0000   1.0000   1.0000
     1.0000   1.0000   1.0000   1.0000

          k = 0.0000 0.0962 0.0000 (  3304 PWs)   bands (ev):

    -9.6476  -8.8214  -8.8133  -8.4803   2.5565   2.5892   2.9253   2.9533
     3.1720   3.2620   3.4233   3.5138   3.5710   3.6045   3.7247   4.1610
     4.7198   4.7662   4.7913   5.0261   5.0439   5.0446   5.1079   5.2675
     5.3077   5.4683   5.6788   6.8145   7.2635   8.1189   8.4505   8.6382
     8.9272   9.2292   9.4268   9.6532

     occupation numbers 
     1.0000   1.0000   1.0000   1.0000   1.0000   1.0000   1.0000   1.0000
     1.0000   1.0000   1.0000   1.0000   1.0000   1.0000   1.0000   1.0000
     1.0000   1.0000   1.0000   1.0000   1.0000   1.0000   1.0000   1.0000
     1.0000   1.0000   1.0000   1.0000   1.0000   1.0000   1.0000   1.0000
     1.0000   1.0000   1.0000   1.0000

          k = 0.0000 0.0962 0.0956 (  3311 PWs)   bands (ev):

    -9.5962  -8.8811  -8.7897  -8.5011   2.5252   2.5442   2.8057   2.8757
     3.2074   3.2774   3.4609   3.4924   3.5440   3.5977   3.7173   4.0943
     4.7802   4.7894   4.8111   5.0293   5.0305   5.0325   5.0975   5.2356
     5.5223   5.5240   5.8865   6.8255   7.3925   8.1544   8.5116   8.7074
     8.7846   8.8240   9.3976   9.5861

     occupation numbers 
     1.0000   1.0000   1.0000   1.0000   1.0000   1.0000   1.0000   1.0000
     1.0000   1.0000   1.0000   1.0000   1.0000   1.0000   1.0000   1.0000
     1.0000   1.0000   1.0000   1.0000   1.0000   1.0000   1.0000   1.0000
     1.0000   1.0000   1.0000   1.0000   1.0000   1.0000   1.0000   1.0000
     1.0000   1.0000   1.0000   1.0000

          k = 0.0000 0.0962 0.1912 (  3327 PWs)   bands (ev):

    -9.4532  -9.0409  -8.7261  -8.5592   2.4668   2.5040   2.5908   2.7178
     3.2733   3.3229   3.4316   3.4757   3.5699   3.6100   3.6875   3.9296
     4.8487   4.8635   4.8916   4.9902   4.9907   5.0394   5.0766   5.1196
     5.6914   6.0221   6.1875   7.1331   7.7231   7.9546   8.0832   8.5397
     8.7093   8.8953   9.2163   9.4022

     occupation numbers 
     1.0000   1.0000   1.0000   1.0000   1.0000   1.0000   1.0000   1.0000
     1.0000   1.0000   1.0000   1.0000   1.0000   1.0000   1.0000   1.0000
     1.0000   1.0000   1.0000   1.0000   1.0000   1.0000   1.0000   1.0000
     1.0000   1.0000   1.0000   1.0000   1.0000   1.0000   1.0000   1.0000
     1.0000   1.0000   1.0000   1.0000

          k = 0.0000 0.0962-0.2868 (  3338 PWs)   bands (ev):

    -9.2512  -9.2512  -8.6413  -8.6413   2.4629   2.4629   2.5717   2.5717
     3.3513   3.3513   3.3938   3.3938   3.6452   3.6452   3.7362   3.7362
     4.9233   4.9233   4.9303   4.9304   5.0064   5.0064   5.0556   5.0556
     5.8873   5.8873   7.0530   7.0530   7.6998   7.6998   8.1419   8.1419
     8.9608   8.9608   9.1498   9.1498

     occupation numbers 
     1.0000   1.0000   1.0000   1.0000   1.0000   1.0000   1.0000   1.0000
     1.0000   1.0000   1.0000   1.0000   1.0000   1.0000   1.0000   1.0000
     1.0000   1.0000   1.0000   1.0000   1.0000   1.0000   1.0000   1.0000
     1.0000   1.0000   1.0000   1.0000   1.0000   1.0000   1.0000   1.0000
     1.0000   1.0000   1.0000   1.0000

          k = 0.0000 0.1925 0.0000 (  3318 PWs)   bands (ev):

    -9.4928  -9.0205  -8.7404  -8.5349   2.5899   2.7576   3.0259   3.0573
     3.0662   3.3155   3.4099   3.4754   3.4915   3.6681   3.6768   4.0160
     4.6664   4.6923   4.7983   4.9276   4.9743   5.0351   5.0505   5.0800
     5.2740   5.4713   6.0544   7.3617   7.5876   7.7198   8.3680   8.5759
     8.5809   9.0983   9.2867   9.5155

     occupation numbers 
     1.0000   1.0000   1.0000   1.0000   1.0000   1.0000   1.0000   1.0000
     1.0000   1.0000   1.0000   1.0000   1.0000   1.0000   1.0000   1.0000
     1.0000   1.0000   1.0000   1.0000   1.0000   1.0000   1.0000   1.0000
     1.0000   1.0000   1.0000   1.0000   1.0000   1.0000   1.0000   1.0000
     1.0000   1.0000   1.0000   1.0000

          k = 0.0000 0.1925 0.0956 (  3317 PWs)   bands (ev):

    -9.4453  -8.9879  -8.7939  -8.5671   2.5518   2.6835   2.8750   2.9088
     3.1668   3.3343   3.4419   3.4698   3.4733   3.6460   3.6632   3.9638
     4.6930   4.7254   4.8166   4.9364   5.0351   5.0392   5.0635   5.0665
     5.5329   5.6449   6.1761   7.2756   7.6998   7.7858   8.4069   8.4477
     8.5374   9.0026   9.1154   9.4404

     occupation numbers 
     1.0000   1.0000   1.0000   1.0000   1.0000   1.0000   1.0000   1.0000
     1.0000   1.0000   1.0000   1.0000   1.0000   1.0000   1.0000   1.0000
     1.0000   1.0000   1.0000   1.0000   1.0000   1.0000   1.0000   1.0000
     1.0000   1.0000   1.0000   1.0000   1.0000   1.0000   1.0000   1.0000
     1.0000   1.0000   1.0000   1.0000

          k = 0.0000 0.1925 0.1912 (  3326 PWs)   bands (ev):

    -9.3136  -8.9377  -8.8987  -8.6556   2.4888   2.5820   2.6520   2.7005
     3.2610   3.3892   3.4298   3.4902   3.5343   3.5678   3.6160   3.8322
     4.7839   4.8049   4.8659   4.9605   4.9889   4.9920   5.0227   5.0338
     6.0873   6.2242   6.4618   7.2241   7.7696   7.9934   8.1222   8.2706
     8.6625   8.7396   8.7490   9.2345

     occupation numbers 
     1.0000   1.0000   1.0000   1.0000   1.0000   1.0000   1.0000   1.0000
     1.0000   1.0000   1.0000   1.0000   1.0000   1.0000   1.0000   1.0000
     1.0000   1.0000   1.0000   1.0000   1.0000   1.0000   1.0000   1.0000
     1.0000   1.0000   1.0000   1.0000   1.0000   1.0000   1.0000   1.0000
     1.0000   1.0000   1.0000   1.0000

          k = 0.0000 0.1925-0.2868 (  3340 PWs)   bands (ev):

    -9.1287  -9.1287  -8.7770  -8.7770   2.5010   2.5010   2.5851   2.5851
     3.3506   3.3506   3.4727   3.4727   3.5479   3.5479   3.6735   3.6735
     4.9019   4.9019   4.9063   4.9063   4.9305   4.9305   4.9950   4.9950
     6.4092   6.4092   7.0655   7.0655   7.7068   7.7068   8.3736   8.3736
     8.3761   8.3761   8.9506   8.9506

     occupation numbers 
     1.0000   1.0000   1.0000   1.0000   1.0000   1.0000   1.0000   1.0000
     1.0000   1.0000   1.0000   1.0000   1.0000   1.0000   1.0000   1.0000
     1.0000   1.0000   1.0000   1.0000   1.0000   1.0000   1.0000   1.0000
     1.0000   1.0000   1.0000   1.0000   1.0000   1.0000   1.0000   1.0000
     1.0000   1.0000   1.0000   1.0000

          k = 0.0000-0.2887 0.0000 (  3330 PWs)   bands (ev):

    -9.2679  -9.2678  -8.6330  -8.6329   2.7071   2.7071   3.0965   3.0965
     3.2571   3.2571   3.3730   3.3731   3.5155   3.5155   3.8362   3.8362
     4.6139   4.6139   4.8410   4.8410   4.9850   4.9850   5.0608   5.0608
     5.3428   5.3428   6.8425   6.8425   7.9503   7.9503   7.9897   7.9897
     9.0059   9.0059   9.3149   9.3150

     occupation numbers 
     1.0000   1.0000   1.0000   1.0000   1.0000   1.0000   1.0000   1.0000
     1.0000   1.0000   1.0000   1.0000   1.0000   1.0000   1.0000   1.0000
     1.0000   1.0000   1.0000   1.0000   1.0000   1.0000   1.0000   1.0000
     1.0000   1.0000   1.0000   1.0000   1.0000   1.0000   1.0000   1.0000
     1.0000   1.0000   1.0000   1.0000

          k = 0.0000-0.2887 0.0956 (  3336 PWs)   bands (ev):

    -9.2268  -9.2268  -8.6769  -8.6769   2.6563   2.6563   2.9218   2.9218
     3.2809   3.2810   3.3979   3.3979   3.5350   3.5350   3.7972   3.7972
     4.6613   4.6613   4.8554   4.8554   5.0400   5.0401   5.0448   5.0448
     5.5735   5.5735   6.9262   6.9262   7.8399   7.8399   8.0844   8.0844
     8.8740   8.8740   9.2294   9.2294

     occupation numbers 
     1.0000   1.0000   1.0000   1.0000   1.0000   1.0000   1.0000   1.0000
     1.0000   1.0000   1.0000   1.0000   1.0000   1.0000   1.0000   1.0000
     1.0000   1.0000   1.0000   1.0000   1.0000   1.0000   1.0000   1.0000
     1.0000   1.0000   1.0000   1.0000   1.0000   1.0000   1.0000   1.0000
     1.0000   1.0000   1.0000   1.0000

          k = 0.0000-0.2887 0.1912 (  3332 PWs)   bands (ev):

    -9.1135  -9.1134  -8.7959  -8.7959   2.5683   2.5683   2.6790   2.6790
     3.3439   3.3439   3.4696   3.4696   3.4992   3.4992   3.6981   3.6981
     4.7635   4.7635   4.8947   4.8947   4.9941   4.9941   5.0031   5.0031
     6.2434   6.2434   7.1104   7.1104   7.6280   7.6280   8.3366   8.3366
     8.4487   8.4487   8.9947   8.9948

     occupation numbers 
     1.0000   1.0000   1.0000   1.0000   1.0000   1.0000   1.0000   1.0000
     1.0000   1.0000   1.0000   1.0000   1.0000   1.0000   1.0000   1.0000
     1.0000   1.0000   1.0000   1.0000   1.0000   1.0000   1.0000   1.0000
     1.0000   1.0000   1.0000   1.0000   1.0000   1.0000   1.0000   1.0000
     1.0000   1.0000   1.0000   1.0000

          k = 0.0000-0.2887-0.2868 (  3336 PWs)   bands (ev):

    -8.9561  -8.9561  -8.9561  -8.9561   2.5558   2.5558   2.5558   2.5558
     3.4233   3.4233   3.4233   3.4233   3.5772   3.5772   3.5772   3.5772
     4.8852   4.8852   4.8852   4.8852   4.9483   4.9483   4.9483   4.9483
     6.9002   6.9002   6.9002   6.9002   7.8640   7.8640   7.8641   7.8641
     8.6698   8.6699   8.6699   8.6699

     occupation numbers 
     1.0000   1.0000   1.0000   1.0000   1.0000   1.0000   1.0000   1.0000
     1.0000   1.0000   1.0000   1.0000   1.0000   1.0000   1.0000   1.0000
     1.0000   1.0000   1.0000   1.0000   1.0000   1.0000   1.0000   1.0000
     1.0000   1.0000   1.0000   1.0000   1.0000   1.0000   1.0000   1.0000
     1.0000   1.0000   1.0000   1.0000

          k = 0.1667 0.0962 0.0000 (  3307 PWs)   bands (ev):

    -9.4928  -8.7404  -8.7378  -8.4658   2.7576   2.7767   3.0259   3.0405
     3.0663   3.3153   3.3969   3.4755   3.6578   3.6767   3.7623   4.1611
     4.6923   4.6976   4.7705   4.7983   5.0351   5.0505   5.1604   5.2740
     5.3560   5.5217   5.9845   6.5198   6.7653   7.7200   7.9957   8.3678
     8.5098   8.5761   9.2867   9.5153

     occupation numbers 
     1.0000   1.0000   1.0000   1.0000   1.0000   1.0000   1.0000   1.0000
     1.0000   1.0000   1.0000   1.0000   1.0000   1.0000   1.0000   1.0000
     1.0000   1.0000   1.0000   1.0000   1.0000   1.0000   1.0000   1.0000
     1.0000   1.0000   1.0000   1.0000   1.0000   1.0000   1.0000   1.0000
     1.0000   1.0000   1.0000   1.0000

          k = 0.1667 0.0962 0.0956 (  3323 PWs)   bands (ev):

    -9.4453  -8.7939  -8.7180  -8.4822   2.6835   2.7366   2.8751   2.9402
     3.1669   3.3341   3.3753   3.4734   3.5874   3.6459   3.8151   4.0901
     4.7114   4.7254   4.8167   4.8828   5.0351   5.0392   5.1625   5.4042
     5.4562   5.5329   6.1315   6.5651   6.8831   7.7860   8.0274   8.3998
     8.4070   8.4474   9.1155   9.4401

     occupation numbers 
     1.0000   1.0000   1.0000   1.0000   1.0000   1.0000   1.0000   1.0000
     1.0000   1.0000   1.0000   1.0000   1.0000   1.0000   1.0000   1.0000
     1.0000   1.0000   1.0000   1.0000   1.0000   1.0000   1.0000   1.0000
     1.0000   1.0000   1.0000   1.0000   1.0000   1.0000   1.0000   1.0000
     1.0000   1.0000   1.0000   1.0000

          k = 0.1667 0.0962 0.1912 (  3320 PWs)   bands (ev):

    -9.3136  -8.9377  -8.6650  -8.5285   2.5820   2.6523   2.7006   2.7481
     3.2611   3.3684   3.3891   3.4299   3.5411   3.5676   3.8422   3.9725
     4.7984   4.8049   4.8660   4.9520   4.9890   4.9921   5.1768   5.2981
     5.6402   6.1076   6.2242   6.9039   7.2591   7.7697   7.9242   8.1223
     8.1729   8.6622   8.7492   9.2342

     occupation numbers 
     1.0000   1.0000   1.0000   1.0000   1.0000   1.0000   1.0000   1.0000
     1.0000   1.0000   1.0000   1.0000   1.0000   1.0000   1.0000   1.0000
     1.0000   1.0000   1.0000   1.0000   1.0000   1.0000   1.0000   1.0000
     1.0000   1.0000   1.0000   1.0000   1.0000   1.0000   1.0000   1.0000
     1.0000   1.0000   1.0000   1.0000

          k = 0.1667 0.0962-0.2868 (  3312 PWs)   bands (ev):

    -9.1287  -9.1287  -8.5951  -8.5951   2.5851   2.5851   2.6334   2.6334
     3.3508   3.3508   3.4488   3.4488   3.4725   3.4726   3.8875   3.8875
     4.9019   4.9019   4.9025   4.9025   4.9305   4.9305   5.2158   5.2158
     5.8897   5.8897   7.0656   7.0656   7.3617   7.3617   7.8872   7.8872
     8.3763   8.3763   8.9504   8.9504

     occupation numbers 
     1.0000   1.0000   1.0000   1.0000   1.0000   1.0000   1.0000   1.0000
     1.0000   1.0000   1.0000   1.0000   1.0000   1.0000   1.0000   1.0000
     1.0000   1.0000   1.0000   1.0000   1.0000   1.0000   1.0000   1.0000
     1.0000   1.0000   1.0000   1.0000   1.0000   1.0000   1.0000   1.0000
     1.0000   1.0000   1.0000   1.0000

          k = 0.1667 0.1925 0.0000 (  3320 PWs)   bands (ev):

    -9.3526  -8.9266  -8.6717  -8.5035   2.7727   2.8232   2.9871   3.0077
     3.1283   3.3370   3.3922   3.4897   3.5974   3.7649   3.8048   4.0007
     4.6115   4.6495   4.7461   4.7980   5.0213   5.0537   5.1056   5.2330
     5.3137   5.5648   6.1579   6.7915   7.2367   7.2623   7.8482   8.3349
     8.4874   8.7252   9.1322   9.3348

     occupation numbers 
     1.0000   1.0000   1.0000   1.0000   1.0000   1.0000   1.0000   1.0000
     1.0000   1.0000   1.0000   1.0000   1.0000   1.0000   1.0000   1.0000
     1.0000   1.0000   1.0000   1.0000   1.0000   1.0000   1.0000   1.0000
     1.0000   1.0000   1.0000   1.0000   1.0000   1.0000   1.0000   1.0000
     1.0000   1.0000   1.0000   1.0000

          k = 0.1667 0.1925 0.0956 (  3317 PWs)   bands (ev):

    -9.3089  -8.8977  -8.7193  -8.5310   2.7174   2.7479   2.8623   2.9044
     3.1962   3.3671   3.3775   3.4910   3.5167   3.7309   3.7967   3.9459
     4.6399   4.6871   4.8276   4.8844   5.0371   5.0497   5.1000   5.2256
     5.5577   5.6762   6.3310   6.8494   7.2211   7.3408   7.8485   8.3005
     8.4585   8.6133   8.9781   9.2502

     occupation numbers 
     1.0000   1.0000   1.0000   1.0000   1.0000   1.0000   1.0000   1.0000
     1.0000   1.0000   1.0000   1.0000   1.0000   1.0000   1.0000   1.0000
     1.0000   1.0000   1.0000   1.0000   1.0000   1.0000   1.0000   1.0000
     1.0000   1.0000   1.0000   1.0000   1.0000   1.0000   1.0000   1.0000
     1.0000   1.0000   1.0000   1.0000

          k = 0.1667 0.1925 0.1912 (  3319 PWs)   bands (ev):

    -9.1884  -8.8479  -8.8189  -8.6070   2.6199   2.6201   2.6743   2.7165
     3.2859   3.4001   3.4047   3.4496   3.5052   3.6454   3.7636   3.8367
     4.7475   4.7786   4.8782   4.9636   4.9939   4.9980   5.0877   5.1312
     6.0333   6.2483   6.5791   7.0280   7.4010   7.4760   7.7282   8.2451
     8.3281   8.4111   8.5518   9.0196

     occupation numbers 
     1.0000   1.0000   1.0000   1.0000   1.0000   1.0000   1.0000   1.0000
     1.0000   1.0000   1.0000   1.0000   1.0000   1.0000   1.0000   1.0000
     1.0000   1.0000   1.0000   1.0000   1.0000   1.0000   1.0000   1.0000
     1.0000   1.0000   1.0000   1.0000   1.0000   1.0000   1.0000   1.0000
     1.0000   1.0000   1.0000   1.0000

          k = 0.1667 0.1925-0.2868 (  3314 PWs)   bands (ev):

    -9.0202  -9.0202  -8.7122  -8.7122   2.5822   2.5822   2.5997   2.5997
     3.3685   3.3685   3.4451   3.4451   3.5478   3.5478   3.7588   3.7588
     4.8892   4.8892   4.8918   4.8918   4.9389   4.9389   5.0809   5.0809
     6.3695   6.3695   7.0134   7.0134   7.5546   7.5546   7.9955   7.9955
     8.0327   8.0327   8.7086   8.7086

     occupation numbers 
     1.0000   1.0000   1.0000   1.0000   1.0000   1.0000   1.0000   1.0000
     1.0000   1.0000   1.0000   1.0000   1.0000   1.0000   1.0000   1.0000
     1.0000   1.0000   1.0000   1.0000   1.0000   1.0000   1.0000   1.0000
     1.0000   1.0000   1.0000   1.0000   1.0000   1.0000   1.0000   1.0000
     1.0000   1.0000   1.0000   1.0000

          k = 0.1667 0.2887 0.0000 (  3314 PWs)   bands (ev):

    -9.1495  -9.1495  -8.5821  -8.5821   2.8057   2.8057   2.9855   2.9855
     3.2340   3.2340   3.5226   3.5226   3.6209   3.6209   3.8745   3.8745
     4.6083   4.6083   4.7858   4.7858   5.0594   5.0594   5.0665   5.0665
     5.4182   5.4182   6.7448   6.7449   7.2015   7.2015   7.8788   7.8788
     8.8709   8.8710   9.0315   9.0316

     occupation numbers 
     1.0000   1.0000   1.0000   1.0000   1.0000   1.0000   1.0000   1.0000
     1.0000   1.0000   1.0000   1.0000   1.0000   1.0000   1.0000   1.0000
     1.0000   1.0000   1.0000   1.0000   1.0000   1.0000   1.0000   1.0000
     1.0000   1.0000   1.0000   1.0000   1.0000   1.0000   1.0000   1.0000
     1.0000   1.0000   1.0000   1.0000

          k = 0.1667 0.2887 0.0956 (  3314 PWs)   bands (ev):

    -9.1122  -9.1122  -8.6207  -8.6206   2.7392   2.7392   2.8804   2.8804
     3.2730   3.2730   3.4321   3.4321   3.6487   3.6487   3.8364   3.8364
     4.6478   4.6478   4.8656   4.8656   5.0536   5.0536   5.0869   5.0869
     5.6276   5.6276   6.8512   6.8512   7.2252   7.2252   7.8522   7.8522
     8.7733   8.7733   8.9304   8.9305

     occupation numbers 
     1.0000   1.0000   1.0000   1.0000   1.0000   1.0000   1.0000   1.0000
     1.0000   1.0000   1.0000   1.0000   1.0000   1.0000   1.0000   1.0000
     1.0000   1.0000   1.0000   1.0000   1.0000   1.0000   1.0000   1.0000
     1.0000   1.0000   1.0000   1.0000   1.0000   1.0000   1.0000   1.0000
     1.0000   1.0000   1.0000   1.0000

          k = 0.1667 0.2887 0.1912 (  3328 PWs)   bands (ev):

    -9.0097  -9.0097  -8.7257  -8.7257   2.6251   2.6251   2.6797   2.6797
     3.3454   3.3454   3.4119   3.4119   3.6300   3.6300   3.7420   3.7420
     4.7526   4.7526   4.9267   4.9267   5.0213   5.0213   5.0239   5.0239
     6.2423   6.2423   7.1290   7.1290   7.1807   7.1807   7.9483   7.9483
     8.4166   8.4166   8.6596   8.6596

     occupation numbers 
     1.0000   1.0000   1.0000   1.0000   1.0000   1.0000   1.0000   1.0000
     1.0000   1.0000   1.0000   1.0000   1.0000   1.0000   1.0000   1.0000
     1.0000   1.0000   1.0000   1.0000   1.0000   1.0000   1.0000   1.0000
     1.0000   1.0000   1.0000   1.0000   1.0000   1.0000   1.0000   1.0000
     1.0000   1.0000   1.0000   1.0000

          k = 0.1667 0.2887-0.2868 (  3336 PWs)   bands (ev):

    -8.8684  -8.8684  -8.8684  -8.8683   2.5827   2.5828   2.5828   2.5828
     3.4045   3.4045   3.4045   3.4045   3.6490   3.6490   3.6490   3.6490
     4.8865   4.8865   4.8865   4.8865   4.9817   4.9817   4.9817   4.9817
     6.7978   6.7978   6.7978   6.7978   7.7519   7.7519   7.7519   7.7519
     8.3124   8.3124   8.3124   8.3124

     occupation numbers 
     1.0000   1.0000   1.0000   1.0000   1.0000   1.0000   1.0000   1.0000
     1.0000   1.0000   1.0000   1.0000   1.0000   1.0000   1.0000   1.0000
     1.0000   1.0000   1.0000   1.0000   1.0000   1.0000   1.0000   1.0000
     1.0000   1.0000   1.0000   1.0000   1.0000   1.0000   1.0000   1.0000
     1.0000   1.0000   1.0000   1.0000

          k = 0.1667 0.0000 0.0000 (  3305 PWs)   bands (ev):

    -9.5427  -8.7659  -8.6540  -8.4653   2.7156   2.7843   3.0107   3.0608
     3.0990   3.3057   3.4079   3.4875   3.6399   3.6762   3.6999   4.2178
     4.6783   4.7221   4.7865   4.9016   5.0446   5.0468   5.1726   5.2312
     5.2681   5.6661   6.0704   6.0761   6.9169   7.6577   8.0062   8.3316
     8.4319   8.8160   9.3376   9.5392

     occupation numbers 
     1.0000   1.0000   1.0000   1.0000   1.0000   1.0000   1.0000   1.0000
     1.0000   1.0000   1.0000   1.0000   1.0000   1.0000   1.0000   1.0000
     1.0000   1.0000   1.0000   1.0000   1.0000   1.0000   1.0000   1.0000
     1.0000   1.0000   1.0000   1.0000   1.0000   1.0000   1.0000   1.0000
     1.0000   1.0000   1.0000   1.0000

          k = 0.1667 0.0000 0.0956 (  3315 PWs)   bands (ev):

    -9.4939  -8.8215  -8.6394  -8.4758   2.6487   2.7541   2.8781   2.9712
     3.1572   3.3192   3.3480   3.4786   3.6107   3.6784   3.7572   4.1578
     4.7493   4.7521   4.8086   4.9095   5.0319   5.0400   5.1901   5.2472
     5.5288   5.6212   5.9929   6.2922   7.0784   7.7200   8.0778   8.3227
     8.3321   8.6659   9.1867   9.4656

     occupation numbers 
     1.0000   1.0000   1.0000   1.0000   1.0000   1.0000   1.0000   1.0000
     1.0000   1.0000   1.0000   1.0000   1.0000   1.0000   1.0000   1.0000
     1.0000   1.0000   1.0000   1.0000   1.0000   1.0000   1.0000   1.0000
     1.0000   1.0000   1.0000   1.0000   1.0000   1.0000   1.0000   1.0000
     1.0000   1.0000   1.0000   1.0000

          k = 0.1667 0.0000 0.1912 (  3308 PWs)   bands (ev):

    -9.3584  -8.9705  -8.6009  -8.5062   2.5658   2.6785   2.7100   2.7611
     3.2529   3.3406   3.3625   3.4334   3.5372   3.5789   3.8673   4.0514
     4.8205   4.8614   4.8635   4.9203   4.9897   4.9913   5.2644   5.2878
     5.5699   5.8097   6.2141   6.7657   7.4709   7.6714   7.8774   8.1086
     8.2764   8.7065   8.9014   9.2646

     occupation numbers 
     1.0000   1.0000   1.0000   1.0000   1.0000   1.0000   1.0000   1.0000
     1.0000   1.0000   1.0000   1.0000   1.0000   1.0000   1.0000   1.0000
     1.0000   1.0000   1.0000   1.0000   1.0000   1.0000   1.0000   1.0000
     1.0000   1.0000   1.0000   1.0000   1.0000   1.0000   1.0000   1.0000
     1.0000   1.0000   1.0000   1.0000

          k = 0.1667 0.0000-0.2868 (  3302 PWs)   bands (ev):

    -9.1679  -9.1679  -8.5515  -8.5515   2.5861   2.5861   2.6532   2.6532
     3.3408   3.3408   3.4390   3.4390   3.4505   3.4505   3.9588   3.9588
     4.9096   4.9096   4.9133   4.9133   4.9284   4.9284   5.3197   5.3197
     5.6285   5.6285   7.0703   7.0703   7.2799   7.2799   7.8696   7.8696
     8.5586   8.5586   8.9934   8.9934

     occupation numbers 
     1.0000   1.0000   1.0000   1.0000   1.0000   1.0000   1.0000   1.0000
     1.0000   1.0000   1.0000   1.0000   1.0000   1.0000   1.0000   1.0000
     1.0000   1.0000   1.0000   1.0000   1.0000   1.0000   1.0000   1.0000
     1.0000   1.0000   1.0000   1.0000   1.0000   1.0000   1.0000   1.0000
     1.0000   1.0000   1.0000   1.0000

          k = 0.3333 0.1925 0.0000 (  3299 PWs)   bands (ev):

    -9.0205  -8.7378  -8.5349  -8.4658   2.5900   2.7768   3.0405   3.0573
     3.3969   3.4097   3.4916   3.6578   3.6681   3.7624   4.0159   4.1610
     4.6665   4.6976   4.7706   4.9277   4.9742   5.0801   5.1604   5.3560
     5.4714   5.5217   5.9845   6.0546   6.5197   6.7652   7.3619   7.5874
     7.9957   8.5097   8.5809   9.0980

     occupation numbers 
     1.0000   1.0000   1.0000   1.0000   1.0000   1.0000   1.0000   1.0000
     1.0000   1.0000   1.0000   1.0000   1.0000   1.0000   1.0000   1.0000
     1.0000   1.0000   1.0000   1.0000   1.0000   1.0000   1.0000   1.0000
     1.0000   1.0000   1.0000   1.0000   1.0000   1.0000   1.0000   1.0000
     1.0000   1.0000   1.0000   1.0000

          k = 0.3333 0.1925 0.0956 (  3302 PWs)   bands (ev):

    -8.9879  -8.7180  -8.5671  -8.4822   2.5520   2.7368   2.9089   2.9402
     3.3752   3.4417   3.4698   3.5875   3.6632   3.8151   3.9637   4.0900
     4.6930   4.7115   4.8829   4.9364   5.0635   5.0666   5.1625   5.4042
     5.4563   5.6449   6.1315   6.1762   6.5651   6.8830   7.2757   7.6996
     8.0274   8.3997   8.5374   9.0023

     occupation numbers 
     1.0000   1.0000   1.0000   1.0000   1.0000   1.0000   1.0000   1.0000
     1.0000   1.0000   1.0000   1.0000   1.0000   1.0000   1.0000   1.0000
     1.0000   1.0000   1.0000   1.0000   1.0000   1.0000   1.0000   1.0000
     1.0000   1.0000   1.0000   1.0000   1.0000   1.0000   1.0000   1.0000
     1.0000   1.0000   1.0000   1.0000

          k = 0.3333 0.1925 0.1912 (  3310 PWs)   bands (ev):

    -8.8987  -8.6650  -8.6556  -8.5285   2.4889   2.6521   2.6524   2.7482
     3.3684   3.4903   3.5341   3.5411   3.6161   3.8320   3.8422   3.9724
     4.7839   4.7984   4.9520   4.9605   5.0227   5.0339   5.1768   5.2982
     5.6403   6.0873   6.1077   6.4620   6.9038   7.2242   7.2590   7.9241
     7.9931   8.1728   8.2707   8.7394

     occupation numbers 
     1.0000   1.0000   1.0000   1.0000   1.0000   1.0000   1.0000   1.0000
     1.0000   1.0000   1.0000   1.0000   1.0000   1.0000   1.0000   1.0000
     1.0000   1.0000   1.0000   1.0000   1.0000   1.0000   1.0000   1.0000
     1.0000   1.0000   1.0000   1.0000   1.0000   1.0000   1.0000   1.0000
     1.0000   1.0000   1.0000   1.0000

          k = 0.3333 0.1925-0.2868 (  3320 PWs)   bands (ev):

    -8.7770  -8.7770  -8.5951  -8.5951   2.5011   2.5011   2.6335   2.6335
     3.4488   3.4488   3.5479   3.5479   3.6734   3.6734   3.8874   3.8874
     4.9026   4.9026   4.9063   4.9063   4.9950   4.9950   5.2158   5.2158
     5.8898   5.8898   6.4093   6.4093   7.3616   7.3616   7.7068   7.7069
     7.8872   7.8872   8.3733   8.3734

     occupation numbers 
     1.0000   1.0000   1.0000   1.0000   1.0000   1.0000   1.0000   1.0000
     1.0000   1.0000   1.0000   1.0000   1.0000   1.0000   1.0000   1.0000
     1.0000   1.0000   1.0000   1.0000   1.0000   1.0000   1.0000   1.0000
     1.0000   1.0000   1.0000   1.0000   1.0000   1.0000   1.0000   1.0000
     1.0000   1.0000   1.0000   1.0000

          k = 0.3333 0.2887 0.0000 (  3322 PWs)   bands (ev):

    -8.8852  -8.8852  -8.4942  -8.4942   2.6270   2.6270   3.0165   3.0165
     3.3800   3.3800   3.6171   3.6171   3.7003   3.7003   4.0979   4.0979
     4.7132   4.7132   4.8467   4.8467   5.1035   5.1035   5.2205   5.2205
     5.5557   5.5557   5.8009   5.8009   7.0411   7.0411   7.1920   7.1920
     8.3224   8.3224   8.8805   8.8806

     occupation numbers 
     1.0000   1.0000   1.0000   1.0000   1.0000   1.0000   1.0000   1.0000
     1.0000   1.0000   1.0000   1.0000   1.0000   1.0000   1.0000   1.0000
     1.0000   1.0000   1.0000   1.0000   1.0000   1.0000   1.0000   1.0000
     1.0000   1.0000   1.0000   1.0000   1.0000   1.0000   1.0000   1.0000
     1.0000   1.0000   1.0000   1.0000

          k = 0.3333 0.2887 0.0956 (  3302 PWs)   bands (ev):

    -8.8582  -8.8581  -8.5193  -8.5193   2.5851   2.5852   2.8906   2.8906
     3.4094   3.4094   3.5611   3.5611   3.7248   3.7248   4.0326   4.0326
     4.7251   4.7251   4.9325   4.9325   5.0954   5.0954   5.2075   5.2075
     5.6238   5.6239   6.0089   6.0089   6.9824   6.9824   7.3227   7.3227
     8.3239   8.3239   8.7743   8.7743

     occupation numbers 
     1.0000   1.0000   1.0000   1.0000   1.0000   1.0000   1.0000   1.0000
     1.0000   1.0000   1.0000   1.0000   1.0000   1.0000   1.0000   1.0000
     1.0000   1.0000   1.0000   1.0000   1.0000   1.0000   1.0000   1.0000
     1.0000   1.0000   1.0000   1.0000   1.0000   1.0000   1.0000   1.0000
     1.0000   1.0000   1.0000   1.0000

          k = 0.3333 0.2887 0.1912 (  3312 PWs)   bands (ev):

    -8.7848  -8.7847  -8.5888  -8.5888   2.5139   2.5139   2.6582   2.6582
     3.4795   3.4795   3.5526   3.5526   3.7161   3.7161   3.8882   3.8882
     4.8079   4.8079   4.9828   4.9828   5.0764   5.0764   5.1167   5.1167
     5.8771   5.8771   6.2693   6.2693   7.1130   7.1130   7.6397   7.6397
     8.1762   8.1762   8.4878   8.4878

     occupation numbers 
     1.0000   1.0000   1.0000   1.0000   1.0000   1.0000   1.0000   1.0000
     1.0000   1.0000   1.0000   1.0000   1.0000   1.0000   1.0000   1.0000
     1.0000   1.0000   1.0000   1.0000   1.0000   1.0000   1.0000   1.0000
     1.0000   1.0000   1.0000   1.0000   1.0000   1.0000   1.0000   1.0000
     1.0000   1.0000   1.0000   1.0000

          k = 0.3333 0.2887-0.2868 (  3312 PWs)   bands (ev):

    -8.6858  -8.6858  -8.6858  -8.6858   2.5177   2.5177   2.5177   2.5177
     3.5477   3.5477   3.5477   3.5477   3.7518   3.7518   3.7518   3.7518
     4.9231   4.9231   4.9231   4.9231   5.0686   5.0686   5.0686   5.0686
     6.1368   6.1368   6.1368   6.1368   7.6611   7.6611   7.6611   7.6611
     8.1062   8.1062   8.1062   8.1062

     occupation numbers 
     1.0000   1.0000   1.0000   1.0000   1.0000   1.0000   1.0000   1.0000
     1.0000   1.0000   1.0000   1.0000   1.0000   1.0000   1.0000   1.0000
     1.0000   1.0000   1.0000   1.0000   1.0000   1.0000   1.0000   1.0000
     1.0000   1.0000   1.0000   1.0000   1.0000   1.0000   1.0000   1.0000
     1.0000   1.0000   1.0000   1.0000

          k = 0.3333-0.0962 0.0000 (  3313 PWs)   bands (ev):

    -9.1154  -8.6072  -8.5690  -8.4682   2.6830   2.8377   3.0777   3.2803
     3.3237   3.4699   3.5014   3.6151   3.6307   3.8608   3.9256   4.1688
     4.6152   4.6382   4.7742   4.8214   5.0297   5.0717   5.0903   5.1634
     5.4274   5.7021   5.8259   6.1876   6.4410   6.8816   7.4224   7.6536
     7.7501   8.0972   8.7858   9.0956

     occupation numbers 
     1.0000   1.0000   1.0000   1.0000   1.0000   1.0000   1.0000   1.0000
     1.0000   1.0000   1.0000   1.0000   1.0000   1.0000   1.0000   1.0000
     1.0000   1.0000   1.0000   1.0000   1.0000   1.0000   1.0000   1.0000
     1.0000   1.0000   1.0000   1.0000   1.0000   1.0000   1.0000   1.0000
     1.0000   1.0000   1.0000   1.0000

          k = 0.3333-0.0962 0.0956 (  3307 PWs)   bands (ev):

    -9.0793  -8.6059  -8.5957  -8.4753   2.6365   2.8478   2.9280   3.1577
     3.3255   3.3675   3.4495   3.5657   3.6438   3.8808   3.9266   4.1575
     4.6540   4.6790   4.8321   4.8848   5.0561   5.0740   5.1610   5.1868
     5.6290   5.6550   5.9681   6.1238   6.5434   7.0514   7.4032   7.7085
     7.7775   7.9963   8.7028   8.9987

     occupation numbers 
     1.0000   1.0000   1.0000   1.0000   1.0000   1.0000   1.0000   1.0000
     1.0000   1.0000   1.0000   1.0000   1.0000   1.0000   1.0000   1.0000
     1.0000   1.0000   1.0000   1.0000   1.0000   1.0000   1.0000   1.0000
     1.0000   1.0000   1.0000   1.0000   1.0000   1.0000   1.0000   1.0000
     1.0000   1.0000   1.0000   1.0000

          k = 0.3333-0.0962 0.1912 (  3303 PWs)   bands (ev):

    -8.9802  -8.7067  -8.5660  -8.4963   2.5559   2.6822   2.8406   2.9400
     3.2248   3.3969   3.4420   3.4592   3.6192   3.7711   4.0106   4.1244
     4.7570   4.7579   4.8604   4.9335   5.0191   5.0237   5.2585   5.3772
     5.5396   5.9033   6.2066   6.4147   6.7851   7.3001   7.3186   7.6309
     7.9606   7.9932   8.3681   8.7359

     occupation numbers 
     1.0000   1.0000   1.0000   1.0000   1.0000   1.0000   1.0000   1.0000
     1.0000   1.0000   1.0000   1.0000   1.0000   1.0000   1.0000   1.0000
     1.0000   1.0000   1.0000   1.0000   1.0000   1.0000   1.0000   1.0000
     1.0000   1.0000   1.0000   1.0000   1.0000   1.0000   1.0000   1.0000
     1.0000   1.0000   1.0000   1.0000

          k = 0.3333-0.0962-0.2868 (  3296 PWs)   bands (ev):

    -8.8439  -8.8438  -8.5290  -8.5290   2.5490   2.5490   2.8299   2.8299
     3.2874   3.2874   3.4580   3.4580   3.6535   3.6535   4.0755   4.0755
     4.8260   4.8260   4.8882   4.8882   4.9833   4.9833   5.3723   5.3723
     5.6716   5.6716   6.6734   6.6734   6.9180   6.9180   7.7303   7.7303
     7.8657   7.8657   8.3817   8.3817

     occupation numbers 
     1.0000   1.0000   1.0000   1.0000   1.0000   1.0000   1.0000   1.0000
     1.0000   1.0000   1.0000   1.0000   1.0000   1.0000   1.0000   1.0000
     1.0000   1.0000   1.0000   1.0000   1.0000   1.0000   1.0000   1.0000
     1.0000   1.0000   1.0000   1.0000   1.0000   1.0000   1.0000   1.0000
     1.0000   1.0000   1.0000   1.0000

          k = 0.3333-0.0000 0.0000 (  3325 PWs)   bands (ev):

    -9.1495  -8.5821  -8.5143  -8.5143   2.8059   2.8376   2.9855   3.2340
     3.5225   3.5490   3.5490   3.6149   3.6210   3.8743   3.9864   3.9865
     4.6082   4.6437   4.7859   4.8105   4.9828   4.9829   5.0594   5.0665
     5.4183   5.6512   5.9526   5.9526   6.7449   7.2016   7.3316   7.3316
     7.8387   7.8787   8.8709   9.0313

     occupation numbers 
     1.0000   1.0000   1.0000   1.0000   1.0000   1.0000   1.0000   1.0000
     1.0000   1.0000   1.0000   1.0000   1.0000   1.0000   1.0000   1.0000
     1.0000   1.0000   1.0000   1.0000   1.0000   1.0000   1.0000   1.0000
     1.0000   1.0000   1.0000   1.0000   1.0000   1.0000   1.0000   1.0000
     1.0000   1.0000   1.0000   1.0000

          k = 0.3333-0.0000 0.0956 (  3307 PWs)   bands (ev):

    -9.1122  -8.6207  -8.5119  -8.5119   2.7393   2.8717   2.8804   3.2730
     3.3568   3.3568   3.4320   3.5266   3.6487   3.8363   4.0942   4.0942
     4.6478   4.6627   4.8017   4.8657   5.0537   5.0725   5.0725   5.0869
     5.6276   5.8074   5.8799   5.8799   6.8513   7.2253   7.4700   7.4701
     7.6802   7.8520   8.7733   8.9303

     occupation numbers 
     1.0000   1.0000   1.0000   1.0000   1.0000   1.0000   1.0000   1.0000
     1.0000   1.0000   1.0000   1.0000   1.0000   1.0000   1.0000   1.0000
     1.0000   1.0000   1.0000   1.0000   1.0000   1.0000   1.0000   1.0000
     1.0000   1.0000   1.0000   1.0000   1.0000   1.0000   1.0000   1.0000
     1.0000   1.0000   1.0000   1.0000

          k = 0.3333-0.0000 0.1912 (  3302 PWs)   bands (ev):

    -9.0097  -8.7257  -8.5073  -8.5072   2.6252   2.6798   2.9719   3.1052
     3.1052   3.3330   3.3454   3.4119   3.6300   3.7418   4.1840   4.1840
     4.7012   4.7526   4.7771   4.9268   5.0213   5.0239   5.2803   5.2803
     5.7146   5.7146   6.2089   6.2423   7.1291   7.1808   7.2678   7.7368
     7.7368   7.9482   8.4166   8.6594

     occupation numbers 
     1.0000   1.0000   1.0000   1.0000   1.0000   1.0000   1.0000   1.0000
     1.0000   1.0000   1.0000   1.0000   1.0000   1.0000   1.0000   1.0000
     1.0000   1.0000   1.0000   1.0000   1.0000   1.0000   1.0000   1.0000
     1.0000   1.0000   1.0000   1.0000   1.0000   1.0000   1.0000   1.0000
     1.0000   1.0000   1.0000   1.0000

          k = 0.3333-0.0000-0.2868 (  3312 PWs)   bands (ev):

    -8.8684  -8.8684  -8.5049  -8.5049   2.5828   2.5828   3.0054   3.0054
     3.1319   3.1319   3.4045   3.4045   3.6489   3.6489   4.2074   4.2074
     4.7414   4.7414   4.8865   4.8865   4.9817   4.9817   5.4924   5.4924
     5.5245   5.5245   6.7345   6.7345   6.7979   6.7979   7.7520   7.7520
     7.8680   7.8680   8.3122   8.3122

     occupation numbers 
     1.0000   1.0000   1.0000   1.0000   1.0000   1.0000   1.0000   1.0000
     1.0000   1.0000   1.0000   1.0000   1.0000   1.0000   1.0000   1.0000
     1.0000   1.0000   1.0000   1.0000   1.0000   1.0000   1.0000   1.0000
     1.0000   1.0000   1.0000   1.0000   1.0000   1.0000   1.0000   1.0000
     1.0000   1.0000   1.0000   1.0000

          k =-0.5000-0.2887 0.0000 (  3300 PWs)   bands (ev):

    -8.7250  -8.7250  -8.4707  -8.4706   2.6737   2.6738   2.7890   2.7890
     3.4254   3.4254   3.5775   3.5776   3.7978   3.7978   4.2164   4.2164
     4.7090   4.7090   5.0724   5.0724   5.1227   5.1227   5.2572   5.2572
     5.5702   5.5702   5.9133   5.9133   6.4226   6.4226   7.1341   7.1342
     7.8971   7.8972   8.8612   8.8612

     occupation numbers 
     1.0000   1.0000   1.0000   1.0000   1.0000   1.0000   1.0000   1.0000
     1.0000   1.0000   1.0000   1.0000   1.0000   1.0000   1.0000   1.0000
     1.0000   1.0000   1.0000   1.0000   1.0000   1.0000   1.0000   1.0000
     1.0000   1.0000   1.0000   1.0000   1.0000   1.0000   1.0000   1.0000
     1.0000   1.0000   1.0000   1.0000

          k =-0.5000-0.2887 0.0956 (  3288 PWs)   bands (ev):

    -8.7063  -8.7063  -8.4858  -8.4858   2.6133   2.6133   2.6955   2.6955
     3.4650   3.4650   3.5962   3.5962   3.7710   3.7710   4.1433   4.1433
     4.7958   4.7958   5.0739   5.0739   5.1136   5.1136   5.2489   5.2489
     5.5659   5.5659   5.8507   5.8507   6.6453   6.6453   7.2710   7.2710
     7.9604   7.9604   8.7551   8.7551

     occupation numbers 
     1.0000   1.0000   1.0000   1.0000   1.0000   1.0000   1.0000   1.0000
     1.0000   1.0000   1.0000   1.0000   1.0000   1.0000   1.0000   1.0000
     1.0000   1.0000   1.0000   1.0000   1.0000   1.0000   1.0000   1.0000
     1.0000   1.0000   1.0000   1.0000   1.0000   1.0000   1.0000   1.0000
     1.0000   1.0000   1.0000   1.0000

          k =-0.5000-0.2887 0.1912 (  3308 PWs)   bands (ev):

    -8.6563  -8.6562  -8.5287  -8.5287   2.5000   2.5000   2.5307   2.5307
     3.5801   3.5801   3.6348   3.6348   3.7226   3.7227   3.9642   3.9642
     4.9641   4.9641   5.0776   5.0776   5.0972   5.0972   5.2109   5.2109
     5.5750   5.5750   5.7240   5.7240   7.1717   7.1717   7.6178   7.6179
     7.9786   7.9786   8.4628   8.4628

     occupation numbers 
     1.0000   1.0000   1.0000   1.0000   1.0000   1.0000   1.0000   1.0000
     1.0000   1.0000   1.0000   1.0000   1.0000   1.0000   1.0000   1.0000
     1.0000   1.0000   1.0000   1.0000   1.0000   1.0000   1.0000   1.0000
     1.0000   1.0000   1.0000   1.0000   1.0000   1.0000   1.0000   1.0000
     1.0000   1.0000   1.0000   1.0000

          k =-0.5000-0.2887-0.2868 (  3320 PWs)   bands (ev):

    -8.5907  -8.5907  -8.5907  -8.5906   2.4518   2.4518   2.4518   2.4518
     3.6768   3.6768   3.6768   3.6768   3.7568   3.7568   3.7568   3.7569
     5.0850   5.0850   5.0850   5.0850   5.1164   5.1164   5.1164   5.1164
     5.6225   5.6225   5.6225   5.6225   7.7053   7.7053   7.7053   7.7054
     8.0525   8.0525   8.0525   8.0525

     occupation numbers 
     1.0000   1.0000   1.0000   1.0000   1.0000   1.0000   1.0000   1.0000
     1.0000   1.0000   1.0000   1.0000   1.0000   1.0000   1.0000   1.0000
     1.0000   1.0000   1.0000   1.0000   1.0000   1.0000   1.0000   1.0000
     1.0000   1.0000   1.0000   1.0000   1.0000   1.0000   1.0000   1.0000
     1.0000   1.0000   1.0000   1.0000

          k =-0.5000-0.1925 0.0000 (  3298 PWs)   bands (ev):

    -8.7294  -8.7293  -8.4690  -8.4689   2.6826   2.6826   2.9040   2.9041
     3.4073   3.4073   3.6187   3.6187   3.7497   3.7497   4.2036   4.2036
     4.7064   4.7064   4.9893   4.9894   5.1394   5.1394   5.3150   5.3150
     5.5402   5.5402   5.8742   5.8742   6.5040   6.5040   7.0242   7.0242
     7.9037   7.9038   8.7511   8.7511

     occupation numbers 
     1.0000   1.0000   1.0000   1.0000   1.0000   1.0000   1.0000   1.0000
     1.0000   1.0000   1.0000   1.0000   1.0000   1.0000   1.0000   1.0000
     1.0000   1.0000   1.0000   1.0000   1.0000   1.0000   1.0000   1.0000
     1.0000   1.0000   1.0000   1.0000   1.0000   1.0000   1.0000   1.0000
     1.0000   1.0000   1.0000   1.0000

          k =-0.5000-0.1925 0.0956 (  3304 PWs)   bands (ev):

    -8.7103  -8.7102  -8.4846  -8.4845   2.6307   2.6307   2.7982   2.7983
     3.4178   3.4179   3.6446   3.6446   3.7375   3.7375   4.1313   4.1313
     4.7814   4.7814   4.9984   4.9984   5.1353   5.1353   5.3017   5.3017
     5.5199   5.5199   5.9292   5.9292   6.6367   6.6367   7.1609   7.1609
     7.9625   7.9625   8.6404   8.6404

     occupation numbers 
     1.0000   1.0000   1.0000   1.0000   1.0000   1.0000   1.0000   1.0000
     1.0000   1.0000   1.0000   1.0000   1.0000   1.0000   1.0000   1.0000
[...]
     4.8487   4.8635   4.8916   4.9902   4.9907   5.0394   5.0766   5.1196
     5.6914   6.0221   6.1875   7.1331   7.7231   7.9546   8.0832   8.5397
     8.7093   8.8953   9.2163   9.4022

     occupation numbers 
     1.0000   1.0000   1.0000   1.0000   1.0000   1.0000   1.0000   1.0000
     1.0000   1.0000   1.0000   1.0000   1.0000   1.0000   1.0000   1.0000
     1.0000   1.0000   1.0000   1.0000   1.0000   1.0000   1.0000   1.0000
     1.0000   1.0000   1.0000   1.0000   1.0000   1.0000   1.0000   1.0000
     1.0000   1.0000   1.0000   1.0000

          k = 0.0000 0.1925-0.0956 (  3317 PWs)   bands (ev):

    -9.4453  -8.9879  -8.7939  -8.5671   2.5518   2.6835   2.8750   2.9088
     3.1668   3.3343   3.4419   3.4698   3.4733   3.6460   3.6632   3.9638
     4.6930   4.7254   4.8166   4.9364   5.0351   5.0392   5.0635   5.0665
     5.5329   5.6449   6.1761   7.2756   7.6998   7.7858   8.4069   8.4477
     8.5374   9.0026   9.1154   9.4404

     occupation numbers 
     1.0000   1.0000   1.0000   1.0000   1.0000   1.0000   1.0000   1.0000
     1.0000   1.0000   1.0000   1.0000   1.0000   1.0000   1.0000   1.0000
     1.0000   1.0000   1.0000   1.0000   1.0000   1.0000   1.0000   1.0000
     1.0000   1.0000   1.0000   1.0000   1.0000   1.0000   1.0000   1.0000
     1.0000   1.0000   1.0000   1.0000

          k = 0.0000 0.1925-0.1912 (  3326 PWs)   bands (ev):

    -9.3136  -8.9377  -8.8987  -8.6556   2.4888   2.5820   2.6520   2.7005
     3.2610   3.3892   3.4298   3.4902   3.5343   3.5678   3.6160   3.8322
     4.7839   4.8049   4.8659   4.9605   4.9889   4.9920   5.0227   5.0338
     6.0873   6.2242   6.4618   7.2241   7.7696   7.9934   8.1222   8.2706
     8.6625   8.7396   8.7490   9.2345

     occupation numbers 
     1.0000   1.0000   1.0000   1.0000   1.0000   1.0000   1.0000   1.0000
     1.0000   1.0000   1.0000   1.0000   1.0000   1.0000   1.0000   1.0000
     1.0000   1.0000   1.0000   1.0000   1.0000   1.0000   1.0000   1.0000
     1.0000   1.0000   1.0000   1.0000   1.0000   1.0000   1.0000   1.0000
     1.0000   1.0000   1.0000   1.0000

          k =-0.1667 0.0962-0.0956 (  3323 PWs)   bands (ev):

    -9.4453  -8.7939  -8.7180  -8.4822   2.6835   2.7366   2.8751   2.9402
     3.1669   3.3341   3.3753   3.4734   3.5875   3.6459   3.8150   4.0901
     4.7114   4.7254   4.8167   4.8828   5.0351   5.0392   5.1625   5.4042
     5.4562   5.5329   6.1315   6.5651   6.8831   7.7860   8.0274   8.3998
     8.4070   8.4474   9.1155   9.4401

     occupation numbers 
     1.0000   1.0000   1.0000   1.0000   1.0000   1.0000   1.0000   1.0000
     1.0000   1.0000   1.0000   1.0000   1.0000   1.0000   1.0000   1.0000
     1.0000   1.0000   1.0000   1.0000   1.0000   1.0000   1.0000   1.0000
     1.0000   1.0000   1.0000   1.0000   1.0000   1.0000   1.0000   1.0000
     1.0000   1.0000   1.0000   1.0000

          k =-0.1667 0.0962-0.1912 (  3320 PWs)   bands (ev):

    -9.3136  -8.9377  -8.6650  -8.5285   2.5820   2.6523   2.7006   2.7481
     3.2611   3.3684   3.3891   3.4299   3.5411   3.5676   3.8421   3.9725
     4.7984   4.8049   4.8660   4.9520   4.9890   4.9921   5.1768   5.2981
     5.6402   6.1076   6.2242   6.9039   7.2591   7.7697   7.9242   8.1223
     8.1729   8.6622   8.7492   9.2342

     occupation numbers 
     1.0000   1.0000   1.0000   1.0000   1.0000   1.0000   1.0000   1.0000
     1.0000   1.0000   1.0000   1.0000   1.0000   1.0000   1.0000   1.0000
     1.0000   1.0000   1.0000   1.0000   1.0000   1.0000   1.0000   1.0000
     1.0000   1.0000   1.0000   1.0000   1.0000   1.0000   1.0000   1.0000
     1.0000   1.0000   1.0000   1.0000

          k =-0.1667 0.1925-0.0956 (  3317 PWs)   bands (ev):

    -9.3089  -8.8977  -8.7193  -8.5310   2.7174   2.7479   2.8623   2.9044
     3.1962   3.3671   3.3775   3.4910   3.5167   3.7309   3.7967   3.9459
     4.6399   4.6871   4.8276   4.8844   5.0371   5.0497   5.1000   5.2256
     5.5577   5.6762   6.3310   6.8494   7.2211   7.3408   7.8485   8.3005
     8.4585   8.6133   8.9781   9.2502

     occupation numbers 
     1.0000   1.0000   1.0000   1.0000   1.0000   1.0000   1.0000   1.0000
     1.0000   1.0000   1.0000   1.0000   1.0000   1.0000   1.0000   1.0000
     1.0000   1.0000   1.0000   1.0000   1.0000   1.0000   1.0000   1.0000
     1.0000   1.0000   1.0000   1.0000   1.0000   1.0000   1.0000   1.0000
     1.0000   1.0000   1.0000   1.0000

          k =-0.1667 0.1925-0.1912 (  3319 PWs)   bands (ev):

    -9.1884  -8.8479  -8.8189  -8.6070   2.6199   2.6201   2.6743   2.7165
     3.2859   3.4001   3.4047   3.4496   3.5052   3.6454   3.7636   3.8367
     4.7475   4.7786   4.8782   4.9636   4.9939   4.9980   5.0877   5.1312
     6.0333   6.2483   6.5791   7.0280   7.4010   7.4760   7.7282   8.2451
     8.3281   8.4111   8.5518   9.0196

     occupation numbers 
     1.0000   1.0000   1.0000   1.0000   1.0000   1.0000   1.0000   1.0000
     1.0000   1.0000   1.0000   1.0000   1.0000   1.0000   1.0000   1.0000
     1.0000   1.0000   1.0000   1.0000   1.0000   1.0000   1.0000   1.0000
     1.0000   1.0000   1.0000   1.0000   1.0000   1.0000   1.0000   1.0000
     1.0000   1.0000   1.0000   1.0000

          k =-0.3333 0.1925-0.0956 (  3302 PWs)   bands (ev):

    -8.9879  -8.7180  -8.5671  -8.4822   2.5520   2.7368   2.9089   2.9402
     3.3752   3.4417   3.4698   3.5875   3.6632   3.8151   3.9637   4.0900
     4.6930   4.7115   4.8829   4.9364   5.0635   5.0666   5.1625   5.4042
     5.4563   5.6449   6.1315   6.1762   6.5651   6.8830   7.2757   7.6996
     8.0274   8.3997   8.5374   9.0023

     occupation numbers 
     1.0000   1.0000   1.0000   1.0000   1.0000   1.0000   1.0000   1.0000
     1.0000   1.0000   1.0000   1.0000   1.0000   1.0000   1.0000   1.0000
     1.0000   1.0000   1.0000   1.0000   1.0000   1.0000   1.0000   1.0000
     1.0000   1.0000   1.0000   1.0000   1.0000   1.0000   1.0000   1.0000
     1.0000   1.0000   1.0000   1.0000

          k =-0.3333 0.1925-0.1912 (  3310 PWs)   bands (ev):

    -8.8987  -8.6650  -8.6556  -8.5285   2.4889   2.6521   2.6524   2.7482
     3.3684   3.4903   3.5341   3.5411   3.6160   3.8320   3.8422   3.9724
     4.7839   4.7984   4.9520   4.9605   5.0227   5.0339   5.1768   5.2982
     5.6403   6.0873   6.1077   6.4619   6.9038   7.2242   7.2590   7.9241
     7.9931   8.1728   8.2706   8.7394

     occupation numbers 
     1.0000   1.0000   1.0000   1.0000   1.0000   1.0000   1.0000   1.0000
     1.0000   1.0000   1.0000   1.0000   1.0000   1.0000   1.0000   1.0000
     1.0000   1.0000   1.0000   1.0000   1.0000   1.0000   1.0000   1.0000
     1.0000   1.0000   1.0000   1.0000   1.0000   1.0000   1.0000   1.0000
     1.0000   1.0000   1.0000   1.0000

          k =-0.3333-0.0962-0.0956 (  3307 PWs)   bands (ev):

    -9.0793  -8.6059  -8.5957  -8.4753   2.6365   2.8478   2.9280   3.1577
     3.3255   3.3675   3.4495   3.5657   3.6438   3.8808   3.9266   4.1575
     4.6540   4.6790   4.8321   4.8848   5.0561   5.0740   5.1610   5.1868
     5.6290   5.6550   5.9681   6.1238   6.5434   7.0514   7.4032   7.7085
     7.7775   7.9963   8.7028   8.9987

     occupation numbers 
     1.0000   1.0000   1.0000   1.0000   1.0000   1.0000   1.0000   1.0000
     1.0000   1.0000   1.0000   1.0000   1.0000   1.0000   1.0000   1.0000
     1.0000   1.0000   1.0000   1.0000   1.0000   1.0000   1.0000   1.0000
     1.0000   1.0000   1.0000   1.0000   1.0000   1.0000   1.0000   1.0000
     1.0000   1.0000   1.0000   1.0000

          k =-0.3333-0.0962-0.1912 (  3303 PWs)   bands (ev):

    -8.9802  -8.7067  -8.5660  -8.4963   2.5559   2.6822   2.8406   2.9400
     3.2248   3.3969   3.4420   3.4592   3.6192   3.7711   4.0106   4.1244
     4.7570   4.7579   4.8604   4.9335   5.0191   5.0237   5.2585   5.3772
     5.5396   5.9033   6.2066   6.4147   6.7851   7.3001   7.3186   7.6309
     7.9606   7.9932   8.3681   8.7359

     occupation numbers 
     1.0000   1.0000   1.0000   1.0000   1.0000   1.0000   1.0000   1.0000
     1.0000   1.0000   1.0000   1.0000   1.0000   1.0000   1.0000   1.0000
     1.0000   1.0000   1.0000   1.0000   1.0000   1.0000   1.0000   1.0000
     1.0000   1.0000   1.0000   1.0000   1.0000   1.0000   1.0000   1.0000
     1.0000   1.0000   1.0000   1.0000

          k = 0.5000-0.1925-0.0956 (  3304 PWs)   bands (ev):

    -8.7103  -8.7102  -8.4846  -8.4845   2.6307   2.6307   2.7982   2.7982
     3.4178   3.4179   3.6446   3.6446   3.7375   3.7376   4.1313   4.1313
     4.7814   4.7814   4.9984   4.9984   5.1353   5.1353   5.3017   5.3017
     5.5199   5.5199   5.9292   5.9292   6.6367   6.6367   7.1609   7.1610
     7.9625   7.9625   8.6404   8.6404

     occupation numbers 
     1.0000   1.0000   1.0000   1.0000   1.0000   1.0000   1.0000   1.0000
     1.0000   1.0000   1.0000   1.0000   1.0000   1.0000   1.0000   1.0000
     1.0000   1.0000   1.0000   1.0000   1.0000   1.0000   1.0000   1.0000
     1.0000   1.0000   1.0000   1.0000   1.0000   1.0000   1.0000   1.0000
     1.0000   1.0000   1.0000   1.0000

          k = 0.5000-0.1925-0.1912 (  3300 PWs)   bands (ev):

    -8.6592  -8.6592  -8.5286  -8.5286   2.5342   2.5343   2.6095   2.6095
     3.4796   3.4796   3.6610   3.6610   3.7375   3.7376   3.9733   3.9733
     4.9086   4.9086   5.0097   5.0097   5.1389   5.1389   5.2476   5.2476
     5.5736   5.5736   5.8568   5.8568   7.1051   7.1051   7.5109   7.5110
     7.9615   7.9615   8.3471   8.3471

     occupation numbers 
     1.0000   1.0000   1.0000   1.0000   1.0000   1.0000   1.0000   1.0000
     1.0000   1.0000   1.0000   1.0000   1.0000   1.0000   1.0000   1.0000
     1.0000   1.0000   1.0000   1.0000   1.0000   1.0000   1.0000   1.0000
     1.0000   1.0000   1.0000   1.0000   1.0000   1.0000   1.0000   1.0000
     1.0000   1.0000   1.0000   1.0000

          k = 0.5000-0.0962-0.0956 (  3308 PWs)   bands (ev):

    -8.7181  -8.7180  -8.4822  -8.4822   2.7367   2.7368   2.9403   2.9403
     3.3752   3.3752   3.5875   3.5875   3.8150   3.8151   4.0900   4.0900
     4.7114   4.7114   4.8828   4.8828   5.1625   5.1625   5.4042   5.4042
     5.4563   5.4563   6.1315   6.1315   6.5650   6.5650   6.8830   6.8830
     8.0274   8.0274   8.3996   8.3996

     occupation numbers 
     1.0000   1.0000   1.0000   1.0000   1.0000   1.0000   1.0000   1.0000
     1.0000   1.0000   1.0000   1.0000   1.0000   1.0000   1.0000   1.0000
     1.0000   1.0000   1.0000   1.0000   1.0000   1.0000   1.0000   1.0000
     1.0000   1.0000   1.0000   1.0000   1.0000   1.0000   1.0000   1.0000
     1.0000   1.0000   1.0000   1.0000

          k = 0.5000-0.0962-0.1912 (  3304 PWs)   bands (ev):

    -8.6650  -8.6649  -8.5286  -8.5285   2.6524   2.6524   2.7482   2.7482
     3.3684   3.3684   3.5411   3.5412   3.8421   3.8421   3.9724   3.9724
     4.7984   4.7984   4.9520   4.9520   5.1768   5.1768   5.2982   5.2982
     5.6403   5.6403   6.1077   6.1077   6.9038   6.9038   7.2590   7.2590
     7.9240   7.9241   8.1728   8.1728

     occupation numbers 
     1.0000   1.0000   1.0000   1.0000   1.0000   1.0000   1.0000   1.0000
     1.0000   1.0000   1.0000   1.0000   1.0000   1.0000   1.0000   1.0000
     1.0000   1.0000   1.0000   1.0000   1.0000   1.0000   1.0000   1.0000
     1.0000   1.0000   1.0000   1.0000   1.0000   1.0000   1.0000   1.0000
     1.0000   1.0000   1.0000   1.0000

     highest occupied level (ev):     9.7017

!    total energy              =    -723.15624407 Ry
     estimated scf accuracy    <          3.2E-09 Ry

     The total energy is the sum of the following terms:
     one-electron contribution =    -266.92369119 Ry
     hartree contribution      =     221.62873173 Ry
     xc contribution           =    -219.83443546 Ry
     ewald contribution        =    -458.02684915 Ry

     convergence has been achieved in  28 iterations

     Forces acting on atoms (cartesian axes, Ry/au):

     atom    1 type  1   force =     0.00000000    0.00001826   -0.00986308
     atom    2 type  2   force =     0.00000000   -0.00000616    0.00985706
     atom    3 type  1   force =     0.00000000   -0.00001537   -0.00985263
     atom    4 type  2   force =     0.00000000    0.00000669    0.00985886
     atom    5 type  1   force =     0.00000000    0.00002302   -0.00986360
     atom    6 type  2   force =     0.00000000   -0.00000630    0.00985804
     atom    7 type  1   force =     0.00000000   -0.00002772   -0.00985290
     atom    8 type  2   force =     0.00000000    0.00000757    0.00985825
     The non-local contrib.  to forces
     atom    1 type  1   force =     0.00000000   -0.00002859   -0.10940822
     atom    2 type  2   force =     0.00000000    0.00019715   -0.08369770
     atom    3 type  1   force =     0.00000000    0.00002926   -0.10940415
     atom    4 type  2   force =     0.00000000   -0.00019756   -0.08369860
     atom    5 type  1   force =     0.00000000   -0.00002459   -0.10940814
     atom    6 type  2   force =     0.00000000    0.00019844   -0.08369707
     atom    7 type  1   force =     0.00000000    0.00002486   -0.10940428
     atom    8 type  2   force =     0.00000000   -0.00019790   -0.08369743
     The ionic contribution  to forces
     atom    1 type  1   force =     0.00000000   -0.00000000   -1.03502474
     atom    2 type  2   force =    -0.00000000    0.00000000    1.03502474
     atom    3 type  1   force =     0.00000000    0.00000000   -1.03502474
     atom    4 type  2   force =     0.00000000   -0.00000000    1.03502474
     atom    5 type  1   force =     0.00000000   -0.00000000   -1.03502474
     atom    6 type  2   force =    -0.00000000    0.00000000    1.03502474
     atom    7 type  1   force =    -0.00000000    0.00000000   -1.03502474
     atom    8 type  2   force =     0.00000000   -0.00000000    1.03502474
     The local contribution  to forces
     atom    1 type  1   force =    -0.00000000    0.00006018    1.12723385
     atom    2 type  2   force =     0.00000000   -0.00020749   -0.94202660
     atom    3 type  1   force =     0.00000000   -0.00006443    1.12722208
     atom    4 type  2   force =    -0.00000000    0.00020518   -0.94203379
     atom    5 type  1   force =    -0.00000000    0.00005023    1.12723780
     atom    6 type  2   force =    -0.00000000   -0.00019991   -0.94202623
     atom    7 type  1   force =     0.00000000   -0.00004528    1.12722426
     atom    8 type  2   force =    -0.00000000    0.00020038   -0.94203594
     The core correction contribution to forces
     atom    1 type  1   force =     0.00000001   -0.00000420    0.00733476
     atom    2 type  2   force =     0.00000000   -0.00000227    0.00057704
     atom    3 type  1   force =     0.00000001    0.00000434    0.00733476
     atom    4 type  2   force =     0.00000000    0.00000227    0.00057704
     atom    5 type  1   force =    -0.00000001   -0.00000414    0.00733453
     atom    6 type  2   force =    -0.00000000   -0.00000226    0.00057704
     atom    7 type  1   force =    -0.00000004    0.00000401    0.00733461
     atom    8 type  2   force =    -0.00000000    0.00000226    0.00057702
     The Hubbard contrib.    to forces
     atom    1 type  1   force =     0.00000000    0.00000000    0.00000000
     atom    2 type  2   force =     0.00000000    0.00000000    0.00000000
     atom    3 type  1   force =     0.00000000    0.00000000    0.00000000
     atom    4 type  2   force =     0.00000000    0.00000000    0.00000000
     atom    5 type  1   force =     0.00000000    0.00000000    0.00000000
     atom    6 type  2   force =     0.00000000    0.00000000    0.00000000
     atom    7 type  1   force =     0.00000000    0.00000000    0.00000000
     atom    8 type  2   force =     0.00000000    0.00000000    0.00000000
     The SCF correction term to forces
     atom    1 type  1   force =    -0.00000000   -0.00000963    0.00000505
     atom    2 type  2   force =    -0.00000000    0.00000594   -0.00001665
     atom    3 type  1   force =    -0.00000000    0.00001495    0.00002318
     atom    4 type  2   force =     0.00000000   -0.00000369   -0.00000677
     atom    5 type  1   force =     0.00000000    0.00000103    0.00000073
     atom    6 type  2   force =    -0.00000000   -0.00000306   -0.00001667
     atom    7 type  1   force =     0.00000000   -0.00001180    0.00002102
     atom    8 type  2   force =    -0.00000000    0.00000234   -0.00000636

     Total force =     0.027883     Total SCF correction =     0.000047

     init_run     :      5.83s CPU      6.14s WALL (       1 calls)
     electrons    :    386.56s CPU    403.74s WALL (       1 calls)
     forces       :      1.61s CPU      1.63s WALL (       1 calls)

     Called by init_run:
     wfcinit      :      3.97s CPU      4.21s WALL (       1 calls)
     wfcinit:atom :      0.05s CPU      0.05s WALL (      40 calls)
     wfcinit:wfcr :      3.66s CPU      3.90s WALL (      40 calls)
     potinit      :      0.55s CPU      0.56s WALL (       1 calls)
     hinit0       :      0.95s CPU      0.96s WALL (       1 calls)

     Called by electrons:
     c_bands      :    347.00s CPU    361.99s WALL (      28 calls)
     sum_band     :     35.11s CPU     37.22s WALL (      28 calls)
     v_of_rho     :      1.50s CPU      1.55s WALL (      29 calls)
     v_h          :      0.08s CPU      0.09s WALL (      29 calls)
     v_xc         :      1.46s CPU      1.51s WALL (      30 calls)
     newd         :      2.69s CPU      2.74s WALL (      29 calls)
     mix_rho      :      0.24s CPU      0.25s WALL (      28 calls)

     Called by c_bands:
     init_us_2    :      2.38s CPU      2.41s WALL (    2320 calls)
     init_us_2:cp :      2.36s CPU      2.40s WALL (    2320 calls)
     cegterg      :    317.91s CPU    332.84s WALL (    1120 calls)

     Called by sum_band:
     sum_band:wei :      0.00s CPU      0.00s WALL (      28 calls)
     sum_band:loo :     31.53s CPU     33.54s WALL (      28 calls)
     sum_band:buf :      0.17s CPU      0.18s WALL (    1120 calls)
     sum_band:ini :      1.13s CPU      1.15s WALL (    1120 calls)
     sum_band:cal :      4.03s CPU      4.14s WALL (    1120 calls)
     sum_band:bec :      0.12s CPU      0.12s WALL (    1120 calls)
     addusdens    :      3.00s CPU      3.06s WALL (      28 calls)
                                        0.00s GPU  (      28 calls)
     addusd:skk   :      0.02s CPU      0.02s WALL (      56 calls)
                                        0.00s GPU  (      56 calls)

     Called by *egterg:
     cdiaghg      :     28.50s CPU     28.56s WALL (    6615 calls)
     cegterg:over :     16.38s CPU     16.83s WALL (    5495 calls)
     cegterg:upda :      9.82s CPU      9.85s WALL (    5495 calls)
     cegterg:last :     24.29s CPU     24.33s WALL (    4046 calls)
     h_psi        :    218.93s CPU    233.34s WALL (    6655 calls)
     s_psi        :     16.81s CPU     16.88s WALL (    6655 calls)
     g_psi        :      1.00s CPU      1.01s WALL (    5495 calls)

     Called by h_psi:
     h_psi:calbec :     15.94s CPU     16.56s WALL (    6655 calls)
     vloc_psi     :    185.23s CPU    198.94s WALL (    6655 calls)
     add_vuspsi   :     17.14s CPU     17.21s WALL (    6655 calls)

     General routines
     calbec       :     20.51s CPU     21.25s WALL (    7935 calls)
     fft          :      0.97s CPU      1.05s WALL (     386 calls)
     ffts         :      0.13s CPU      0.14s WALL (      57 calls)
     fftw         :    178.59s CPU    192.18s WALL (  342594 calls)
     interpolate  :      0.18s CPU      0.19s WALL (      29 calls)

     Parallel routines

     PWSCF        :   6m34.44s CPU   6m51.97s WALL


   This run was terminated on:  12:34:48  13Jul2025            

=------------------------------------------------------------------------------=
   JOB DONE.
=------------------------------------------------------------------------------=
Note: The following floating-point exceptions are signalling: IEEE_INVALID_FLAG
Note: The following floating-point exceptions are signalling: IEEE_INVALID_FLAG
