Authorization required, but no authorization protocol specified

Authorization required, but no authorization protocol specified

Authorization required, but no authorization protocol specified

Authorization required, but no authorization protocol specified

Authorization required, but no authorization protocol specified

Authorization required, but no authorization protocol specified

Authorization required, but no authorization protocol specified

Authorization required, but no authorization protocol specified

Authorization required, but no authorization protocol specified

Authorization required, but no authorization protocol specified


     Program PWSCF v.7.2 starts on 13Jul2025 at 18: 6:36 

     This program is part of the open-source Quantum ESPRESSO suite
     for quantum simulation of materials; please cite
         "P. Giannozzi et al., J. Phys.:Condens. Matter 21 395502 (2009);
         "P. Giannozzi et al., J. Phys.:Condens. Matter 29 465901 (2017);
         "P. Giannozzi et al., J. Chem. Phys. 152 154105 (2020);
          URL http://www.quantum-espresso.org", 
     in publications or presentations arising from this work. More details at
     http://www.quantum-espresso.org/quote

     Parallel version (MPI), running on     8 processors

     MPI processes distributed on     1 nodes
     56422 MiB available memory on the printing compute node when the environment starts

     Reading input from /home/jvc/QEspresso7.2/ZnO_database/scripts/cell121.in/ZnO-3.27-1.74-121.in
Warning: card &CELL ignored
Warning: card / ignored
Warning: card &FCP ignored
Warning: card / ignored
Warning: card &RISM ignored
Warning: card / ignored

     Current dimensions of program PWSCF are:
     Max number of different atomic species (ntypx) = 10
     Max number of k-points (npk) =  40000
     Max angular momentum in pseudopotentials (lmaxx) =  4
     file Zn.upf: wavefunction(s)  3D renormalized
     Found identity + (  0.0000 -0.5000  0.0000) symmetry
     This is a supercell, fractional translations are disabled
     Message from routine setup:
     using ibrav=0 with symmetry is DISCOURAGED, use correct ibrav instead

     K-points division:     npool     =       2
     R & G space division:  proc/nbgrp/npool/nimage =       4
     Subspace diagonalization in iterative solution of the eigenvalue problem:
     a serial algorithm will be used


     Parallelization info
     --------------------
     sticks:   dense  smooth     PW     G-vecs:    dense   smooth      PW
     Min         525     261     81                24077     8485    1489
     Max         526     262     83                24080     8488    1492
     Sum        2103    1047    329                96315    33947    5959

     Using Slab Decomposition



     bravais-lattice index     =            0
     lattice parameter (alat)  =       6.1789  a.u.
     unit-cell volume          =     712.3741 (a.u.)^3
     number of atoms/cell      =            8
     number of atomic types    =            2
     number of electrons       =        72.00
     number of Kohn-Sham states=           36
     kinetic-energy cutoff     =      50.0000  Ry
     charge density cutoff     =     400.0000  Ry
     scf convergence threshold =      1.0E-08
     mixing beta               =       0.3000
     number of iterations used =            8  plain     mixing
     Exchange-correlation= PBE
                           (   1   4   3   4   0   0   0)

     celldm(1)=   6.178854  celldm(2)=   0.000000  celldm(3)=   0.000000
     celldm(4)=   0.000000  celldm(5)=   0.000000  celldm(6)=   0.000000

     crystal axes: (cart. coord. in units of alat)
               a(1) = (   1.000000   0.000000   0.000000 )  
               a(2) = (  -1.000000   1.732051   0.000000 )  
               a(3) = (   0.000000   0.000000   1.743507 )  

     reciprocal axes: (cart. coord. in units 2 pi/alat)
               b(1) = (  1.000000  0.577350 -0.000000 )  
               b(2) = (  0.000000  0.577350  0.000000 )  
               b(3) = (  0.000000 -0.000000  0.573557 )  


     PseudoPot. # 1 for Zn read from file:
     /home/jvc/QEspresso7.2/ZnO_database/pseudos/Zn.upf
     MD5 check sum: 7f56cabf9682ed8c977c2f7d0c5985c5
     Pseudo is Ultrasoft + core correction, Zval = 12.0
     Generated using &quot;atomic&quot; code by A. Dal Corso  v.6.2.2
     Using radial grid of 1201 points,  6 beta functions with: 
                l(1) =   0
                l(2) =   0
                l(3) =   1
                l(4) =   1
                l(5) =   2
                l(6) =   2
     Q(r) pseudized with 0 coefficients 


     PseudoPot. # 2 for O  read from file:
     /home/jvc/QEspresso7.2/ZnO_database/pseudos/O.upf
     MD5 check sum: 91400c9766925bcf19f520983a725ff0
     Pseudo is Ultrasoft + core correction, Zval =  6.0
     Generated using &quot;atomic&quot; code by A. Dal Corso  v.6.3MaX
     Using radial grid of 1095 points,  4 beta functions with: 
                l(1) =   0
                l(2) =   0
                l(3) =   1
                l(4) =   1
     Q(r) pseudized with 0 coefficients 


     atomic species   valence    mass     pseudopotential
        Zn            12.00    65.38000     Zn( 1.00)
        O              6.00    15.99900     O ( 1.00)

      2 Sym. Ops. (no inversion) found


                                    s                        frac. trans.

      isym =  1     identity                                     

 cryst.   s( 1) = (     1          0          0      )
                  (     0          1          0      )
                  (     0          0          1      )

 cart.    s( 1) = (  1.0000000  0.0000000  0.0000000 )
                  (  0.0000000  1.0000000  0.0000000 )
                  (  0.0000000  0.0000000  1.0000000 )


      isym =  2     inv. 180 deg rotation - cart. axis [1,0,0]   

 cryst.   s( 2) = (    -1          0          0      )
                  (     2          1          0      )
                  (     0          0          1      )

 cart.    s( 2) = ( -1.0000000  0.0000000  0.0000000 )
                  (  0.0000000  1.0000000  0.0000000 )
                  (  0.0000000  0.0000000  1.0000000 )


   Cartesian axes

     site n.     atom                  positions (alat units)
         1           Zn  tau(   1) = (   0.0000000   0.0000000   0.0000000  )
         2           O   tau(   2) = (   0.0000000   0.5773503   0.2446912  )
         3           Zn  tau(   3) = (   0.0000000   0.5773503   0.8717535  )
         4           O   tau(   4) = (   0.0000000   0.0000000   1.1164447  )
         5           Zn  tau(   5) = (  -0.5000000   0.8660254   0.0000000  )
         6           O   tau(   6) = (  -0.5000000   1.4433757   0.2446912  )
         7           Zn  tau(   7) = (  -0.5000000   1.4433757   0.8717535  )
         8           O   tau(   8) = (  -0.5000000   0.8660254   1.1164447  )

   Crystallographic axes

     site n.     atom                  positions (cryst. coord.)
         1           Zn  tau(   1) = (  0.0000000  0.0000000  0.0000000  )
         2           O   tau(   2) = (  0.3333333  0.3333333  0.1403443  )
         3           Zn  tau(   3) = (  0.3333333  0.3333333  0.5000000  )
         4           O   tau(   4) = (  0.0000000  0.0000000  0.6403443  )
         5           Zn  tau(   5) = (  0.0000000  0.5000000  0.0000000  )
         6           O   tau(   6) = (  0.3333333  0.8333333  0.1403443  )
         7           Zn  tau(   7) = (  0.3333333  0.8333333  0.5000000  )
         8           O   tau(   8) = (  0.0000000  0.5000000  0.6403443  )

     number of k points=    80
                       cart. coord. in units 2pi/alat
        k(    1) = (   0.0000000   0.0000000   0.0000000), wk =   0.0092593
        k(    2) = (   0.0000000   0.0000000   0.0955928), wk =   0.0185185
        k(    3) = (   0.0000000   0.0000000   0.1911855), wk =   0.0185185
        k(    4) = (   0.0000000   0.0000000  -0.2867783), wk =   0.0092593
        k(    5) = (   0.0000000   0.0962250   0.0000000), wk =   0.0185185
        k(    6) = (   0.0000000   0.0962250   0.0955928), wk =   0.0185185
        k(    7) = (   0.0000000   0.0962250   0.1911855), wk =   0.0185185
        k(    8) = (   0.0000000   0.0962250  -0.2867783), wk =   0.0185185
        k(    9) = (   0.0000000   0.1924501   0.0000000), wk =   0.0185185
        k(   10) = (   0.0000000   0.1924501   0.0955928), wk =   0.0185185
        k(   11) = (   0.0000000   0.1924501   0.1911855), wk =   0.0185185
        k(   12) = (   0.0000000   0.1924501  -0.2867783), wk =   0.0185185
        k(   13) = (   0.0000000  -0.2886751   0.0000000), wk =   0.0092593
        k(   14) = (   0.0000000  -0.2886751   0.0955928), wk =   0.0185185
        k(   15) = (   0.0000000  -0.2886751   0.1911855), wk =   0.0185185
        k(   16) = (   0.0000000  -0.2886751  -0.2867783), wk =   0.0092593
        k(   17) = (   0.1666667   0.0962250   0.0000000), wk =   0.0370370
        k(   18) = (   0.1666667   0.0962250   0.0955928), wk =   0.0370370
        k(   19) = (   0.1666667   0.0962250   0.1911855), wk =   0.0370370
        k(   20) = (   0.1666667   0.0962250  -0.2867783), wk =   0.0370370
        k(   21) = (   0.1666667   0.1924501   0.0000000), wk =   0.0370370
        k(   22) = (   0.1666667   0.1924501   0.0955928), wk =   0.0370370
        k(   23) = (   0.1666667   0.1924501   0.1911855), wk =   0.0370370
        k(   24) = (   0.1666667   0.1924501  -0.2867783), wk =   0.0370370
        k(   25) = (   0.1666667   0.2886751   0.0000000), wk =   0.0185185
        k(   26) = (   0.1666667   0.2886751   0.0955928), wk =   0.0370370
        k(   27) = (   0.1666667   0.2886751   0.1911855), wk =   0.0370370
        k(   28) = (   0.1666667   0.2886751  -0.2867783), wk =   0.0185185
        k(   29) = (   0.1666667   0.0000000   0.0000000), wk =   0.0185185
        k(   30) = (   0.1666667   0.0000000   0.0955928), wk =   0.0370370
        k(   31) = (   0.1666667   0.0000000   0.1911855), wk =   0.0370370
        k(   32) = (   0.1666667   0.0000000  -0.2867783), wk =   0.0185185
        k(   33) = (   0.3333333   0.1924501   0.0000000), wk =   0.0370370
        k(   34) = (   0.3333333   0.1924501   0.0955928), wk =   0.0370370
        k(   35) = (   0.3333333   0.1924501   0.1911855), wk =   0.0370370
        k(   36) = (   0.3333333   0.1924501  -0.2867783), wk =   0.0370370
        k(   37) = (   0.3333333   0.2886751   0.0000000), wk =   0.0185185
        k(   38) = (   0.3333333   0.2886751   0.0955928), wk =   0.0370370
        k(   39) = (   0.3333333   0.2886751   0.1911855), wk =   0.0370370
        k(   40) = (   0.3333333   0.2886751  -0.2867783), wk =   0.0185185
        k(   41) = (   0.3333333  -0.0962250   0.0000000), wk =   0.0370370
        k(   42) = (   0.3333333  -0.0962250   0.0955928), wk =   0.0370370
        k(   43) = (   0.3333333  -0.0962250   0.1911855), wk =   0.0370370
        k(   44) = (   0.3333333  -0.0962250  -0.2867783), wk =   0.0370370
        k(   45) = (   0.3333333  -0.0000000   0.0000000), wk =   0.0185185
        k(   46) = (   0.3333333  -0.0000000   0.0955928), wk =   0.0370370
        k(   47) = (   0.3333333  -0.0000000   0.1911855), wk =   0.0370370
        k(   48) = (   0.3333333  -0.0000000  -0.2867783), wk =   0.0185185
        k(   49) = (  -0.5000000  -0.2886751   0.0000000), wk =   0.0092593
        k(   50) = (  -0.5000000  -0.2886751   0.0955928), wk =   0.0185185
        k(   51) = (  -0.5000000  -0.2886751   0.1911855), wk =   0.0185185
        k(   52) = (  -0.5000000  -0.2886751  -0.2867783), wk =   0.0092593
        k(   53) = (  -0.5000000  -0.1924501   0.0000000), wk =   0.0185185
        k(   54) = (  -0.5000000  -0.1924501   0.0955928), wk =   0.0185185
        k(   55) = (  -0.5000000  -0.1924501   0.1911855), wk =   0.0185185
        k(   56) = (  -0.5000000  -0.1924501  -0.2867783), wk =   0.0185185
        k(   57) = (  -0.5000000  -0.0962250   0.0000000), wk =   0.0185185
        k(   58) = (  -0.5000000  -0.0962250   0.0955928), wk =   0.0185185
        k(   59) = (  -0.5000000  -0.0962250   0.1911855), wk =   0.0185185
        k(   60) = (  -0.5000000  -0.0962250  -0.2867783), wk =   0.0185185
        k(   61) = (  -0.5000000  -0.5773503   0.0000000), wk =   0.0092593
        k(   62) = (  -0.5000000  -0.5773503   0.0955928), wk =   0.0185185
        k(   63) = (  -0.5000000  -0.5773503   0.1911855), wk =   0.0185185
        k(   64) = (  -0.5000000  -0.5773503  -0.2867783), wk =   0.0092593
        k(   65) = (   0.0000000   0.0962250  -0.0955928), wk =   0.0185185
        k(   66) = (   0.0000000   0.0962250  -0.1911855), wk =   0.0185185
        k(   67) = (   0.0000000   0.1924501  -0.0955928), wk =   0.0185185
        k(   68) = (   0.0000000   0.1924501  -0.1911855), wk =   0.0185185
        k(   69) = (  -0.1666667   0.0962250  -0.0955928), wk =   0.0370370
        k(   70) = (  -0.1666667   0.0962250  -0.1911855), wk =   0.0370370
        k(   71) = (  -0.1666667   0.1924501  -0.0955928), wk =   0.0370370
        k(   72) = (  -0.1666667   0.1924501  -0.1911855), wk =   0.0370370
        k(   73) = (  -0.3333333   0.1924501  -0.0955928), wk =   0.0370370
        k(   74) = (  -0.3333333   0.1924501  -0.1911855), wk =   0.0370370
        k(   75) = (  -0.3333333  -0.0962250  -0.0955928), wk =   0.0370370
        k(   76) = (  -0.3333333  -0.0962250  -0.1911855), wk =   0.0370370
        k(   77) = (   0.5000000  -0.1924501  -0.0955928), wk =   0.0185185
        k(   78) = (   0.5000000  -0.1924501  -0.1911855), wk =   0.0185185
        k(   79) = (   0.5000000  -0.0962250  -0.0955928), wk =   0.0185185
        k(   80) = (   0.5000000  -0.0962250  -0.1911855), wk =   0.0185185

                       cryst. coord.
        k(    1) = (   0.0000000   0.0000000   0.0000000), wk =   0.0092593
        k(    2) = (   0.0000000   0.0000000   0.1666667), wk =   0.0185185
        k(    3) = (   0.0000000   0.0000000   0.3333333), wk =   0.0185185
        k(    4) = (   0.0000000   0.0000000  -0.5000000), wk =   0.0092593
        k(    5) = (   0.0000000   0.1666667   0.0000000), wk =   0.0185185
        k(    6) = (   0.0000000   0.1666667   0.1666667), wk =   0.0185185
        k(    7) = (   0.0000000   0.1666667   0.3333333), wk =   0.0185185
        k(    8) = (   0.0000000   0.1666667  -0.5000000), wk =   0.0185185
        k(    9) = (   0.0000000   0.3333333   0.0000000), wk =   0.0185185
        k(   10) = (   0.0000000   0.3333333   0.1666667), wk =   0.0185185
        k(   11) = (   0.0000000   0.3333333   0.3333333), wk =   0.0185185
        k(   12) = (   0.0000000   0.3333333  -0.5000000), wk =   0.0185185
        k(   13) = (   0.0000000  -0.5000000   0.0000000), wk =   0.0092593
        k(   14) = (   0.0000000  -0.5000000   0.1666667), wk =   0.0185185
        k(   15) = (   0.0000000  -0.5000000   0.3333333), wk =   0.0185185
        k(   16) = (   0.0000000  -0.5000000  -0.5000000), wk =   0.0092593
        k(   17) = (   0.1666667   0.0000000   0.0000000), wk =   0.0370370
        k(   18) = (   0.1666667   0.0000000   0.1666667), wk =   0.0370370
        k(   19) = (   0.1666667   0.0000000   0.3333333), wk =   0.0370370
        k(   20) = (   0.1666667   0.0000000  -0.5000000), wk =   0.0370370
        k(   21) = (   0.1666667   0.1666667   0.0000000), wk =   0.0370370
        k(   22) = (   0.1666667   0.1666667   0.1666667), wk =   0.0370370
        k(   23) = (   0.1666667   0.1666667   0.3333333), wk =   0.0370370
        k(   24) = (   0.1666667   0.1666667  -0.5000000), wk =   0.0370370
        k(   25) = (   0.1666667   0.3333333   0.0000000), wk =   0.0185185
        k(   26) = (   0.1666667   0.3333333   0.1666667), wk =   0.0370370
        k(   27) = (   0.1666667   0.3333333   0.3333333), wk =   0.0370370
        k(   28) = (   0.1666667   0.3333333  -0.5000000), wk =   0.0185185
        k(   29) = (   0.1666667  -0.1666667   0.0000000), wk =   0.0185185
        k(   30) = (   0.1666667  -0.1666667   0.1666667), wk =   0.0370370
        k(   31) = (   0.1666667  -0.1666667   0.3333333), wk =   0.0370370
        k(   32) = (   0.1666667  -0.1666667  -0.5000000), wk =   0.0185185
        k(   33) = (   0.3333333   0.0000000   0.0000000), wk =   0.0370370
        k(   34) = (   0.3333333   0.0000000   0.1666667), wk =   0.0370370
        k(   35) = (   0.3333333   0.0000000   0.3333333), wk =   0.0370370
        k(   36) = (   0.3333333   0.0000000  -0.5000000), wk =   0.0370370
        k(   37) = (   0.3333333   0.1666667   0.0000000), wk =   0.0185185
        k(   38) = (   0.3333333   0.1666667   0.1666667), wk =   0.0370370
        k(   39) = (   0.3333333   0.1666667   0.3333333), wk =   0.0370370
        k(   40) = (   0.3333333   0.1666667  -0.5000000), wk =   0.0185185
        k(   41) = (   0.3333333  -0.5000000   0.0000000), wk =   0.0370370
        k(   42) = (   0.3333333  -0.5000000   0.1666667), wk =   0.0370370
        k(   43) = (   0.3333333  -0.5000000   0.3333333), wk =   0.0370370
        k(   44) = (   0.3333333  -0.5000000  -0.5000000), wk =   0.0370370
        k(   45) = (   0.3333333  -0.3333333   0.0000000), wk =   0.0185185
        k(   46) = (   0.3333333  -0.3333333   0.1666667), wk =   0.0370370
        k(   47) = (   0.3333333  -0.3333333   0.3333333), wk =   0.0370370
        k(   48) = (   0.3333333  -0.3333333  -0.5000000), wk =   0.0185185
        k(   49) = (  -0.5000000   0.0000000   0.0000000), wk =   0.0092593
        k(   50) = (  -0.5000000   0.0000000   0.1666667), wk =   0.0185185
        k(   51) = (  -0.5000000   0.0000000   0.3333333), wk =   0.0185185
        k(   52) = (  -0.5000000   0.0000000  -0.5000000), wk =   0.0092593
        k(   53) = (  -0.5000000   0.1666667   0.0000000), wk =   0.0185185
        k(   54) = (  -0.5000000   0.1666667   0.1666667), wk =   0.0185185
        k(   55) = (  -0.5000000   0.1666667   0.3333333), wk =   0.0185185
        k(   56) = (  -0.5000000   0.1666667  -0.5000000), wk =   0.0185185
        k(   57) = (  -0.5000000   0.3333333   0.0000000), wk =   0.0185185
        k(   58) = (  -0.5000000   0.3333333   0.1666667), wk =   0.0185185
        k(   59) = (  -0.5000000   0.3333333   0.3333333), wk =   0.0185185
        k(   60) = (  -0.5000000   0.3333333  -0.5000000), wk =   0.0185185
        k(   61) = (  -0.5000000  -0.5000000   0.0000000), wk =   0.0092593
        k(   62) = (  -0.5000000  -0.5000000   0.1666667), wk =   0.0185185
        k(   63) = (  -0.5000000  -0.5000000   0.3333333), wk =   0.0185185
        k(   64) = (  -0.5000000  -0.5000000  -0.5000000), wk =   0.0092593
        k(   65) = (   0.0000000   0.1666667  -0.1666667), wk =   0.0185185
        k(   66) = (   0.0000000   0.1666667  -0.3333333), wk =   0.0185185
        k(   67) = (   0.0000000   0.3333333  -0.1666667), wk =   0.0185185
        k(   68) = (   0.0000000   0.3333333  -0.3333333), wk =   0.0185185
        k(   69) = (  -0.1666667   0.3333333  -0.1666667), wk =   0.0370370
        k(   70) = (  -0.1666667   0.3333333  -0.3333333), wk =   0.0370370
        k(   71) = (  -0.1666667   0.5000000  -0.1666667), wk =   0.0370370
        k(   72) = (  -0.1666667   0.5000000  -0.3333333), wk =   0.0370370
        k(   73) = (  -0.3333333   0.6666667  -0.1666667), wk =   0.0370370
        k(   74) = (  -0.3333333   0.6666667  -0.3333333), wk =   0.0370370
        k(   75) = (  -0.3333333   0.1666667  -0.1666667), wk =   0.0370370
        k(   76) = (  -0.3333333   0.1666667  -0.3333333), wk =   0.0370370
        k(   77) = (   0.5000000  -0.8333333  -0.1666667), wk =   0.0185185
        k(   78) = (   0.5000000  -0.8333333  -0.3333333), wk =   0.0185185
        k(   79) = (   0.5000000  -0.6666667  -0.1666667), wk =   0.0185185
        k(   80) = (   0.5000000  -0.6666667  -0.3333333), wk =   0.0185185

     Dense  grid:    96315 G-vectors     FFT dimensions: (  40,  80,  72)

     Smooth grid:    33947 G-vectors     FFT dimensions: (  27,  60,  50)

     Dynamical RAM for                 wfc:       0.58 MB

     Dynamical RAM for     wfc (w. buffer):      23.94 MB

     Dynamical RAM for           str. fact:       0.73 MB

     Dynamical RAM for           local pot:       0.00 MB

     Dynamical RAM for          nlocal pot:       1.69 MB

     Dynamical RAM for                qrad:       3.21 MB

     Dynamical RAM for          rho,v,vnew:       2.42 MB

     Dynamical RAM for               rhoin:       0.81 MB

     Dynamical RAM for            rho*nmix:       5.88 MB

     Dynamical RAM for           G-vectors:       1.44 MB

     Dynamical RAM for          h,s,v(r/c):       0.24 MB

     Dynamical RAM for          <psi|beta>:       0.06 MB

     Dynamical RAM for                 psi:       1.17 MB

     Dynamical RAM for                hpsi:       1.17 MB

     Dynamical RAM for                spsi:       1.17 MB

     Dynamical RAM for      wfcinit/wfcrot:       1.75 MB

     Dynamical RAM for           addusdens:      35.09 MB

     Dynamical RAM for          addusforce:      36.21 MB

     Estimated static dynamical RAM per process >      37.54 MB

     Estimated max dynamical RAM per process >      79.63 MB

     Estimated total dynamical RAM >     613.52 MB

     Check: negative core charge=   -0.000002

     Initial potential from superposition of free atoms

     starting charge      71.9851, renormalised to      72.0000
     Starting wfcs are   52 randomized atomic wfcs

     total cpu time spent up to now is        8.5 secs

     Self-consistent Calculation

     iteration #  1     ecut=    50.00 Ry     beta= 0.30
     Davidson diagonalization with overlap

---- Real-time Memory Report at c_bands before calling an iterative solver
            81 MiB given to the printing process from OS
             0 MiB allocation reported by mallinfo(arena+hblkhd)
         55880 MiB available memory on the node where the printing process lives
------------------
     ethr =  1.00E-02,  avg # of iterations =  1.7

     total cpu time spent up to now is       19.6 secs

     total energy              =    -722.91042767 Ry
     estimated scf accuracy    <       1.45039543 Ry

     iteration #  2     ecut=    50.00 Ry     beta= 0.30
     Davidson diagonalization with overlap

---- Real-time Memory Report at c_bands before calling an iterative solver
           111 MiB given to the printing process from OS
             0 MiB allocation reported by mallinfo(arena+hblkhd)
         55704 MiB available memory on the node where the printing process lives
------------------
     ethr =  2.01E-03,  avg # of iterations =  2.1

     total cpu time spent up to now is       33.5 secs

     total energy              =    -723.13551182 Ry
     estimated scf accuracy    <       0.16687612 Ry

     iteration #  3     ecut=    50.00 Ry     beta= 0.30
     Davidson diagonalization with overlap

---- Real-time Memory Report at c_bands before calling an iterative solver
           112 MiB given to the printing process from OS
             0 MiB allocation reported by mallinfo(arena+hblkhd)
         55682 MiB available memory on the node where the printing process lives
------------------
     ethr =  2.32E-04,  avg # of iterations =  6.7

     total cpu time spent up to now is       56.9 secs

     total energy              =    -723.18283480 Ry
     estimated scf accuracy    <       0.13723819 Ry

     iteration #  4     ecut=    50.00 Ry     beta= 0.30
     Davidson diagonalization with overlap

---- Real-time Memory Report at c_bands before calling an iterative solver
           112 MiB given to the printing process from OS
             0 MiB allocation reported by mallinfo(arena+hblkhd)
         55517 MiB available memory on the node where the printing process lives
------------------
     ethr =  1.91E-04,  avg # of iterations =  8.9

     total cpu time spent up to now is       86.9 secs

     total energy              =    -723.28212475 Ry
     estimated scf accuracy    <       0.54807808 Ry

     iteration #  5     ecut=    50.00 Ry     beta= 0.30
     Davidson diagonalization with overlap

---- Real-time Memory Report at c_bands before calling an iterative solver
           113 MiB given to the printing process from OS
             0 MiB allocation reported by mallinfo(arena+hblkhd)
         55510 MiB available memory on the node where the printing process lives
------------------
     ethr =  1.91E-04,  avg # of iterations =  2.0

     total cpu time spent up to now is       98.6 secs

     total energy              =    -723.05547084 Ry
     estimated scf accuracy    <       0.33238830 Ry

     iteration #  6     ecut=    50.00 Ry     beta= 0.30
     Davidson diagonalization with overlap

---- Real-time Memory Report at c_bands before calling an iterative solver
           113 MiB given to the printing process from OS
             0 MiB allocation reported by mallinfo(arena+hblkhd)
         55494 MiB available memory on the node where the printing process lives
------------------
     ethr =  1.91E-04,  avg # of iterations =  8.4

     total cpu time spent up to now is      126.0 secs

     total energy              =    -723.26090430 Ry
     estimated scf accuracy    <       0.48593715 Ry

     iteration #  7     ecut=    50.00 Ry     beta= 0.30
     Davidson diagonalization with overlap

---- Real-time Memory Report at c_bands before calling an iterative solver
           113 MiB given to the printing process from OS
             0 MiB allocation reported by mallinfo(arena+hblkhd)
         55745 MiB available memory on the node where the printing process lives
------------------
     ethr =  1.91E-04,  avg # of iterations =  2.0

     total cpu time spent up to now is      137.6 secs

     total energy              =    -723.20455056 Ry
     estimated scf accuracy    <       0.26738801 Ry

     iteration #  8     ecut=    50.00 Ry     beta= 0.30
     Davidson diagonalization with overlap

---- Real-time Memory Report at c_bands before calling an iterative solver
           113 MiB given to the printing process from OS
             0 MiB allocation reported by mallinfo(arena+hblkhd)
         55571 MiB available memory on the node where the printing process lives
------------------
     ethr =  1.91E-04,  avg # of iterations =  4.4

     total cpu time spent up to now is      152.6 secs

     total energy              =    -723.24057540 Ry
     estimated scf accuracy    <       0.03780730 Ry

     iteration #  9     ecut=    50.00 Ry     beta= 0.30
     Davidson diagonalization with overlap

---- Real-time Memory Report at c_bands before calling an iterative solver
           114 MiB given to the printing process from OS
             0 MiB allocation reported by mallinfo(arena+hblkhd)
         55742 MiB available memory on the node where the printing process lives
------------------
     ethr =  5.25E-05,  avg # of iterations =  5.2

     total cpu time spent up to now is      168.4 secs

     total energy              =    -723.24872283 Ry
     estimated scf accuracy    <       0.01091315 Ry

     iteration # 10     ecut=    50.00 Ry     beta= 0.30
     Davidson diagonalization with overlap

---- Real-time Memory Report at c_bands before calling an iterative solver
           114 MiB given to the printing process from OS
             0 MiB allocation reported by mallinfo(arena+hblkhd)
         55689 MiB available memory on the node where the printing process lives
------------------
     ethr =  1.52E-05,  avg # of iterations =  2.7

     total cpu time spent up to now is      180.5 secs

     total energy              =    -723.24707671 Ry
     estimated scf accuracy    <       0.00668499 Ry

     iteration # 11     ecut=    50.00 Ry     beta= 0.30
     Davidson diagonalization with overlap

---- Real-time Memory Report at c_bands before calling an iterative solver
           114 MiB given to the printing process from OS
             0 MiB allocation reported by mallinfo(arena+hblkhd)
         55573 MiB available memory on the node where the printing process lives
------------------
     ethr =  9.28E-06,  avg # of iterations =  4.7

     total cpu time spent up to now is      195.9 secs

     total energy              =    -723.24836199 Ry
     estimated scf accuracy    <       0.00031231 Ry

     iteration # 12     ecut=    50.00 Ry     beta= 0.30
     Davidson diagonalization with overlap

---- Real-time Memory Report at c_bands before calling an iterative solver
           114 MiB given to the printing process from OS
             0 MiB allocation reported by mallinfo(arena+hblkhd)
         55514 MiB available memory on the node where the printing process lives
------------------
     ethr =  4.34E-07,  avg # of iterations =  9.7

     total cpu time spent up to now is      227.6 secs

     total energy              =    -723.24934502 Ry
     estimated scf accuracy    <       0.00148221 Ry

     iteration # 13     ecut=    50.00 Ry     beta= 0.30
     Davidson diagonalization with overlap

---- Real-time Memory Report at c_bands before calling an iterative solver
           114 MiB given to the printing process from OS
             0 MiB allocation reported by mallinfo(arena+hblkhd)
         55654 MiB available memory on the node where the printing process lives
------------------
     ethr =  4.34E-07,  avg # of iterations =  1.2

     total cpu time spent up to now is      238.1 secs

     total energy              =    -723.24910449 Ry
     estimated scf accuracy    <       0.00147347 Ry

     iteration # 14     ecut=    50.00 Ry     beta= 0.30
     Davidson diagonalization with overlap

---- Real-time Memory Report at c_bands before calling an iterative solver
           114 MiB given to the printing process from OS
             0 MiB allocation reported by mallinfo(arena+hblkhd)
         55667 MiB available memory on the node where the printing process lives
------------------
     ethr =  4.34E-07,  avg # of iterations =  1.1

     total cpu time spent up to now is      248.8 secs

     total energy              =    -723.24917905 Ry
     estimated scf accuracy    <       0.00099905 Ry

     iteration # 15     ecut=    50.00 Ry     beta= 0.30
     Davidson diagonalization with overlap

---- Real-time Memory Report at c_bands before calling an iterative solver
           114 MiB given to the printing process from OS
             0 MiB allocation reported by mallinfo(arena+hblkhd)
         55622 MiB available memory on the node where the printing process lives
------------------
     ethr =  4.34E-07,  avg # of iterations =  1.0

     total cpu time spent up to now is      259.3 secs

     total energy              =    -723.24918548 Ry
     estimated scf accuracy    <       0.00110208 Ry

     iteration # 16     ecut=    50.00 Ry     beta= 0.30
     Davidson diagonalization with overlap

---- Real-time Memory Report at c_bands before calling an iterative solver
           114 MiB given to the printing process from OS
             0 MiB allocation reported by mallinfo(arena+hblkhd)
         55571 MiB available memory on the node where the printing process lives
------------------
     ethr =  4.34E-07,  avg # of iterations =  1.0

     total cpu time spent up to now is      269.8 secs

     total energy              =    -723.24918279 Ry
     estimated scf accuracy    <       0.00102325 Ry

     iteration # 17     ecut=    50.00 Ry     beta= 0.30
     Davidson diagonalization with overlap

---- Real-time Memory Report at c_bands before calling an iterative solver
           114 MiB given to the printing process from OS
             0 MiB allocation reported by mallinfo(arena+hblkhd)
         55615 MiB available memory on the node where the printing process lives
------------------
     ethr =  4.34E-07,  avg # of iterations =  1.0

     total cpu time spent up to now is      280.3 secs

     total energy              =    -723.24865242 Ry
     estimated scf accuracy    <       0.00098026 Ry

     iteration # 18     ecut=    50.00 Ry     beta= 0.30
     Davidson diagonalization with overlap

---- Real-time Memory Report at c_bands before calling an iterative solver
           114 MiB given to the printing process from OS
             0 MiB allocation reported by mallinfo(arena+hblkhd)
         55662 MiB available memory on the node where the printing process lives
------------------
     ethr =  4.34E-07,  avg # of iterations =  7.8

     total cpu time spent up to now is      307.0 secs

     total energy              =    -723.24892487 Ry
     estimated scf accuracy    <       0.00016085 Ry

     iteration # 19     ecut=    50.00 Ry     beta= 0.30
     Davidson diagonalization with overlap

---- Real-time Memory Report at c_bands before calling an iterative solver
           114 MiB given to the printing process from OS
             0 MiB allocation reported by mallinfo(arena+hblkhd)
         55558 MiB available memory on the node where the printing process lives
------------------
     ethr =  2.23E-07,  avg # of iterations =  5.1

     total cpu time spent up to now is      323.5 secs

     total energy              =    -723.24900405 Ry
     estimated scf accuracy    <       0.00001385 Ry

     iteration # 20     ecut=    50.00 Ry     beta= 0.30
     Davidson diagonalization with overlap

---- Real-time Memory Report at c_bands before calling an iterative solver
           114 MiB given to the printing process from OS
             0 MiB allocation reported by mallinfo(arena+hblkhd)
         55709 MiB available memory on the node where the printing process lives
------------------
     ethr =  1.92E-08,  avg # of iterations = 10.4

     total cpu time spent up to now is      356.8 secs

     total energy              =    -723.24888025 Ry
     estimated scf accuracy    <       0.00034332 Ry

     iteration # 21     ecut=    50.00 Ry     beta= 0.30
     Davidson diagonalization with overlap

---- Real-time Memory Report at c_bands before calling an iterative solver
           114 MiB given to the printing process from OS
             0 MiB allocation reported by mallinfo(arena+hblkhd)
         55648 MiB available memory on the node where the printing process lives
------------------
     ethr =  1.92E-08,  avg # of iterations = 12.2

     total cpu time spent up to now is      395.5 secs

     total energy              =    -723.24895750 Ry
     estimated scf accuracy    <       0.00003671 Ry

     iteration # 22     ecut=    50.00 Ry     beta= 0.30
     Davidson diagonalization with overlap

---- Real-time Memory Report at c_bands before calling an iterative solver
           114 MiB given to the printing process from OS
             0 MiB allocation reported by mallinfo(arena+hblkhd)
         55556 MiB available memory on the node where the printing process lives
------------------
     ethr =  1.92E-08,  avg # of iterations = 10.0

     total cpu time spent up to now is      427.2 secs

     total energy              =    -723.24896843 Ry
     estimated scf accuracy    <       0.00007420 Ry

     iteration # 23     ecut=    50.00 Ry     beta= 0.30
     Davidson diagonalization with overlap

---- Real-time Memory Report at c_bands before calling an iterative solver
           114 MiB given to the printing process from OS
             0 MiB allocation reported by mallinfo(arena+hblkhd)
         55644 MiB available memory on the node where the printing process lives
------------------
     ethr =  1.92E-08,  avg # of iterations =  4.6

     total cpu time spent up to now is      445.0 secs

     total energy              =    -723.24897431 Ry
     estimated scf accuracy    <       0.00000988 Ry

     iteration # 24     ecut=    50.00 Ry     beta= 0.30
     Davidson diagonalization with overlap

---- Real-time Memory Report at c_bands before calling an iterative solver
           114 MiB given to the printing process from OS
             0 MiB allocation reported by mallinfo(arena+hblkhd)
         55464 MiB available memory on the node where the printing process lives
------------------
     ethr =  1.37E-08,  avg # of iterations =  2.0

     total cpu time spent up to now is      456.3 secs

     total energy              =    -723.24897401 Ry
     estimated scf accuracy    <       0.00000660 Ry

     iteration # 25     ecut=    50.00 Ry     beta= 0.30
     Davidson diagonalization with overlap

---- Real-time Memory Report at c_bands before calling an iterative solver
           114 MiB given to the printing process from OS
             0 MiB allocation reported by mallinfo(arena+hblkhd)
         55581 MiB available memory on the node where the printing process lives
------------------
     ethr =  9.17E-09,  avg # of iterations =  2.3

     total cpu time spent up to now is      467.8 secs

     total energy              =    -723.24897430 Ry
     estimated scf accuracy    <       0.00000439 Ry

     iteration # 26     ecut=    50.00 Ry     beta= 0.30
     Davidson diagonalization with overlap

---- Real-time Memory Report at c_bands before calling an iterative solver
           114 MiB given to the printing process from OS
             0 MiB allocation reported by mallinfo(arena+hblkhd)
         55549 MiB available memory on the node where the printing process lives
------------------
     ethr =  6.10E-09,  avg # of iterations =  1.7

     total cpu time spent up to now is      479.1 secs

     total energy              =    -723.24897291 Ry
     estimated scf accuracy    <       0.00000322 Ry

     iteration # 27     ecut=    50.00 Ry     beta= 0.30
     Davidson diagonalization with overlap

---- Real-time Memory Report at c_bands before calling an iterative solver
           114 MiB given to the printing process from OS
             0 MiB allocation reported by mallinfo(arena+hblkhd)
         55568 MiB available memory on the node where the printing process lives
------------------
     ethr =  4.48E-09,  avg # of iterations =  5.2

     total cpu time spent up to now is      496.1 secs

     total energy              =    -723.24897398 Ry
     estimated scf accuracy    <       0.00000017 Ry

     iteration # 28     ecut=    50.00 Ry     beta= 0.30
     Davidson diagonalization with overlap

---- Real-time Memory Report at c_bands before calling an iterative solver
           114 MiB given to the printing process from OS
             0 MiB allocation reported by mallinfo(arena+hblkhd)
         55724 MiB available memory on the node where the printing process lives
------------------
     ethr =  2.32E-10,  avg # of iterations =  6.0

     total cpu time spent up to now is      516.9 secs

     total energy              =    -723.24897415 Ry
     estimated scf accuracy    <       0.00000009 Ry

     iteration # 29     ecut=    50.00 Ry     beta= 0.30
     Davidson diagonalization with overlap

---- Real-time Memory Report at c_bands before calling an iterative solver
           114 MiB given to the printing process from OS
             0 MiB allocation reported by mallinfo(arena+hblkhd)
         55507 MiB available memory on the node where the printing process lives
------------------
     ethr =  1.22E-10,  avg # of iterations =  5.1

     total cpu time spent up to now is      534.8 secs

     total energy              =    -723.24897401 Ry
     estimated scf accuracy    <       0.00000038 Ry

     iteration # 30     ecut=    50.00 Ry     beta= 0.30
     Davidson diagonalization with overlap

---- Real-time Memory Report at c_bands before calling an iterative solver
           114 MiB given to the printing process from OS
             0 MiB allocation reported by mallinfo(arena+hblkhd)
         55637 MiB available memory on the node where the printing process lives
------------------
     ethr =  1.22E-10,  avg # of iterations =  6.3

     total cpu time spent up to now is      553.8 secs

     End of self-consistent calculation

          k = 0.0000 0.0000 0.0000 (  4209 PWs)   bands (ev):

   -11.4917 -10.9930 -10.9123 -10.7624   0.4077   0.4130   0.5930   0.5933
     0.6021   0.6059   0.7291   0.7722   0.7724   0.8548   1.2068   1.2715
     1.4239   1.4240   1.4639   1.5641   1.5642   1.5753   1.6054   1.6858
     1.7689   2.0642   2.7591   3.2212   4.0917   4.4935   5.2116   5.2122
     5.2540   5.6268   5.8557   5.8563

     occupation numbers 
     1.0000   1.0000   1.0000   1.0000   1.0000   1.0000   1.0000   1.0000
     1.0000   1.0000   1.0000   1.0000   1.0000   1.0000   1.0000   1.0000
     1.0000   1.0000   1.0000   1.0000   1.0000   1.0000   1.0000   1.0000
     1.0000   1.0000   1.0000   1.0000   1.0000   1.0000   1.0000   1.0000
     1.0000   1.0000   1.0000   1.0000

          k = 0.0000 0.0000 0.0956 (  4232 PWs)   bands (ev):

   -11.4599 -11.0282 -10.9016 -10.7717   0.3841   0.3849   0.4998   0.5394
     0.6021   0.6024   0.7552   0.7568   0.7570   0.8753   1.1676   1.2250
     1.4349   1.4350   1.4897   1.5569   1.5569   1.5760   1.6000   1.6834
     2.0362   2.0807   2.6652   3.4343   4.1768   4.5576   5.0191   5.1798
     5.2554   5.2560   5.8130   5.8136

     occupation numbers 
     1.0000   1.0000   1.0000   1.0000   1.0000   1.0000   1.0000   1.0000
     1.0000   1.0000   1.0000   1.0000   1.0000   1.0000   1.0000   1.0000
     1.0000   1.0000   1.0000   1.0000   1.0000   1.0000   1.0000   1.0000
     1.0000   1.0000   1.0000   1.0000   1.0000   1.0000   1.0000   1.0000
     1.0000   1.0000   1.0000   1.0000

          k = 0.0000 0.0000 0.1912 (  4240 PWs)   bands (ev):

   -11.3721 -11.1229 -10.8728 -10.7977   0.3355   0.3377   0.3627   0.4144
     0.6286   0.6288   0.7175   0.7177   0.8302   0.9286   1.0665   1.1133
     1.4641   1.4642   1.5347   1.5347   1.5669   1.5785   1.5905   1.6710
     2.1468   2.4687   2.6412   3.9067   4.1962   4.4010   4.5859   4.9761
     5.3744   5.3750   5.6962   5.6968

     occupation numbers 
     1.0000   1.0000   1.0000   1.0000   1.0000   1.0000   1.0000   1.0000
     1.0000   1.0000   1.0000   1.0000   1.0000   1.0000   1.0000   1.0000
     1.0000   1.0000   1.0000   1.0000   1.0000   1.0000   1.0000   1.0000
     1.0000   1.0000   1.0000   1.0000   1.0000   1.0000   1.0000   1.0000
     1.0000   1.0000   1.0000   1.0000

          k = 0.0000 0.0000-0.2868 (  4224 PWs)   bands (ev):

   -11.2493 -11.2492 -10.8346 -10.8345   0.3112   0.3113   0.3362   0.3363
     0.6699   0.6699   0.6701   0.6702   0.9419   0.9420   1.0080   1.0080
     1.5014   1.5014   1.5014   1.5015   1.5833   1.5833   1.6353   1.6354
     2.2795   2.2796   3.3892   3.3893   4.3613   4.3614   4.6933   4.6934
     5.5358   5.5359   5.5364   5.5365

     occupation numbers 
     1.0000   1.0000   1.0000   1.0000   1.0000   1.0000   1.0000   1.0000
     1.0000   1.0000   1.0000   1.0000   1.0000   1.0000   1.0000   1.0000
     1.0000   1.0000   1.0000   1.0000   1.0000   1.0000   1.0000   1.0000
     1.0000   1.0000   1.0000   1.0000   1.0000   1.0000   1.0000   1.0000
     1.0000   1.0000   1.0000   1.0000

          k = 0.0000 0.0962 0.0000 (  4218 PWs)   bands (ev):

   -11.4582 -10.9747 -10.9630 -10.7686   0.3826   0.4298   0.5588   0.5835
     0.6087   0.6678   0.7269   0.7733   0.7978   0.9366   1.1529   1.1756
     1.4098   1.4227   1.4233   1.5508   1.5655   1.5810   1.5977   1.7610
     1.7800   2.1842   2.5773   3.3759   4.1734   4.6648   4.9635   5.1393
     5.2982   5.3193   5.5990   5.8198

     occupation numbers 
     1.0000   1.0000   1.0000   1.0000   1.0000   1.0000   1.0000   1.0000
     1.0000   1.0000   1.0000   1.0000   1.0000   1.0000   1.0000   1.0000
     1.0000   1.0000   1.0000   1.0000   1.0000   1.0000   1.0000   1.0000
     1.0000   1.0000   1.0000   1.0000   1.0000   1.0000   1.0000   1.0000
     1.0000   1.0000   1.0000   1.0000

          k = 0.0000 0.0962 0.0956 (  4233 PWs)   bands (ev):

   -11.4273 -11.0087 -10.9495 -10.7811   0.3580   0.3987   0.5343   0.5352
     0.5906   0.6183   0.7518   0.7608   0.7816   0.9248   1.1134   1.1393
     1.4227   1.4336   1.4500   1.5526   1.5575   1.5635   1.5918   1.7259
     2.0479   2.1987   2.6871   3.4564   4.2550   4.6999   4.8675   5.0368
     5.1857   5.2260   5.6125   5.7748

     occupation numbers 
     1.0000   1.0000   1.0000   1.0000   1.0000   1.0000   1.0000   1.0000
     1.0000   1.0000   1.0000   1.0000   1.0000   1.0000   1.0000   1.0000
     1.0000   1.0000   1.0000   1.0000   1.0000   1.0000   1.0000   1.0000
     1.0000   1.0000   1.0000   1.0000   1.0000   1.0000   1.0000   1.0000
     1.0000   1.0000   1.0000   1.0000

          k = 0.0000 0.0962 0.1912 (  4246 PWs)   bands (ev):

   -11.3419 -11.1003 -10.9128 -10.8156   0.3199   0.3431   0.3846   0.4192
     0.6220   0.6468   0.7209   0.7405   0.8228   0.9309   1.0397   1.0451
     1.4555   1.4627   1.5066   1.5345   1.5358   1.5581   1.5792   1.6418
     2.3059   2.6482   2.6623   3.8538   4.1620   4.4708   4.6544   5.0280
     5.1509   5.3116   5.5011   5.6515

     occupation numbers 
     1.0000   1.0000   1.0000   1.0000   1.0000   1.0000   1.0000   1.0000
     1.0000   1.0000   1.0000   1.0000   1.0000   1.0000   1.0000   1.0000
     1.0000   1.0000   1.0000   1.0000   1.0000   1.0000   1.0000   1.0000
     1.0000   1.0000   1.0000   1.0000   1.0000   1.0000   1.0000   1.0000
     1.0000   1.0000   1.0000   1.0000

          k = 0.0000 0.0962-0.2868 (  4238 PWs)   bands (ev):

   -11.2227 -11.2226 -10.8637 -10.8636   0.3218   0.3219   0.3311   0.3312
     0.6699   0.6700   0.6906   0.6907   0.9282   0.9283   0.9733   0.9733
     1.4973   1.4973   1.5002   1.5003   1.5672   1.5673   1.5713   1.5713
     2.4754   2.4754   3.3983   3.3983   4.3499   4.3499   4.7535   4.7537
     5.3263   5.3264   5.4822   5.4823

     occupation numbers 
     1.0000   1.0000   1.0000   1.0000   1.0000   1.0000   1.0000   1.0000
     1.0000   1.0000   1.0000   1.0000   1.0000   1.0000   1.0000   1.0000
     1.0000   1.0000   1.0000   1.0000   1.0000   1.0000   1.0000   1.0000
     1.0000   1.0000   1.0000   1.0000   1.0000   1.0000   1.0000   1.0000
     1.0000   1.0000   1.0000   1.0000

          k = 0.0000 0.1925 0.0000 (  4240 PWs)   bands (ev):

   -11.3644 -11.0835 -10.9253 -10.8015   0.3547   0.4695   0.4926   0.5676
     0.6469   0.7162   0.7480   0.8693   0.8868   0.9219   1.0891   1.1019
     1.3724   1.3991   1.4260   1.4975   1.5686   1.5833   1.6399   1.7399
     1.7503   2.0560   2.8380   3.7274   4.3081   4.3883   4.7346   4.9411
     4.9961   5.4159   5.4904   5.7169

     occupation numbers 
     1.0000   1.0000   1.0000   1.0000   1.0000   1.0000   1.0000   1.0000
     1.0000   1.0000   1.0000   1.0000   1.0000   1.0000   1.0000   1.0000
     1.0000   1.0000   1.0000   1.0000   1.0000   1.0000   1.0000   1.0000
     1.0000   1.0000   1.0000   1.0000   1.0000   1.0000   1.0000   1.0000
     1.0000   1.0000   1.0000   1.0000

          k = 0.0000 0.1925 0.0956 (  4243 PWs)   bands (ev):

   -11.3360 -11.0645 -10.9558 -10.8203   0.3335   0.4080   0.5238   0.5347
     0.6589   0.6680   0.7372   0.8127   0.8511   0.8992   1.0197   1.0597
     1.3912   1.3990   1.4362   1.5021   1.5596   1.5753   1.5825   1.6631
     2.0902   2.3053   2.9442   3.6946   4.3062   4.4613   4.6148   4.9684
     4.9944   5.3492   5.3894   5.6657

     occupation numbers 
     1.0000   1.0000   1.0000   1.0000   1.0000   1.0000   1.0000   1.0000
     1.0000   1.0000   1.0000   1.0000   1.0000   1.0000   1.0000   1.0000
     1.0000   1.0000   1.0000   1.0000   1.0000   1.0000   1.0000   1.0000
     1.0000   1.0000   1.0000   1.0000   1.0000   1.0000   1.0000   1.0000
     1.0000   1.0000   1.0000   1.0000

          k = 0.0000 0.1925 0.1912 (  4237 PWs)   bands (ev):

   -11.2579 -11.0384 -11.0127 -10.8716   0.3041   0.3450   0.4213   0.4264
     0.6412   0.6939   0.7511   0.7975   0.8044   0.8648   0.9296   0.9828
     1.4344   1.4384   1.4638   1.5152   1.5350   1.5394   1.5564   1.5790
     2.6229   2.7148   3.0422   3.8586   3.9874   4.6416   4.6561   4.7792
     5.1386   5.1512   5.1665   5.5257

     occupation numbers 
     1.0000   1.0000   1.0000   1.0000   1.0000   1.0000   1.0000   1.0000
     1.0000   1.0000   1.0000   1.0000   1.0000   1.0000   1.0000   1.0000
     1.0000   1.0000   1.0000   1.0000   1.0000   1.0000   1.0000   1.0000
     1.0000   1.0000   1.0000   1.0000   1.0000   1.0000   1.0000   1.0000
     1.0000   1.0000   1.0000   1.0000

          k = 0.0000 0.1925-0.2868 (  4248 PWs)   bands (ev):

   -11.1493 -11.1492 -10.9421 -10.9420   0.3267   0.3267   0.3365   0.3365
     0.6924   0.6925   0.7461   0.7461   0.8797   0.8797   0.8859   0.8859
     1.4884   1.4884   1.5000   1.5001   1.5040   1.5041   1.5344   1.5345
     2.8778   2.8779   3.3891   3.3892   4.3511   4.3511   4.8731   4.8732
     4.9142   4.9143   5.3331   5.3333

     occupation numbers 
     1.0000   1.0000   1.0000   1.0000   1.0000   1.0000   1.0000   1.0000
     1.0000   1.0000   1.0000   1.0000   1.0000   1.0000   1.0000   1.0000
     1.0000   1.0000   1.0000   1.0000   1.0000   1.0000   1.0000   1.0000
     1.0000   1.0000   1.0000   1.0000   1.0000   1.0000   1.0000   1.0000
     1.0000   1.0000   1.0000   1.0000

          k = 0.0000-0.2887 0.0000 (  4232 PWs)   bands (ev):

   -11.2296 -11.2295 -10.8604 -10.8603   0.3898   0.3898   0.5452   0.5452
     0.6886   0.6886   0.7971   0.7971   0.9750   0.9751   1.0973   1.0974
     1.3449   1.3449   1.4495   1.4495   1.5735   1.5736   1.7224   1.7225
     1.7765   1.7766   3.5374   3.5374   4.1980   4.1980   4.6686   4.6687
     5.2907   5.2908   5.5699   5.5700

     occupation numbers 
     1.0000   1.0000   1.0000   1.0000   1.0000   1.0000   1.0000   1.0000
     1.0000   1.0000   1.0000   1.0000   1.0000   1.0000   1.0000   1.0000
     1.0000   1.0000   1.0000   1.0000   1.0000   1.0000   1.0000   1.0000
     1.0000   1.0000   1.0000   1.0000   1.0000   1.0000   1.0000   1.0000
     1.0000   1.0000   1.0000   1.0000

          k = 0.0000-0.2887 0.0956 (  4228 PWs)   bands (ev):

   -11.2054 -11.2053 -10.8856 -10.8855   0.3611   0.3612   0.5326   0.5326
     0.7049   0.7049   0.7620   0.7620   0.9525   0.9526   0.9542   0.9543
     1.3655   1.3655   1.4574   1.4575   1.5644   1.5644   1.6119   1.6119
     2.1826   2.1826   3.5853   3.5854   4.1272   4.1273   4.7314   4.7315
     5.2040   5.2041   5.5109   5.5110

     occupation numbers 
     1.0000   1.0000   1.0000   1.0000   1.0000   1.0000   1.0000   1.0000
     1.0000   1.0000   1.0000   1.0000   1.0000   1.0000   1.0000   1.0000
     1.0000   1.0000   1.0000   1.0000   1.0000   1.0000   1.0000   1.0000
     1.0000   1.0000   1.0000   1.0000   1.0000   1.0000   1.0000   1.0000
     1.0000   1.0000   1.0000   1.0000

          k = 0.0000-0.2887 0.1912 (  4242 PWs)   bands (ev):

   -11.1388 -11.1387 -10.9541 -10.9540   0.3202   0.3202   0.4320   0.4321
     0.7317   0.7317   0.7511   0.7512   0.8350   0.8350   0.8936   0.8936
     1.4176   1.4176   1.4792   1.4792   1.5403   1.5403   1.5504   1.5504
     2.7487   2.7487   3.5600   3.5600   4.1402   4.1403   4.9003   4.9004
     4.9168   4.9168   5.3492   5.3493

     occupation numbers 
     1.0000   1.0000   1.0000   1.0000   1.0000   1.0000   1.0000   1.0000
     1.0000   1.0000   1.0000   1.0000   1.0000   1.0000   1.0000   1.0000
     1.0000   1.0000   1.0000   1.0000   1.0000   1.0000   1.0000   1.0000
     1.0000   1.0000   1.0000   1.0000   1.0000   1.0000   1.0000   1.0000
     1.0000   1.0000   1.0000   1.0000

          k = 0.0000-0.2887-0.2868 (  4252 PWs)   bands (ev):

   -11.0470 -11.0470 -11.0469 -11.0468   0.3334   0.3334   0.3334   0.3334
     0.7687   0.7687   0.7688   0.7688   0.8191   0.8192   0.8192   0.8193
     1.4842   1.4843   1.4843   1.4843   1.5092   1.5092   1.5092   1.5093
     3.2409   3.2409   3.2409   3.2409   4.4888   4.4888   4.4888   4.4889
     5.1264   5.1265   5.1265   5.1266

     occupation numbers 
     1.0000   1.0000   1.0000   1.0000   1.0000   1.0000   1.0000   1.0000
     1.0000   1.0000   1.0000   1.0000   1.0000   1.0000   1.0000   1.0000
     1.0000   1.0000   1.0000   1.0000   1.0000   1.0000   1.0000   1.0000
     1.0000   1.0000   1.0000   1.0000   1.0000   1.0000   1.0000   1.0000
     1.0000   1.0000   1.0000   1.0000

          k = 0.1667 0.0962 0.0000 (  4244 PWs)   bands (ev):

   -11.3644 -10.9253 -10.9182 -10.7598   0.4559   0.4696   0.4926   0.6466
     0.6956   0.7407   0.7482   0.8691   0.8869   1.0131   1.0941   1.2065
     1.3724   1.3969   1.4261   1.4546   1.5686   1.6382   1.6399   1.7399
     1.8198   2.2255   2.7534   3.3461   3.6367   4.3085   4.5799   4.7348
     4.9352   4.9407   5.4904   5.7164

     occupation numbers 
     1.0000   1.0000   1.0000   1.0000   1.0000   1.0000   1.0000   1.0000
     1.0000   1.0000   1.0000   1.0000   1.0000   1.0000   1.0000   1.0000
     1.0000   1.0000   1.0000   1.0000   1.0000   1.0000   1.0000   1.0000
     1.0000   1.0000   1.0000   1.0000   1.0000   1.0000   1.0000   1.0000
     1.0000   1.0000   1.0000   1.0000

          k = 0.1667 0.0962 0.0956 (  4250 PWs)   bands (ev):

   -11.3360 -10.9558 -10.9069 -10.7697   0.4080   0.4514   0.5239   0.6220
     0.6587   0.6681   0.7620   0.8128   0.8510   0.9774   1.0768   1.1579
     1.3912   1.4005   1.4363   1.4953   1.5596   1.5826   1.6404   1.7928
     2.0902   2.2384   2.7776   3.4505   3.7538   4.3065   4.6150   4.6185
     4.8529   4.9939   5.3896   5.6653

     occupation numbers 
     1.0000   1.0000   1.0000   1.0000   1.0000   1.0000   1.0000   1.0000
     1.0000   1.0000   1.0000   1.0000   1.0000   1.0000   1.0000   1.0000
     1.0000   1.0000   1.0000   1.0000   1.0000   1.0000   1.0000   1.0000
     1.0000   1.0000   1.0000   1.0000   1.0000   1.0000   1.0000   1.0000
     1.0000   1.0000   1.0000   1.0000

          k = 0.1667 0.0962 0.1912 (  4248 PWs)   bands (ev):

   -11.2579 -11.0384 -10.8766 -10.7973   0.3451   0.4214   0.4311   0.5178
     0.6413   0.6937   0.7512   0.7648   0.8042   0.9417   1.0257   1.0889
     1.4344   1.4460   1.4638   1.5204   1.5350   1.5394   1.6509   1.7306
     2.3372   2.6770   2.7148   3.7764   3.9875   4.0738   4.5286   4.6419
     4.7119   5.1382   5.1515   5.5253

     occupation numbers 
     1.0000   1.0000   1.0000   1.0000   1.0000   1.0000   1.0000   1.0000
     1.0000   1.0000   1.0000   1.0000   1.0000   1.0000   1.0000   1.0000
     1.0000   1.0000   1.0000   1.0000   1.0000   1.0000   1.0000   1.0000
     1.0000   1.0000   1.0000   1.0000   1.0000   1.0000   1.0000   1.0000
     1.0000   1.0000   1.0000   1.0000

          k = 0.1667 0.0962-0.2868 (  4246 PWs)   bands (ev):

   -11.1493 -11.1492 -10.8364 -10.8363   0.3365   0.3366   0.4392   0.4393
     0.6926   0.6926   0.7459   0.7459   0.8400   0.8401   1.0434   1.0434
     1.4884   1.4884   1.4983   1.4983   1.5000   1.5001   1.6782   1.6782
     2.5014   2.5014   3.3891   3.3892   4.1430   4.1430   4.5066   4.5066
     4.8735   4.8735   5.3327   5.3328

     occupation numbers 
     1.0000   1.0000   1.0000   1.0000   1.0000   1.0000   1.0000   1.0000
     1.0000   1.0000   1.0000   1.0000   1.0000   1.0000   1.0000   1.0000
     1.0000   1.0000   1.0000   1.0000   1.0000   1.0000   1.0000   1.0000
     1.0000   1.0000   1.0000   1.0000   1.0000   1.0000   1.0000   1.0000
     1.0000   1.0000   1.0000   1.0000

          k = 0.1667 0.1925 0.0000 (  4248 PWs)   bands (ev):

   -11.2801 -11.0280 -10.8836 -10.7826   0.4458   0.4776   0.5388   0.5733
     0.6229   0.6956   0.7810   0.9216   0.9343   1.0372   1.0964   1.2048
     1.3512   1.3531   1.4245   1.4297   1.5699   1.5999   1.7210   1.7292
     1.7980   2.1672   3.0276   3.4139   3.9250   3.9802   4.2436   4.7979
     4.9223   5.1021   5.3790   5.5769

     occupation numbers 
     1.0000   1.0000   1.0000   1.0000   1.0000   1.0000   1.0000   1.0000
     1.0000   1.0000   1.0000   1.0000   1.0000   1.0000   1.0000   1.0000
     1.0000   1.0000   1.0000   1.0000   1.0000   1.0000   1.0000   1.0000
     1.0000   1.0000   1.0000   1.0000   1.0000   1.0000   1.0000   1.0000
     1.0000   1.0000   1.0000   1.0000

          k = 0.1667 0.1925 0.0956 (  4248 PWs)   bands (ev):

   -11.2542 -11.0113 -10.9109 -10.7987   0.4012   0.4521   0.5410   0.5467
     0.6248   0.7313   0.7487   0.8911   0.9031   0.9140   1.0541   1.0937
     1.3518   1.3718   1.4448   1.4905   1.5608   1.5966   1.6043   1.7312
     2.1454   2.3407   3.0895   3.4910   3.9475   4.0203   4.2044   4.8192
     4.9127   5.0219   5.2844   5.5191

     occupation numbers 
     1.0000   1.0000   1.0000   1.0000   1.0000   1.0000   1.0000   1.0000
     1.0000   1.0000   1.0000   1.0000   1.0000   1.0000   1.0000   1.0000
     1.0000   1.0000   1.0000   1.0000   1.0000   1.0000   1.0000   1.0000
     1.0000   1.0000   1.0000   1.0000   1.0000   1.0000   1.0000   1.0000
     1.0000   1.0000   1.0000   1.0000

          k = 0.1667 0.1925 0.1912 (  4255 PWs)   bands (ev):

   -11.1831 -10.9849 -10.9658 -10.8430   0.3444   0.4017   0.4391   0.4740
     0.6618   0.7346   0.7810   0.8026   0.8401   0.8617   0.9626   0.9934
     1.4128   1.4221   1.4712   1.5223   1.5365   1.5484   1.5905   1.6414
     2.6051   2.7484   3.0343   3.7696   3.8662   4.1908   4.3095   4.7581
     4.8292   4.9179   5.0265   5.3616

     occupation numbers 
     1.0000   1.0000   1.0000   1.0000   1.0000   1.0000   1.0000   1.0000
     1.0000   1.0000   1.0000   1.0000   1.0000   1.0000   1.0000   1.0000
     1.0000   1.0000   1.0000   1.0000   1.0000   1.0000   1.0000   1.0000
     1.0000   1.0000   1.0000   1.0000   1.0000   1.0000   1.0000   1.0000
     1.0000   1.0000   1.0000   1.0000

          k = 0.1667 0.1925-0.2868 (  4272 PWs)   bands (ev):

   -11.0848 -11.0847 -10.9042 -10.9041   0.3453   0.3454   0.4026   0.4026
     0.7171   0.7172   0.8013   0.8014   0.8280   0.8281   0.9301   0.9302
     1.4852   1.4852   1.4906   1.4906   1.5049   1.5049   1.5923   1.5924
     2.8419   2.8419   3.3285   3.3285   4.3218   4.3219   4.5650   4.5651
     4.6246   4.6246   5.1504   5.1505

     occupation numbers 
     1.0000   1.0000   1.0000   1.0000   1.0000   1.0000   1.0000   1.0000
     1.0000   1.0000   1.0000   1.0000   1.0000   1.0000   1.0000   1.0000
     1.0000   1.0000   1.0000   1.0000   1.0000   1.0000   1.0000   1.0000
     1.0000   1.0000   1.0000   1.0000   1.0000   1.0000   1.0000   1.0000
     1.0000   1.0000   1.0000   1.0000

          k = 0.1667 0.2887 0.0000 (  4254 PWs)   bands (ev):

   -11.1592 -11.1591 -10.8297 -10.8296   0.4609   0.4609   0.5627   0.5627
     0.6194   0.6195   0.8396   0.8396   1.0226   1.0227   1.1722   1.1722
     1.3276   1.3276   1.4358   1.4358   1.5770   1.5770   1.7410   1.7410
     1.9124   1.9124   3.5686   3.5686   3.6460   3.6461   4.4529   4.4529
     5.1929   5.1930   5.3405   5.3406

     occupation numbers 
     1.0000   1.0000   1.0000   1.0000   1.0000   1.0000   1.0000   1.0000
     1.0000   1.0000   1.0000   1.0000   1.0000   1.0000   1.0000   1.0000
     1.0000   1.0000   1.0000   1.0000   1.0000   1.0000   1.0000   1.0000
     1.0000   1.0000   1.0000   1.0000   1.0000   1.0000   1.0000   1.0000
     1.0000   1.0000   1.0000   1.0000

          k = 0.1667 0.2887 0.0956 (  4244 PWs)   bands (ev):

   -11.1374 -11.1373 -10.8520 -10.8519   0.4193   0.4193   0.5447   0.5447
     0.6524   0.6524   0.8162   0.8163   0.9980   0.9980   1.0083   1.0084
     1.3505   1.3505   1.4712   1.4712   1.5695   1.5696   1.6498   1.6498
     2.2536   2.2537   3.6021   3.6021   3.6722   3.6722   4.4700   4.4700
     5.1351   5.1352   5.2698   5.2699

     occupation numbers 
     1.0000   1.0000   1.0000   1.0000   1.0000   1.0000   1.0000   1.0000
     1.0000   1.0000   1.0000   1.0000   1.0000   1.0000   1.0000   1.0000
     1.0000   1.0000   1.0000   1.0000   1.0000   1.0000   1.0000   1.0000
     1.0000   1.0000   1.0000   1.0000   1.0000   1.0000   1.0000   1.0000
     1.0000   1.0000   1.0000   1.0000

          k = 0.1667 0.2887 0.1912 (  4264 PWs)   bands (ev):

   -11.0775 -11.0774 -10.9127 -10.9126   0.3637   0.3637   0.4561   0.4561
     0.7083   0.7084   0.7860   0.7861   0.8742   0.8742   0.9347   0.9348
     1.4106   1.4106   1.4982   1.4983   1.5510   1.5510   1.5739   1.5740
     2.7470   2.7471   3.4374   3.4375   3.9854   3.9854   4.5815   4.5816
     4.9029   4.9029   5.0802   5.0803

     occupation numbers 
     1.0000   1.0000   1.0000   1.0000   1.0000   1.0000   1.0000   1.0000
     1.0000   1.0000   1.0000   1.0000   1.0000   1.0000   1.0000   1.0000
     1.0000   1.0000   1.0000   1.0000   1.0000   1.0000   1.0000   1.0000
     1.0000   1.0000   1.0000   1.0000   1.0000   1.0000   1.0000   1.0000
     1.0000   1.0000   1.0000   1.0000

          k = 0.1667 0.2887-0.2868 (  4272 PWs)   bands (ev):

   -10.9953 -10.9953 -10.9953 -10.9951   0.3680   0.3680   0.3680   0.3680
     0.7637   0.7637   0.7638   0.7638   0.8667   0.8667   0.8667   0.8667
     1.4857   1.4857   1.4858   1.4858   1.5309   1.5309   1.5310   1.5310
     3.1501   3.1501   3.1501   3.1501   4.4438   4.4439   4.4439   4.4439
     4.8364   4.8364   4.8364   4.8365

     occupation numbers 
     1.0000   1.0000   1.0000   1.0000   1.0000   1.0000   1.0000   1.0000
     1.0000   1.0000   1.0000   1.0000   1.0000   1.0000   1.0000   1.0000
     1.0000   1.0000   1.0000   1.0000   1.0000   1.0000   1.0000   1.0000
     1.0000   1.0000   1.0000   1.0000   1.0000   1.0000   1.0000   1.0000
     1.0000   1.0000   1.0000   1.0000

          k = 0.1667 0.0000 0.0000 (  4234 PWs)   bands (ev):

   -11.3945 -10.9408 -10.8699 -10.7590   0.4471   0.4687   0.5205   0.6054
     0.7475   0.7495   0.7976   0.8344   0.8459   0.9647   1.1668   1.2167
     1.3869   1.3901   1.4206   1.4977   1.5668   1.6205   1.6999   1.7019
     1.7466   2.1954   2.7756   3.1639   3.7269   4.3509   4.5942   4.7211
     4.8757   5.0890   5.5284   5.7317

     occupation numbers 
     1.0000   1.0000   1.0000   1.0000   1.0000   1.0000   1.0000   1.0000
     1.0000   1.0000   1.0000   1.0000   1.0000   1.0000   1.0000   1.0000
     1.0000   1.0000   1.0000   1.0000   1.0000   1.0000   1.0000   1.0000
     1.0000   1.0000   1.0000   1.0000   1.0000   1.0000   1.0000   1.0000
     1.0000   1.0000   1.0000   1.0000

          k = 0.1667 0.0000 0.0956 (  4242 PWs)   bands (ev):

   -11.3653 -10.9725 -10.8617 -10.7656   0.4148   0.4478   0.5644   0.5678
     0.6804   0.7064   0.7257   0.7886   0.8286   0.9984   1.1168   1.1962
     1.4022   1.4298   1.4328   1.5001   1.5582   1.5776   1.7067   1.7104
     2.0751   2.1815   2.6878   3.3241   3.8625   4.4191   4.5605   4.6483
     4.7923   5.0719   5.4499   5.6819

     occupation numbers 
     1.0000   1.0000   1.0000   1.0000   1.0000   1.0000   1.0000   1.0000
     1.0000   1.0000   1.0000   1.0000   1.0000   1.0000   1.0000   1.0000
     1.0000   1.0000   1.0000   1.0000   1.0000   1.0000   1.0000   1.0000
     1.0000   1.0000   1.0000   1.0000   1.0000   1.0000   1.0000   1.0000
     1.0000   1.0000   1.0000   1.0000

          k = 0.1667 0.0000 0.1912 (  4239 PWs)   bands (ev):

   -11.2848 -11.0581 -10.8399 -10.7843   0.3501   0.4150   0.4396   0.5519
     0.6204   0.6821   0.7376   0.7390   0.7845   0.9784   1.0562   1.1594
     1.4417   1.4617   1.4829   1.5042   1.5339   1.5390   1.7225   1.7296
     2.2092   2.5046   2.6997   3.6726   4.0614   4.1919   4.3859   4.6562
     4.7989   5.1542   5.2772   5.5463

     occupation numbers 
     1.0000   1.0000   1.0000   1.0000   1.0000   1.0000   1.0000   1.0000
     1.0000   1.0000   1.0000   1.0000   1.0000   1.0000   1.0000   1.0000
     1.0000   1.0000   1.0000   1.0000   1.0000   1.0000   1.0000   1.0000
     1.0000   1.0000   1.0000   1.0000   1.0000   1.0000   1.0000   1.0000
     1.0000   1.0000   1.0000   1.0000

          k = 0.1667 0.0000-0.2868 (  4244 PWs)   bands (ev):

   -11.1727 -11.1726 -10.8113 -10.8112   0.3355   0.3355   0.4563   0.4563
     0.6768   0.6768   0.7318   0.7318   0.8333   0.8334   1.1111   1.1111
     1.4913   1.4913   1.4992   1.4992   1.5025   1.5026   1.7351   1.7351
     2.3266   2.3267   3.3995   3.3996   4.0626   4.0627   4.5090   4.5091
     5.0125   5.0126   5.3644   5.3645

     occupation numbers 
     1.0000   1.0000   1.0000   1.0000   1.0000   1.0000   1.0000   1.0000
     1.0000   1.0000   1.0000   1.0000   1.0000   1.0000   1.0000   1.0000
     1.0000   1.0000   1.0000   1.0000   1.0000   1.0000   1.0000   1.0000
     1.0000   1.0000   1.0000   1.0000   1.0000   1.0000   1.0000   1.0000
     1.0000   1.0000   1.0000   1.0000

          k = 0.3333 0.1925 0.0000 (  4260 PWs)   bands (ev):

   -11.0835 -10.9182 -10.8015 -10.7598   0.3549   0.4560   0.5675   0.6956
     0.7160   0.7406   0.9220   1.0132   1.0889   1.0942   1.1019   1.2064
     1.3968   1.3992   1.4546   1.4975   1.5833   1.6382   1.7503   1.8199
     2.0561   2.2256   2.7534   2.8383   3.3462   3.6364   3.7276   4.3879
     4.5798   4.9349   4.9961   5.4154

     occupation numbers 
     1.0000   1.0000   1.0000   1.0000   1.0000   1.0000   1.0000   1.0000
     1.0000   1.0000   1.0000   1.0000   1.0000   1.0000   1.0000   1.0000
     1.0000   1.0000   1.0000   1.0000   1.0000   1.0000   1.0000   1.0000
     1.0000   1.0000   1.0000   1.0000   1.0000   1.0000   1.0000   1.0000
     1.0000   1.0000   1.0000   1.0000

          k = 0.3333 0.1925 0.0956 (  4265 PWs)   bands (ev):

   -11.0646 -10.9070 -10.8203 -10.7697   0.3336   0.4515   0.5347   0.6219
     0.7370   0.7619   0.8993   0.9775   1.0198   1.0595   1.0769   1.1578
     1.3990   1.4006   1.4953   1.5021   1.5754   1.6404   1.6631   1.7929
     2.2386   2.3054   2.7777   2.9445   3.4506   3.6948   3.7535   4.4609
     4.6184   4.8527   4.9684   5.3488

     occupation numbers 
     1.0000   1.0000   1.0000   1.0000   1.0000   1.0000   1.0000   1.0000
     1.0000   1.0000   1.0000   1.0000   1.0000   1.0000   1.0000   1.0000
     1.0000   1.0000   1.0000   1.0000   1.0000   1.0000   1.0000   1.0000
     1.0000   1.0000   1.0000   1.0000   1.0000   1.0000   1.0000   1.0000
     1.0000   1.0000   1.0000   1.0000

          k = 0.3333 0.1925 0.1912 (  4257 PWs)   bands (ev):

   -11.0127 -10.8767 -10.8716 -10.7974   0.3042   0.4264   0.4312   0.5178
     0.7647   0.7972   0.8650   0.9297   0.9417   0.9826   1.0257   1.0889
     1.4384   1.4461   1.5153   1.5205   1.5564   1.5791   1.6509   1.7307
     2.3373   2.6230   2.6771   3.0424   3.7764   3.8588   4.0736   4.5285
     4.6557   4.7118   4.7793   5.1661

     occupation numbers 
     1.0000   1.0000   1.0000   1.0000   1.0000   1.0000   1.0000   1.0000
     1.0000   1.0000   1.0000   1.0000   1.0000   1.0000   1.0000   1.0000
     1.0000   1.0000   1.0000   1.0000   1.0000   1.0000   1.0000   1.0000
     1.0000   1.0000   1.0000   1.0000   1.0000   1.0000   1.0000   1.0000
     1.0000   1.0000   1.0000   1.0000

          k = 0.3333 0.1925-0.2868 (  4262 PWs)   bands (ev):

   -10.9422 -10.9420 -10.8364 -10.8363   0.3268   0.3268   0.4393   0.4393
     0.8400   0.8400   0.8798   0.8798   0.8857   0.8857   1.0433   1.0434
     1.4984   1.4984   1.5041   1.5041   1.5345   1.5345   1.6782   1.6782
     2.5015   2.5015   2.8780   2.8780   4.1429   4.1429   4.3512   4.3513
     4.5065   4.5065   4.9137   4.9138

     occupation numbers 
     1.0000   1.0000   1.0000   1.0000   1.0000   1.0000   1.0000   1.0000
     1.0000   1.0000   1.0000   1.0000   1.0000   1.0000   1.0000   1.0000
     1.0000   1.0000   1.0000   1.0000   1.0000   1.0000   1.0000   1.0000
     1.0000   1.0000   1.0000   1.0000   1.0000   1.0000   1.0000   1.0000
     1.0000   1.0000   1.0000   1.0000

          k = 0.3333 0.2887 0.0000 (  4272 PWs)   bands (ev):

   -11.0044 -11.0043 -10.7771 -10.7770   0.3968   0.3969   0.5915   0.5915
     0.7118   0.7118   1.0013   1.0013   1.0510   1.0510   1.1610   1.1610
     1.4106   1.4107   1.4926   1.4926   1.5977   1.5977   1.7911   1.7911
     2.2164   2.2164   2.6592   2.6592   3.5028   3.5028   4.1053   4.1053
     4.8148   4.8148   5.2431   5.2431

     occupation numbers 
     1.0000   1.0000   1.0000   1.0000   1.0000   1.0000   1.0000   1.0000
     1.0000   1.0000   1.0000   1.0000   1.0000   1.0000   1.0000   1.0000
     1.0000   1.0000   1.0000   1.0000   1.0000   1.0000   1.0000   1.0000
     1.0000   1.0000   1.0000   1.0000   1.0000   1.0000   1.0000   1.0000
     1.0000   1.0000   1.0000   1.0000

          k = 0.3333 0.2887 0.0956 (  4266 PWs)   bands (ev):

   -10.9888 -10.9887 -10.7919 -10.7918   0.3745   0.3745   0.5519   0.5519
     0.7363   0.7363   0.9654   0.9654   1.0193   1.0193   1.1144   1.1144
     1.4122   1.4122   1.5147   1.5147   1.5929   1.5929   1.7246   1.7246
     2.3045   2.3045   2.7993   2.7994   3.5267   3.5268   4.1840   4.1840
     4.8229   4.8230   5.1686   5.1686

     occupation numbers 
     1.0000   1.0000   1.0000   1.0000   1.0000   1.0000   1.0000   1.0000
     1.0000   1.0000   1.0000   1.0000   1.0000   1.0000   1.0000   1.0000
     1.0000   1.0000   1.0000   1.0000   1.0000   1.0000   1.0000   1.0000
     1.0000   1.0000   1.0000   1.0000   1.0000   1.0000   1.0000   1.0000
     1.0000   1.0000   1.0000   1.0000

          k = 0.3333 0.2887 0.1912 (  4262 PWs)   bands (ev):

   -10.9464 -10.9463 -10.8327 -10.8326   0.3398   0.3399   0.4462   0.4463
     0.7960   0.7960   0.9187   0.9187   0.9774   0.9774   1.0185   1.0185
     1.4523   1.4523   1.5327   1.5327   1.5834   1.5834   1.6339   1.6339
     2.4743   2.4743   2.8385   2.8385   3.8394   3.8395   4.3939   4.3939
     4.7186   4.7187   4.9709   4.9710

     occupation numbers 
     1.0000   1.0000   1.0000   1.0000   1.0000   1.0000   1.0000   1.0000
     1.0000   1.0000   1.0000   1.0000   1.0000   1.0000   1.0000   1.0000
     1.0000   1.0000   1.0000   1.0000   1.0000   1.0000   1.0000   1.0000
     1.0000   1.0000   1.0000   1.0000   1.0000   1.0000   1.0000   1.0000
     1.0000   1.0000   1.0000   1.0000

          k = 0.3333 0.2887-0.2868 (  4256 PWs)   bands (ev):

   -10.8892 -10.8891 -10.8891 -10.8890   0.3552   0.3552   0.3552   0.3553
     0.8822   0.8822   0.8823   0.8823   0.9516   0.9516   0.9517   0.9517
     1.5109   1.5109   1.5110   1.5110   1.5845   1.5845   1.5845   1.5845
     2.6716   2.6717   2.6717   2.6717   4.3355   4.3355   4.3355   4.3356
     4.7037   4.7037   4.7037   4.7038

     occupation numbers 
     1.0000   1.0000   1.0000   1.0000   1.0000   1.0000   1.0000   1.0000
     1.0000   1.0000   1.0000   1.0000   1.0000   1.0000   1.0000   1.0000
     1.0000   1.0000   1.0000   1.0000   1.0000   1.0000   1.0000   1.0000
     1.0000   1.0000   1.0000   1.0000   1.0000   1.0000   1.0000   1.0000
     1.0000   1.0000   1.0000   1.0000

          k = 0.3333-0.0962 0.0000 (  4250 PWs)   bands (ev):

   -11.1392 -10.8418 -10.8219 -10.7607   0.3962   0.4472   0.5712   0.6728
     0.8096   0.8614   0.9025   1.0222   1.0378   1.1496   1.1498   1.2667
     1.3562   1.3605   1.4375   1.4546   1.5789   1.6764   1.7398   1.7581
     1.9405   2.3117   2.6917   2.9714   3.2034   3.6837   3.8386   4.3117
     4.4281   4.6174   5.1374   5.3989

     occupation numbers 
     1.0000   1.0000   1.0000   1.0000   1.0000   1.0000   1.0000   1.0000
     1.0000   1.0000   1.0000   1.0000   1.0000   1.0000   1.0000   1.0000
     1.0000   1.0000   1.0000   1.0000   1.0000   1.0000   1.0000   1.0000
     1.0000   1.0000   1.0000   1.0000   1.0000   1.0000   1.0000   1.0000
     1.0000   1.0000   1.0000   1.0000

          k = 0.3333-0.0962 0.0956 (  4263 PWs)   bands (ev):

   -11.1181 -10.8432 -10.8355 -10.7653   0.3698   0.4688   0.5448   0.6969
     0.7336   0.8292   0.8376   1.0026   1.0234   1.0276   1.1200   1.2453
     1.3646   1.3810   1.4602   1.4788   1.5710   1.6491   1.6893   1.7793
     2.2672   2.2856   2.6577   3.0619   3.2723   3.8107   3.8482   4.3745
     4.4798   4.5352   5.0844   5.3323

     occupation numbers 
     1.0000   1.0000   1.0000   1.0000   1.0000   1.0000   1.0000   1.0000
     1.0000   1.0000   1.0000   1.0000   1.0000   1.0000   1.0000   1.0000
     1.0000   1.0000   1.0000   1.0000   1.0000   1.0000   1.0000   1.0000
     1.0000   1.0000   1.0000   1.0000   1.0000   1.0000   1.0000   1.0000
     1.0000   1.0000   1.0000   1.0000

          k = 0.3333-0.0962 0.1912 (  4263 PWs)   bands (ev):

   -11.0602 -10.9015 -10.8190 -10.7784   0.3315   0.4437   0.5164   0.6232
     0.7206   0.7507   0.8091   0.8913   0.9051   0.9474   1.1417   1.2111
     1.4165   1.4250   1.4743   1.5014   1.5518   1.5723   1.7269   1.8005
     2.2897   2.5273   2.7178   3.2930   3.3597   3.9430   4.1005   4.2757
     4.5640   4.6401   4.8560   5.1514

     occupation numbers 
     1.0000   1.0000   1.0000   1.0000   1.0000   1.0000   1.0000   1.0000
     1.0000   1.0000   1.0000   1.0000   1.0000   1.0000   1.0000   1.0000
     1.0000   1.0000   1.0000   1.0000   1.0000   1.0000   1.0000   1.0000
     1.0000   1.0000   1.0000   1.0000   1.0000   1.0000   1.0000   1.0000
     1.0000   1.0000   1.0000   1.0000

          k = 0.3333-0.0962-0.2868 (  4264 PWs)   bands (ev):

   -10.9811 -10.9809 -10.7979 -10.7978   0.3471   0.3472   0.5502   0.5503
     0.7645   0.7645   0.8051   0.8052   0.8720   0.8720   1.1770   1.1770
     1.4596   1.4597   1.4883   1.4883   1.5307   1.5307   1.7746   1.7746
     2.3832   2.3832   3.0685   3.0686   3.7580   3.7580   4.3947   4.3947
     4.5080   4.5080   4.9055   4.9056

     occupation numbers 
     1.0000   1.0000   1.0000   1.0000   1.0000   1.0000   1.0000   1.0000
     1.0000   1.0000   1.0000   1.0000   1.0000   1.0000   1.0000   1.0000
     1.0000   1.0000   1.0000   1.0000   1.0000   1.0000   1.0000   1.0000
     1.0000   1.0000   1.0000   1.0000   1.0000   1.0000   1.0000   1.0000
     1.0000   1.0000   1.0000   1.0000

          k = 0.3333-0.0000 0.0000 (  4224 PWs)   bands (ev):

   -11.1592 -10.8297 -10.7875 -10.7874   0.4363   0.4611   0.5626   0.6194
     0.8396   0.8850   0.8851   1.0225   1.1386   1.1723   1.2347   1.2348
     1.3275   1.3577   1.4359   1.4384   1.5771   1.6828   1.6829   1.7410
     1.9125   2.5338   2.5339   2.6534   3.5688   3.6463   4.0260   4.0261
     4.4526   4.4534   5.1929   5.3402

     occupation numbers 
     1.0000   1.0000   1.0000   1.0000   1.0000   1.0000   1.0000   1.0000
     1.0000   1.0000   1.0000   1.0000   1.0000   1.0000   1.0000   1.0000
     1.0000   1.0000   1.0000   1.0000   1.0000   1.0000   1.0000   1.0000
     1.0000   1.0000   1.0000   1.0000   1.0000   1.0000   1.0000   1.0000
     1.0000   1.0000   1.0000   1.0000

          k = 0.3333-0.0000 0.0956 (  4246 PWs)   bands (ev):

   -11.1373 -10.8519 -10.7866 -10.7865   0.4195   0.4655   0.5447   0.6524
     0.8100   0.8100   0.8162   0.9978   1.0084   1.0504   1.2549   1.2549
     1.3505   1.3698   1.4341   1.4712   1.5696   1.6499   1.7179   1.7179
     2.2537   2.4778   2.4778   2.7950   3.6023   3.6724   4.1564   4.1564
     4.3324   4.4696   5.1352   5.2695

     occupation numbers 
     1.0000   1.0000   1.0000   1.0000   1.0000   1.0000   1.0000   1.0000
     1.0000   1.0000   1.0000   1.0000   1.0000   1.0000   1.0000   1.0000
     1.0000   1.0000   1.0000   1.0000   1.0000   1.0000   1.0000   1.0000
     1.0000   1.0000   1.0000   1.0000   1.0000   1.0000   1.0000   1.0000
     1.0000   1.0000   1.0000   1.0000

          k = 0.3333-0.0000 0.1912 (  4268 PWs)   bands (ev):

   -11.0775 -10.9126 -10.7848 -10.7847   0.3638   0.4561   0.5526   0.6883
     0.6883   0.7084   0.7860   0.8711   0.8742   0.9346   1.2744   1.2744
     1.3883   1.4105   1.4227   1.4983   1.5511   1.5740   1.7871   1.7871
     2.3803   2.3804   2.7471   3.1442   3.4376   3.9856   4.0111   4.4011
     4.4011   4.5812   4.9030   5.0799

     occupation numbers 
     1.0000   1.0000   1.0000   1.0000   1.0000   1.0000   1.0000   1.0000
     1.0000   1.0000   1.0000   1.0000   1.0000   1.0000   1.0000   1.0000
     1.0000   1.0000   1.0000   1.0000   1.0000   1.0000   1.0000   1.0000
     1.0000   1.0000   1.0000   1.0000   1.0000   1.0000   1.0000   1.0000
     1.0000   1.0000   1.0000   1.0000

          k = 0.3333-0.0000-0.2868 (  4260 PWs)   bands (ev):

   -10.9953 -10.9952 -10.7839 -10.7838   0.3680   0.3681   0.6356   0.6356
     0.6925   0.6925   0.7637   0.7638   0.8665   0.8666   1.2796   1.2796
     1.4065   1.4066   1.4857   1.4858   1.5310   1.5310   1.8225   1.8225
     2.3351   2.3351   3.1502   3.1502   3.5822   3.5823   4.4440   4.4440
     4.5186   4.5187   4.8360   4.8361

     occupation numbers 
     1.0000   1.0000   1.0000   1.0000   1.0000   1.0000   1.0000   1.0000
     1.0000   1.0000   1.0000   1.0000   1.0000   1.0000   1.0000   1.0000
     1.0000   1.0000   1.0000   1.0000   1.0000   1.0000   1.0000   1.0000
     1.0000   1.0000   1.0000   1.0000   1.0000   1.0000   1.0000   1.0000
     1.0000   1.0000   1.0000   1.0000

          k =-0.5000-0.2887 0.0000 (  4276 PWs)   bands (ev):

   -10.9124 -10.9123 -10.7624 -10.7624   0.4130   0.4130   0.6060   0.6060
     0.7289   0.7289   0.8549   0.8549   1.2066   1.2066   1.2716   1.2716
     1.4640   1.4640   1.5754   1.5754   1.6055   1.6055   1.6859   1.6859
     2.0644   2.0644   2.7593   2.7593   3.2212   3.2213   4.0913   4.0913
     4.4935   4.4935   5.2536   5.2536

     occupation numbers 
     1.0000   1.0000   1.0000   1.0000   1.0000   1.0000   1.0000   1.0000
     1.0000   1.0000   1.0000   1.0000   1.0000   1.0000   1.0000   1.0000
     1.0000   1.0000   1.0000   1.0000   1.0000   1.0000   1.0000   1.0000
     1.0000   1.0000   1.0000   1.0000   1.0000   1.0000   1.0000   1.0000
     1.0000   1.0000   1.0000   1.0000

          k =-0.5000-0.2887 0.0956 (  4288 PWs)   bands (ev):

   -10.9016 -10.9016 -10.7718 -10.7717   0.3850   0.3850   0.5395   0.5395
     0.7550   0.7550   0.8754   0.8754   1.1674   1.1674   1.2251   1.2251
     1.4898   1.4898   1.5760   1.5761   1.6000   1.6001   1.6835   1.6835
     2.0809   2.0809   2.6653   2.6653   3.4343   3.4343   4.1764   4.1764
     4.5576   4.5576   5.1793   5.1793

     occupation numbers 
     1.0000   1.0000   1.0000   1.0000   1.0000   1.0000   1.0000   1.0000
     1.0000   1.0000   1.0000   1.0000   1.0000   1.0000   1.0000   1.0000
     1.0000   1.0000   1.0000   1.0000   1.0000   1.0000   1.0000   1.0000
     1.0000   1.0000   1.0000   1.0000   1.0000   1.0000   1.0000   1.0000
     1.0000   1.0000   1.0000   1.0000

          k =-0.5000-0.2887 0.1912 (  4244 PWs)   bands (ev):

   -10.8728 -10.8728 -10.7978 -10.7977   0.3378   0.3378   0.4145   0.4145
     0.8300   0.8300   0.9287   0.9287   1.0663   1.0664   1.1134   1.1134
     1.5670   1.5670   1.5785   1.5786   1.5905   1.5905   1.6711   1.6711
     2.1470   2.1470   2.4689   2.4689   3.9068   3.9068   4.4006   4.4006
     4.5859   4.5859   4.9757   4.9757

     occupation numbers 
     1.0000   1.0000   1.0000   1.0000   1.0000   1.0000   1.0000   1.0000
     1.0000   1.0000   1.0000   1.0000   1.0000   1.0000   1.0000   1.0000
     1.0000   1.0000   1.0000   1.0000   1.0000   1.0000   1.0000   1.0000
     1.0000   1.0000   1.0000   1.0000   1.0000   1.0000   1.0000   1.0000
     1.0000   1.0000   1.0000   1.0000

          k =-0.5000-0.2887-0.2868 (  4200 PWs)   bands (ev):

   -10.8347 -10.8346 -10.8346 -10.8344   0.3363   0.3363   0.3363   0.3363
     0.9417   0.9417   0.9418   0.9418   1.0081   1.0081   1.0081   1.0081
     1.5833   1.5833   1.5834   1.5834   1.6354   1.6354   1.6354   1.6355
     2.2797   2.2797   2.2797   2.2797   4.3614   4.3614   4.3614   4.3615
     4.6929   4.6929   4.6930   4.6930

     occupation numbers 
     1.0000   1.0000   1.0000   1.0000   1.0000   1.0000   1.0000   1.0000
     1.0000   1.0000   1.0000   1.0000   1.0000   1.0000   1.0000   1.0000
     1.0000   1.0000   1.0000   1.0000   1.0000   1.0000   1.0000   1.0000
     1.0000   1.0000   1.0000   1.0000   1.0000   1.0000   1.0000   1.0000
     1.0000   1.0000   1.0000   1.0000

          k =-0.5000-0.1925 0.0000 (  4276 PWs)   bands (ev):

   -10.9143 -10.9143 -10.7615 -10.7615   0.4233   0.4233   0.6430   0.6430
[...]
     1.4555   1.4627   1.5067   1.5345   1.5358   1.5582   1.5792   1.6418
     2.3059   2.6482   2.6623   3.8538   4.1620   4.4708   4.6544   5.0280
     5.1509   5.3116   5.5011   5.6515

     occupation numbers 
     1.0000   1.0000   1.0000   1.0000   1.0000   1.0000   1.0000   1.0000
     1.0000   1.0000   1.0000   1.0000   1.0000   1.0000   1.0000   1.0000
     1.0000   1.0000   1.0000   1.0000   1.0000   1.0000   1.0000   1.0000
     1.0000   1.0000   1.0000   1.0000   1.0000   1.0000   1.0000   1.0000
     1.0000   1.0000   1.0000   1.0000

          k = 0.0000 0.1925-0.0956 (  4243 PWs)   bands (ev):

   -11.3360 -11.0645 -10.9558 -10.8203   0.3335   0.4079   0.5239   0.5346
     0.6589   0.6680   0.7372   0.8127   0.8511   0.8992   1.0197   1.0597
     1.3912   1.3990   1.4362   1.5021   1.5596   1.5753   1.5825   1.6631
     2.0902   2.3053   2.9442   3.6947   4.3062   4.4613   4.6147   4.9683
     4.9944   5.3492   5.3894   5.6657

     occupation numbers 
     1.0000   1.0000   1.0000   1.0000   1.0000   1.0000   1.0000   1.0000
     1.0000   1.0000   1.0000   1.0000   1.0000   1.0000   1.0000   1.0000
     1.0000   1.0000   1.0000   1.0000   1.0000   1.0000   1.0000   1.0000
     1.0000   1.0000   1.0000   1.0000   1.0000   1.0000   1.0000   1.0000
     1.0000   1.0000   1.0000   1.0000

          k = 0.0000 0.1925-0.1912 (  4237 PWs)   bands (ev):

   -11.2579 -11.0384 -11.0127 -10.8716   0.3041   0.3450   0.4213   0.4263
     0.6412   0.6939   0.7511   0.7975   0.8044   0.8649   0.9296   0.9828
     1.4344   1.4384   1.4638   1.5152   1.5350   1.5394   1.5564   1.5790
     2.6229   2.7148   3.0421   3.8586   3.9874   4.6416   4.6561   4.7792
     5.1386   5.1512   5.1665   5.5257

     occupation numbers 
     1.0000   1.0000   1.0000   1.0000   1.0000   1.0000   1.0000   1.0000
     1.0000   1.0000   1.0000   1.0000   1.0000   1.0000   1.0000   1.0000
     1.0000   1.0000   1.0000   1.0000   1.0000   1.0000   1.0000   1.0000
     1.0000   1.0000   1.0000   1.0000   1.0000   1.0000   1.0000   1.0000
     1.0000   1.0000   1.0000   1.0000

          k =-0.1667 0.0962-0.0956 (  4250 PWs)   bands (ev):

   -11.3360 -10.9558 -10.9069 -10.7697   0.4080   0.4514   0.5239   0.6220
     0.6587   0.6681   0.7620   0.8128   0.8510   0.9774   1.0768   1.1579
     1.3912   1.4006   1.4363   1.4953   1.5596   1.5826   1.6404   1.7928
     2.0902   2.2384   2.7776   3.4505   3.7538   4.3065   4.6150   4.6185
     4.8529   4.9939   5.3895   5.6653

     occupation numbers 
     1.0000   1.0000   1.0000   1.0000   1.0000   1.0000   1.0000   1.0000
     1.0000   1.0000   1.0000   1.0000   1.0000   1.0000   1.0000   1.0000
     1.0000   1.0000   1.0000   1.0000   1.0000   1.0000   1.0000   1.0000
     1.0000   1.0000   1.0000   1.0000   1.0000   1.0000   1.0000   1.0000
     1.0000   1.0000   1.0000   1.0000

          k =-0.1667 0.0962-0.1912 (  4248 PWs)   bands (ev):

   -11.2579 -11.0384 -10.8766 -10.7973   0.3451   0.4213   0.4311   0.5178
     0.6414   0.6937   0.7512   0.7648   0.8042   0.9417   1.0257   1.0889
     1.4344   1.4460   1.4638   1.5204   1.5350   1.5394   1.6509   1.7306
     2.3372   2.6770   2.7148   3.7764   3.9875   4.0738   4.5286   4.6419
     4.7119   5.1382   5.1515   5.5253

     occupation numbers 
     1.0000   1.0000   1.0000   1.0000   1.0000   1.0000   1.0000   1.0000
     1.0000   1.0000   1.0000   1.0000   1.0000   1.0000   1.0000   1.0000
     1.0000   1.0000   1.0000   1.0000   1.0000   1.0000   1.0000   1.0000
     1.0000   1.0000   1.0000   1.0000   1.0000   1.0000   1.0000   1.0000
     1.0000   1.0000   1.0000   1.0000

          k =-0.1667 0.1925-0.0956 (  4248 PWs)   bands (ev):

   -11.2542 -11.0113 -10.9109 -10.7987   0.4012   0.4522   0.5410   0.5467
     0.6249   0.7313   0.7487   0.8911   0.9031   0.9140   1.0541   1.0937
     1.3518   1.3718   1.4448   1.4905   1.5608   1.5966   1.6043   1.7312
     2.1454   2.3407   3.0895   3.4910   3.9475   4.0203   4.2044   4.8192
     4.9126   5.0219   5.2844   5.5191

     occupation numbers 
     1.0000   1.0000   1.0000   1.0000   1.0000   1.0000   1.0000   1.0000
     1.0000   1.0000   1.0000   1.0000   1.0000   1.0000   1.0000   1.0000
     1.0000   1.0000   1.0000   1.0000   1.0000   1.0000   1.0000   1.0000
     1.0000   1.0000   1.0000   1.0000   1.0000   1.0000   1.0000   1.0000
     1.0000   1.0000   1.0000   1.0000

          k =-0.1667 0.1925-0.1912 (  4255 PWs)   bands (ev):

   -11.1831 -10.9849 -10.9658 -10.8430   0.3444   0.4018   0.4391   0.4740
     0.6618   0.7346   0.7810   0.8026   0.8401   0.8617   0.9626   0.9934
     1.4128   1.4221   1.4712   1.5223   1.5365   1.5484   1.5905   1.6414
     2.6051   2.7484   3.0343   3.7696   3.8663   4.1908   4.3095   4.7581
     4.8292   4.9179   5.0264   5.3616

     occupation numbers 
     1.0000   1.0000   1.0000   1.0000   1.0000   1.0000   1.0000   1.0000
     1.0000   1.0000   1.0000   1.0000   1.0000   1.0000   1.0000   1.0000
     1.0000   1.0000   1.0000   1.0000   1.0000   1.0000   1.0000   1.0000
     1.0000   1.0000   1.0000   1.0000   1.0000   1.0000   1.0000   1.0000
     1.0000   1.0000   1.0000   1.0000

          k =-0.3333 0.1925-0.0956 (  4265 PWs)   bands (ev):

   -11.0646 -10.9070 -10.8203 -10.7697   0.3337   0.4515   0.5346   0.6220
     0.7370   0.7619   0.8993   0.9775   1.0198   1.0595   1.0769   1.1578
     1.3990   1.4006   1.4953   1.5021   1.5754   1.6404   1.6631   1.7929
     2.2386   2.3054   2.7777   2.9444   3.4506   3.6948   3.7535   4.4609
     4.6185   4.8527   4.9684   5.3488

     occupation numbers 
     1.0000   1.0000   1.0000   1.0000   1.0000   1.0000   1.0000   1.0000
     1.0000   1.0000   1.0000   1.0000   1.0000   1.0000   1.0000   1.0000
     1.0000   1.0000   1.0000   1.0000   1.0000   1.0000   1.0000   1.0000
     1.0000   1.0000   1.0000   1.0000   1.0000   1.0000   1.0000   1.0000
     1.0000   1.0000   1.0000   1.0000

          k =-0.3333 0.1925-0.1912 (  4257 PWs)   bands (ev):

   -11.0127 -10.8767 -10.8716 -10.7974   0.3042   0.4264   0.4312   0.5178
     0.7647   0.7972   0.8650   0.9297   0.9417   0.9826   1.0257   1.0889
     1.4384   1.4460   1.5153   1.5205   1.5564   1.5791   1.6509   1.7307
     2.3373   2.6230   2.6771   3.0423   3.7764   3.8588   4.0736   4.5285
     4.6557   4.7117   4.7793   5.1661

     occupation numbers 
     1.0000   1.0000   1.0000   1.0000   1.0000   1.0000   1.0000   1.0000
     1.0000   1.0000   1.0000   1.0000   1.0000   1.0000   1.0000   1.0000
     1.0000   1.0000   1.0000   1.0000   1.0000   1.0000   1.0000   1.0000
     1.0000   1.0000   1.0000   1.0000   1.0000   1.0000   1.0000   1.0000
     1.0000   1.0000   1.0000   1.0000

          k =-0.3333-0.0962-0.0956 (  4263 PWs)   bands (ev):

   -11.1181 -10.8432 -10.8355 -10.7653   0.3697   0.4688   0.5449   0.6969
     0.7336   0.8292   0.8376   1.0026   1.0234   1.0276   1.1200   1.2453
     1.3646   1.3810   1.4602   1.4788   1.5710   1.6491   1.6893   1.7793
     2.2672   2.2856   2.6577   3.0619   3.2724   3.8106   3.8482   4.3745
     4.4798   4.5352   5.0844   5.3323

     occupation numbers 
     1.0000   1.0000   1.0000   1.0000   1.0000   1.0000   1.0000   1.0000
     1.0000   1.0000   1.0000   1.0000   1.0000   1.0000   1.0000   1.0000
     1.0000   1.0000   1.0000   1.0000   1.0000   1.0000   1.0000   1.0000
     1.0000   1.0000   1.0000   1.0000   1.0000   1.0000   1.0000   1.0000
     1.0000   1.0000   1.0000   1.0000

          k =-0.3333-0.0962-0.1912 (  4263 PWs)   bands (ev):

   -11.0602 -10.9015 -10.8190 -10.7784   0.3314   0.4438   0.5164   0.6232
     0.7206   0.7506   0.8091   0.8913   0.9051   0.9474   1.1417   1.2111
     1.4165   1.4250   1.4743   1.5014   1.5518   1.5723   1.7269   1.8006
     2.2897   2.5273   2.7178   3.2931   3.3597   3.9430   4.1005   4.2757
     4.5640   4.6401   4.8560   5.1514

     occupation numbers 
     1.0000   1.0000   1.0000   1.0000   1.0000   1.0000   1.0000   1.0000
     1.0000   1.0000   1.0000   1.0000   1.0000   1.0000   1.0000   1.0000
     1.0000   1.0000   1.0000   1.0000   1.0000   1.0000   1.0000   1.0000
     1.0000   1.0000   1.0000   1.0000   1.0000   1.0000   1.0000   1.0000
     1.0000   1.0000   1.0000   1.0000

          k = 0.5000-0.1925-0.0956 (  4268 PWs)   bands (ev):

   -10.9034 -10.9034 -10.7711 -10.7710   0.4015   0.4015   0.5792   0.5792
     0.7388   0.7388   0.9246   0.9246   1.1555   1.1555   1.1700   1.1701
     1.4551   1.4551   1.5456   1.5456   1.6258   1.6258   1.7288   1.7289
     2.1304   2.1304   2.6894   2.6894   3.4386   3.4386   4.0531   4.0531
     4.5707   4.5708   5.0728   5.0728

     occupation numbers 
     1.0000   1.0000   1.0000   1.0000   1.0000   1.0000   1.0000   1.0000
     1.0000   1.0000   1.0000   1.0000   1.0000   1.0000   1.0000   1.0000
     1.0000   1.0000   1.0000   1.0000   1.0000   1.0000   1.0000   1.0000
     1.0000   1.0000   1.0000   1.0000   1.0000   1.0000   1.0000   1.0000
     1.0000   1.0000   1.0000   1.0000

          k = 0.5000-0.1925-0.1912 (  4252 PWs)   bands (ev):

   -10.8741 -10.8741 -10.7976 -10.7976   0.3624   0.3624   0.4521   0.4521
     0.7954   0.7954   0.9677   0.9677   1.0346   1.0346   1.1045   1.1045
     1.5122   1.5122   1.5494   1.5495   1.6312   1.6312   1.6944   1.6944
     2.2020   2.2020   2.5329   2.5330   3.8767   3.8767   4.2930   4.2930
     4.5823   4.5823   4.8677   4.8677

     occupation numbers 
     1.0000   1.0000   1.0000   1.0000   1.0000   1.0000   1.0000   1.0000
     1.0000   1.0000   1.0000   1.0000   1.0000   1.0000   1.0000   1.0000
     1.0000   1.0000   1.0000   1.0000   1.0000   1.0000   1.0000   1.0000
     1.0000   1.0000   1.0000   1.0000   1.0000   1.0000   1.0000   1.0000
     1.0000   1.0000   1.0000   1.0000

          k = 0.5000-0.0962-0.0956 (  4272 PWs)   bands (ev):

   -10.9070 -10.9069 -10.7697 -10.7697   0.4515   0.4515   0.6220   0.6220
     0.7620   0.7620   0.9775   0.9775   1.0768   1.0768   1.1578   1.1578
     1.4005   1.4005   1.4953   1.4953   1.6405   1.6405   1.7929   1.7929
     2.2386   2.2386   2.7778   2.7778   3.4504   3.4504   3.7535   3.7535
     4.6184   4.6184   4.8526   4.8526

     occupation numbers 
     1.0000   1.0000   1.0000   1.0000   1.0000   1.0000   1.0000   1.0000
     1.0000   1.0000   1.0000   1.0000   1.0000   1.0000   1.0000   1.0000
     1.0000   1.0000   1.0000   1.0000   1.0000   1.0000   1.0000   1.0000
     1.0000   1.0000   1.0000   1.0000   1.0000   1.0000   1.0000   1.0000
     1.0000   1.0000   1.0000   1.0000

          k = 0.5000-0.0962-0.1912 (  4268 PWs)   bands (ev):

   -10.8767 -10.8766 -10.7974 -10.7973   0.4312   0.4312   0.5178   0.5179
     0.7647   0.7647   0.9417   0.9418   1.0256   1.0256   1.0889   1.0889
     1.4460   1.4460   1.5205   1.5205   1.6510   1.6510   1.7307   1.7307
     2.3373   2.3373   2.6772   2.6772   3.7762   3.7762   4.0736   4.0737
     4.5284   4.5285   4.7117   4.7118

     occupation numbers 
     1.0000   1.0000   1.0000   1.0000   1.0000   1.0000   1.0000   1.0000
     1.0000   1.0000   1.0000   1.0000   1.0000   1.0000   1.0000   1.0000
     1.0000   1.0000   1.0000   1.0000   1.0000   1.0000   1.0000   1.0000
     1.0000   1.0000   1.0000   1.0000   1.0000   1.0000   1.0000   1.0000
     1.0000   1.0000   1.0000   1.0000

     highest occupied level (ev):     5.8563

!    total energy              =    -723.24897408 Ry
     estimated scf accuracy    <          6.7E-09 Ry

     The total energy is the sum of the following terms:
     one-electron contribution =    -325.22666441 Ry
     hartree contribution      =     242.12170464 Ry
     xc contribution           =    -218.75931309 Ry
     ewald contribution        =    -421.38470122 Ry

     convergence has been achieved in  30 iterations

     Forces acting on atoms (cartesian axes, Ry/au):

     atom    1 type  1   force =     0.00000000    0.00000579    0.00640156
     atom    2 type  2   force =     0.00000000   -0.00000257   -0.00641344
     atom    3 type  1   force =     0.00000000   -0.00003416    0.00642208
     atom    4 type  2   force =     0.00000000    0.00000206   -0.00641536
     atom    5 type  1   force =     0.00000000    0.00002041    0.00640140
     atom    6 type  2   force =     0.00000000   -0.00000398   -0.00641363
     atom    7 type  1   force =     0.00000000    0.00001052    0.00643170
     atom    8 type  2   force =     0.00000000    0.00000193   -0.00641431
     The non-local contrib.  to forces
     atom    1 type  1   force =     0.00000000   -0.00000790   -0.10153860
     atom    2 type  2   force =     0.00000000    0.00024776   -0.09065426
     atom    3 type  1   force =     0.00000000   -0.00000143   -0.10153364
     atom    4 type  2   force =     0.00000000   -0.00023567   -0.09064983
     atom    5 type  1   force =     0.00000000   -0.00000280   -0.10154022
     atom    6 type  2   force =     0.00000000    0.00023573   -0.09065724
     atom    7 type  1   force =     0.00000000    0.00001124   -0.10152913
     atom    8 type  2   force =     0.00000000   -0.00024561   -0.09064838
     The ionic contribution  to forces
     atom    1 type  1   force =    -0.00000000   -0.00000000   -0.87604494
     atom    2 type  2   force =     0.00000000    0.00000000    0.87604494
     atom    3 type  1   force =     0.00000000    0.00000000   -0.87604494
     atom    4 type  2   force =     0.00000000   -0.00000000    0.87604494
     atom    5 type  1   force =    -0.00000000   -0.00000000   -0.87604494
     atom    6 type  2   force =    -0.00000000    0.00000000    0.87604494
     atom    7 type  1   force =    -0.00000000    0.00000000   -0.87604494
     atom    8 type  2   force =     0.00000000   -0.00000000    0.87604494
     The local contribution  to forces
     atom    1 type  1   force =     0.00000000    0.00003120    0.97859686
     atom    2 type  2   force =     0.00000000   -0.00023994   -0.79257261
     atom    3 type  1   force =     0.00000000    0.00000286    0.97856458
     atom    4 type  2   force =     0.00000000    0.00024333   -0.79256051
     atom    5 type  1   force =    -0.00000000    0.00001306    0.97859185
     atom    6 type  2   force =    -0.00000000   -0.00024269   -0.79257451
     atom    7 type  1   force =     0.00000000   -0.00004780    0.97855365
     atom    8 type  2   force =    -0.00000000    0.00023193   -0.79256622
     The core correction contribution to forces
     atom    1 type  1   force =    -0.00000000   -0.00000618    0.00543037
     atom    2 type  2   force =     0.00000000   -0.00000283    0.00075635
     atom    3 type  1   force =     0.00000000    0.00000541    0.00543173
     atom    4 type  2   force =    -0.00000000    0.00000267    0.00075630
     atom    5 type  1   force =    -0.00000000   -0.00000574    0.00543101
     atom    6 type  2   force =     0.00000000   -0.00000267    0.00075637
     atom    7 type  1   force =    -0.00000000    0.00000642    0.00543169
     atom    8 type  2   force =     0.00000000    0.00000277    0.00075627
     The Hubbard contrib.    to forces
     atom    1 type  1   force =     0.00000000    0.00000000    0.00000000
     atom    2 type  2   force =     0.00000000    0.00000000    0.00000000
     atom    3 type  1   force =     0.00000000    0.00000000    0.00000000
     atom    4 type  2   force =     0.00000000    0.00000000    0.00000000
     atom    5 type  1   force =     0.00000000    0.00000000    0.00000000
     atom    6 type  2   force =     0.00000000    0.00000000    0.00000000
     atom    7 type  1   force =     0.00000000    0.00000000    0.00000000
     atom    8 type  2   force =     0.00000000    0.00000000    0.00000000
     The SCF correction term to forces
     atom    1 type  1   force =    -0.00000000   -0.00001048   -0.00004707
     atom    2 type  2   force =     0.00000000   -0.00000671    0.00000720
     atom    3 type  1   force =     0.00000000   -0.00004014   -0.00000060
     atom    4 type  2   force =    -0.00000000   -0.00000742   -0.00001121
     atom    5 type  1   force =    -0.00000000    0.00001675   -0.00004124
     atom    6 type  2   force =     0.00000000    0.00000651    0.00001187
     atom    7 type  1   force =     0.00000000    0.00004151    0.00001549
     atom    8 type  2   force =    -0.00000000    0.00001370   -0.00000587

     Total force =     0.018142     Total SCF correction =     0.000093

     init_run     :      7.57s CPU      7.94s WALL (       1 calls)
     electrons    :    524.94s CPU    545.32s WALL (       1 calls)
     forces       :      1.65s CPU      1.66s WALL (       1 calls)

     Called by init_run:
     wfcinit      :      5.42s CPU      5.70s WALL (       1 calls)
     wfcinit:atom :      0.07s CPU      0.07s WALL (      40 calls)
     wfcinit:wfcr :      5.02s CPU      5.29s WALL (      40 calls)
     potinit      :      0.78s CPU      0.80s WALL (       1 calls)
     hinit0       :      1.18s CPU      1.19s WALL (       1 calls)

     Called by electrons:
     c_bands      :    464.33s CPU    481.81s WALL (      30 calls)
     sum_band     :     54.42s CPU     57.17s WALL (      30 calls)
     v_of_rho     :      2.08s CPU      2.19s WALL (      31 calls)
     v_h          :      0.13s CPU      0.14s WALL (      31 calls)
     v_xc         :      2.01s CPU      2.10s WALL (      32 calls)
     newd         :      3.74s CPU      3.79s WALL (      31 calls)
     mix_rho      :      0.37s CPU      0.40s WALL (      30 calls)

     Called by c_bands:
     init_us_2    :      3.34s CPU      3.41s WALL (    2480 calls)
     init_us_2:cp :      3.33s CPU      3.40s WALL (    2480 calls)
     cegterg      :    422.05s CPU    439.42s WALL (    1200 calls)

     Called by sum_band:
     sum_band:wei :      0.00s CPU      0.00s WALL (      30 calls)
     sum_band:loo :     47.37s CPU     49.91s WALL (      30 calls)
     sum_band:buf :      0.26s CPU      0.30s WALL (    1200 calls)
     sum_band:ini :      1.59s CPU      1.64s WALL (    1200 calls)
     sum_band:cal :      5.45s CPU      5.59s WALL (    1200 calls)
     sum_band:bec :      0.13s CPU      0.14s WALL (    1200 calls)
     addusdens    :      4.08s CPU      4.23s WALL (      30 calls)
                                        0.00s GPU  (      30 calls)
     addusd:skk   :      0.03s CPU      0.03s WALL (      60 calls)
                                        0.00s GPU  (      60 calls)

     Called by *egterg:
     cdiaghg      :     31.06s CPU     31.13s WALL (    7139 calls)
     cegterg:over :     20.33s CPU     20.79s WALL (    5939 calls)
     cegterg:upda :     13.04s CPU     13.07s WALL (    5939 calls)
     cegterg:last :     29.08s CPU     29.12s WALL (    3841 calls)
     h_psi        :    303.00s CPU    319.84s WALL (    7179 calls)
     s_psi        :     21.99s CPU     22.06s WALL (    7179 calls)
     g_psi        :      1.27s CPU      1.28s WALL (    5939 calls)

     Called by h_psi:
     h_psi:calbec :     20.36s CPU     21.14s WALL (    7179 calls)
     vloc_psi     :    259.23s CPU    275.20s WALL (    7179 calls)
     add_vuspsi   :     22.56s CPU     22.64s WALL (    7179 calls)

     General routines
     calbec       :     26.21s CPU     27.14s WALL (    8539 calls)
     fft          :      1.55s CPU      1.68s WALL (     412 calls)
     ffts         :      0.22s CPU      0.23s WALL (      61 calls)
     fftw         :    252.82s CPU    268.43s WALL (  344258 calls)
     interpolate  :      0.29s CPU      0.31s WALL (      31 calls)

     Parallel routines

     PWSCF        :   8m54.70s CPU   9m15.48s WALL


   This run was terminated on:  18:15:51  13Jul2025            

=------------------------------------------------------------------------------=
   JOB DONE.
=------------------------------------------------------------------------------=
Note: The following floating-point exceptions are signalling: IEEE_INVALID_FLAG
Note: The following floating-point exceptions are signalling: IEEE_INVALID_FLAG
