Authorization required, but no authorization protocol specified

Authorization required, but no authorization protocol specified

Authorization required, but no authorization protocol specified

Authorization required, but no authorization protocol specified

Authorization required, but no authorization protocol specified

Authorization required, but no authorization protocol specified

Authorization required, but no authorization protocol specified

Authorization required, but no authorization protocol specified

Authorization required, but no authorization protocol specified

Authorization required, but no authorization protocol specified


     Program PWSCF v.7.2 starts on 13Jul2025 at 23:43:44 

     This program is part of the open-source Quantum ESPRESSO suite
     for quantum simulation of materials; please cite
         "P. Giannozzi et al., J. Phys.:Condens. Matter 21 395502 (2009);
         "P. Giannozzi et al., J. Phys.:Condens. Matter 29 465901 (2017);
         "P. Giannozzi et al., J. Chem. Phys. 152 154105 (2020);
          URL http://www.quantum-espresso.org", 
     in publications or presentations arising from this work. More details at
     http://www.quantum-espresso.org/quote

     Parallel version (MPI), running on     8 processors

     MPI processes distributed on     1 nodes
     56801 MiB available memory on the printing compute node when the environment starts

     Reading input from /home/jvc/QEspresso7.2/ZnO_database/scripts/cell121.in/ZnO-3.53-1.78-121.in
Warning: card &CELL ignored
Warning: card / ignored
Warning: card &FCP ignored
Warning: card / ignored
Warning: card &RISM ignored
Warning: card / ignored

     Current dimensions of program PWSCF are:
     Max number of different atomic species (ntypx) = 10
     Max number of k-points (npk) =  40000
     Max angular momentum in pseudopotentials (lmaxx) =  4
     file Zn.upf: wavefunction(s)  3D renormalized
     Found identity + (  0.0000 -0.5000  0.0000) symmetry
     This is a supercell, fractional translations are disabled
     Message from routine setup:
     using ibrav=0 with symmetry is DISCOURAGED, use correct ibrav instead

     K-points division:     npool     =       2
     R & G space division:  proc/nbgrp/npool/nimage =       4
     Subspace diagonalization in iterative solution of the eigenvalue problem:
     a serial algorithm will be used


     Parallelization info
     --------------------
     sticks:   dense  smooth     PW     G-vecs:    dense   smooth      PW
     Min         616     306     93                30896    10903    1857
     Max         617     308     94                30899    10904    1862
     Sum        2467    1227    373               123593    43615    7433

     Using Slab Decomposition



     bravais-lattice index     =            0
     lattice parameter (alat)  =       6.6732  a.u.
     unit-cell volume          =     914.0045 (a.u.)^3
     number of atoms/cell      =            8
     number of atomic types    =            2
     number of electrons       =        72.00
     number of Kohn-Sham states=           36
     kinetic-energy cutoff     =      50.0000  Ry
     charge density cutoff     =     400.0000  Ry
     scf convergence threshold =      1.0E-08
     mixing beta               =       0.3000
     number of iterations used =            8  plain     mixing
     Exchange-correlation= PBE
                           (   1   4   3   4   0   0   0)

     celldm(1)=   6.673162  celldm(2)=   0.000000  celldm(3)=   0.000000
     celldm(4)=   0.000000  celldm(5)=   0.000000  celldm(6)=   0.000000

     crystal axes: (cart. coord. in units of alat)
               a(1) = (   1.000000   0.000000   0.000000 )  
               a(2) = (  -1.000000   1.732051   0.000000 )  
               a(3) = (   0.000000   0.000000   1.775794 )  

     reciprocal axes: (cart. coord. in units 2 pi/alat)
               b(1) = (  1.000000  0.577350 -0.000000 )  
               b(2) = (  0.000000  0.577350  0.000000 )  
               b(3) = (  0.000000 -0.000000  0.563128 )  


     PseudoPot. # 1 for Zn read from file:
     /home/jvc/QEspresso7.2/ZnO_database/pseudos/Zn.upf
     MD5 check sum: 7f56cabf9682ed8c977c2f7d0c5985c5
     Pseudo is Ultrasoft + core correction, Zval = 12.0
     Generated using &quot;atomic&quot; code by A. Dal Corso  v.6.2.2
     Using radial grid of 1201 points,  6 beta functions with: 
                l(1) =   0
                l(2) =   0
                l(3) =   1
                l(4) =   1
                l(5) =   2
                l(6) =   2
     Q(r) pseudized with 0 coefficients 


     PseudoPot. # 2 for O  read from file:
     /home/jvc/QEspresso7.2/ZnO_database/pseudos/O.upf
     MD5 check sum: 91400c9766925bcf19f520983a725ff0
     Pseudo is Ultrasoft + core correction, Zval =  6.0
     Generated using &quot;atomic&quot; code by A. Dal Corso  v.6.3MaX
     Using radial grid of 1095 points,  4 beta functions with: 
                l(1) =   0
                l(2) =   0
                l(3) =   1
                l(4) =   1
     Q(r) pseudized with 0 coefficients 


     atomic species   valence    mass     pseudopotential
        Zn            12.00    65.38000     Zn( 1.00)
        O              6.00    15.99900     O ( 1.00)

      2 Sym. Ops. (no inversion) found


                                    s                        frac. trans.

      isym =  1     identity                                     

 cryst.   s( 1) = (     1          0          0      )
                  (     0          1          0      )
                  (     0          0          1      )

 cart.    s( 1) = (  1.0000000  0.0000000  0.0000000 )
                  (  0.0000000  1.0000000  0.0000000 )
                  (  0.0000000  0.0000000  1.0000000 )


      isym =  2     inv. 180 deg rotation - cart. axis [1,0,0]   

 cryst.   s( 2) = (    -1          0          0      )
                  (     2          1          0      )
                  (     0          0          1      )

 cart.    s( 2) = ( -1.0000000  0.0000000  0.0000000 )
                  (  0.0000000  1.0000000  0.0000000 )
                  (  0.0000000  0.0000000  1.0000000 )


   Cartesian axes

     site n.     atom                  positions (alat units)
         1           Zn  tau(   1) = (   0.0000000   0.0000000   0.0000000  )
         2           O   tau(   2) = (   0.0000000   0.5773503   0.2562391  )
         3           Zn  tau(   3) = (   0.0000000   0.5773503   0.8878971  )
         4           O   tau(   4) = (   0.0000000   0.0000000   1.1441362  )
         5           Zn  tau(   5) = (  -0.5000000   0.8660254   0.0000000  )
         6           O   tau(   6) = (  -0.5000000   1.4433757   0.2562391  )
         7           Zn  tau(   7) = (  -0.5000000   1.4433757   0.8878971  )
         8           O   tau(   8) = (  -0.5000000   0.8660254   1.1441362  )

   Crystallographic axes

     site n.     atom                  positions (cryst. coord.)
         1           Zn  tau(   1) = (  0.0000000  0.0000000  0.0000000  )
         2           O   tau(   2) = (  0.3333333  0.3333333  0.1442955  )
         3           Zn  tau(   3) = (  0.3333333  0.3333333  0.5000000  )
         4           O   tau(   4) = (  0.0000000  0.0000000  0.6442955  )
         5           Zn  tau(   5) = (  0.0000000  0.5000000  0.0000000  )
         6           O   tau(   6) = (  0.3333333  0.8333333  0.1442955  )
         7           Zn  tau(   7) = (  0.3333333  0.8333333  0.5000000  )
         8           O   tau(   8) = (  0.0000000  0.5000000  0.6442955  )

     number of k points=    80
                       cart. coord. in units 2pi/alat
        k(    1) = (   0.0000000   0.0000000   0.0000000), wk =   0.0092593
        k(    2) = (   0.0000000   0.0000000   0.0938547), wk =   0.0185185
        k(    3) = (   0.0000000   0.0000000   0.1877094), wk =   0.0185185
        k(    4) = (   0.0000000   0.0000000  -0.2815642), wk =   0.0092593
        k(    5) = (   0.0000000   0.0962250   0.0000000), wk =   0.0185185
        k(    6) = (   0.0000000   0.0962250   0.0938547), wk =   0.0185185
        k(    7) = (   0.0000000   0.0962250   0.1877094), wk =   0.0185185
        k(    8) = (   0.0000000   0.0962250  -0.2815642), wk =   0.0185185
        k(    9) = (   0.0000000   0.1924501   0.0000000), wk =   0.0185185
        k(   10) = (   0.0000000   0.1924501   0.0938547), wk =   0.0185185
        k(   11) = (   0.0000000   0.1924501   0.1877094), wk =   0.0185185
        k(   12) = (   0.0000000   0.1924501  -0.2815642), wk =   0.0185185
        k(   13) = (   0.0000000  -0.2886751   0.0000000), wk =   0.0092593
        k(   14) = (   0.0000000  -0.2886751   0.0938547), wk =   0.0185185
        k(   15) = (   0.0000000  -0.2886751   0.1877094), wk =   0.0185185
        k(   16) = (   0.0000000  -0.2886751  -0.2815642), wk =   0.0092593
        k(   17) = (   0.1666667   0.0962250   0.0000000), wk =   0.0370370
        k(   18) = (   0.1666667   0.0962250   0.0938547), wk =   0.0370370
        k(   19) = (   0.1666667   0.0962250   0.1877094), wk =   0.0370370
        k(   20) = (   0.1666667   0.0962250  -0.2815642), wk =   0.0370370
        k(   21) = (   0.1666667   0.1924501   0.0000000), wk =   0.0370370
        k(   22) = (   0.1666667   0.1924501   0.0938547), wk =   0.0370370
        k(   23) = (   0.1666667   0.1924501   0.1877094), wk =   0.0370370
        k(   24) = (   0.1666667   0.1924501  -0.2815642), wk =   0.0370370
        k(   25) = (   0.1666667   0.2886751   0.0000000), wk =   0.0185185
        k(   26) = (   0.1666667   0.2886751   0.0938547), wk =   0.0370370
        k(   27) = (   0.1666667   0.2886751   0.1877094), wk =   0.0370370
        k(   28) = (   0.1666667   0.2886751  -0.2815642), wk =   0.0185185
        k(   29) = (   0.1666667   0.0000000   0.0000000), wk =   0.0185185
        k(   30) = (   0.1666667   0.0000000   0.0938547), wk =   0.0370370
        k(   31) = (   0.1666667   0.0000000   0.1877094), wk =   0.0370370
        k(   32) = (   0.1666667   0.0000000  -0.2815642), wk =   0.0185185
        k(   33) = (   0.3333333   0.1924501   0.0000000), wk =   0.0370370
        k(   34) = (   0.3333333   0.1924501   0.0938547), wk =   0.0370370
        k(   35) = (   0.3333333   0.1924501   0.1877094), wk =   0.0370370
        k(   36) = (   0.3333333   0.1924501  -0.2815642), wk =   0.0370370
        k(   37) = (   0.3333333   0.2886751   0.0000000), wk =   0.0185185
        k(   38) = (   0.3333333   0.2886751   0.0938547), wk =   0.0370370
        k(   39) = (   0.3333333   0.2886751   0.1877094), wk =   0.0370370
        k(   40) = (   0.3333333   0.2886751  -0.2815642), wk =   0.0185185
        k(   41) = (   0.3333333  -0.0962250   0.0000000), wk =   0.0370370
        k(   42) = (   0.3333333  -0.0962250   0.0938547), wk =   0.0370370
        k(   43) = (   0.3333333  -0.0962250   0.1877094), wk =   0.0370370
        k(   44) = (   0.3333333  -0.0962250  -0.2815642), wk =   0.0370370
        k(   45) = (   0.3333333  -0.0000000   0.0000000), wk =   0.0185185
        k(   46) = (   0.3333333  -0.0000000   0.0938547), wk =   0.0370370
        k(   47) = (   0.3333333  -0.0000000   0.1877094), wk =   0.0370370
        k(   48) = (   0.3333333  -0.0000000  -0.2815642), wk =   0.0185185
        k(   49) = (  -0.5000000  -0.2886751   0.0000000), wk =   0.0092593
        k(   50) = (  -0.5000000  -0.2886751   0.0938547), wk =   0.0185185
        k(   51) = (  -0.5000000  -0.2886751   0.1877094), wk =   0.0185185
        k(   52) = (  -0.5000000  -0.2886751  -0.2815642), wk =   0.0092593
        k(   53) = (  -0.5000000  -0.1924501   0.0000000), wk =   0.0185185
        k(   54) = (  -0.5000000  -0.1924501   0.0938547), wk =   0.0185185
        k(   55) = (  -0.5000000  -0.1924501   0.1877094), wk =   0.0185185
        k(   56) = (  -0.5000000  -0.1924501  -0.2815642), wk =   0.0185185
        k(   57) = (  -0.5000000  -0.0962250   0.0000000), wk =   0.0185185
        k(   58) = (  -0.5000000  -0.0962250   0.0938547), wk =   0.0185185
        k(   59) = (  -0.5000000  -0.0962250   0.1877094), wk =   0.0185185
        k(   60) = (  -0.5000000  -0.0962250  -0.2815642), wk =   0.0185185
        k(   61) = (  -0.5000000  -0.5773503   0.0000000), wk =   0.0092593
        k(   62) = (  -0.5000000  -0.5773503   0.0938547), wk =   0.0185185
        k(   63) = (  -0.5000000  -0.5773503   0.1877094), wk =   0.0185185
        k(   64) = (  -0.5000000  -0.5773503  -0.2815642), wk =   0.0092593
        k(   65) = (   0.0000000   0.0962250  -0.0938547), wk =   0.0185185
        k(   66) = (   0.0000000   0.0962250  -0.1877094), wk =   0.0185185
        k(   67) = (   0.0000000   0.1924501  -0.0938547), wk =   0.0185185
        k(   68) = (   0.0000000   0.1924501  -0.1877094), wk =   0.0185185
        k(   69) = (  -0.1666667   0.0962250  -0.0938547), wk =   0.0370370
        k(   70) = (  -0.1666667   0.0962250  -0.1877094), wk =   0.0370370
        k(   71) = (  -0.1666667   0.1924501  -0.0938547), wk =   0.0370370
        k(   72) = (  -0.1666667   0.1924501  -0.1877094), wk =   0.0370370
        k(   73) = (  -0.3333333   0.1924501  -0.0938547), wk =   0.0370370
        k(   74) = (  -0.3333333   0.1924501  -0.1877094), wk =   0.0370370
        k(   75) = (  -0.3333333  -0.0962250  -0.0938547), wk =   0.0370370
        k(   76) = (  -0.3333333  -0.0962250  -0.1877094), wk =   0.0370370
        k(   77) = (   0.5000000  -0.1924501  -0.0938547), wk =   0.0185185
        k(   78) = (   0.5000000  -0.1924501  -0.1877094), wk =   0.0185185
        k(   79) = (   0.5000000  -0.0962250  -0.0938547), wk =   0.0185185
        k(   80) = (   0.5000000  -0.0962250  -0.1877094), wk =   0.0185185

                       cryst. coord.
        k(    1) = (   0.0000000   0.0000000   0.0000000), wk =   0.0092593
        k(    2) = (   0.0000000   0.0000000   0.1666667), wk =   0.0185185
        k(    3) = (   0.0000000   0.0000000   0.3333333), wk =   0.0185185
        k(    4) = (   0.0000000   0.0000000  -0.5000000), wk =   0.0092593
        k(    5) = (   0.0000000   0.1666667   0.0000000), wk =   0.0185185
        k(    6) = (   0.0000000   0.1666667   0.1666667), wk =   0.0185185
        k(    7) = (   0.0000000   0.1666667   0.3333333), wk =   0.0185185
        k(    8) = (   0.0000000   0.1666667  -0.5000000), wk =   0.0185185
        k(    9) = (   0.0000000   0.3333333   0.0000000), wk =   0.0185185
        k(   10) = (   0.0000000   0.3333333   0.1666667), wk =   0.0185185
        k(   11) = (   0.0000000   0.3333333   0.3333333), wk =   0.0185185
        k(   12) = (   0.0000000   0.3333333  -0.5000000), wk =   0.0185185
        k(   13) = (   0.0000000  -0.5000000   0.0000000), wk =   0.0092593
        k(   14) = (   0.0000000  -0.5000000   0.1666667), wk =   0.0185185
        k(   15) = (   0.0000000  -0.5000000   0.3333333), wk =   0.0185185
        k(   16) = (   0.0000000  -0.5000000  -0.5000000), wk =   0.0092593
        k(   17) = (   0.1666667   0.0000000   0.0000000), wk =   0.0370370
        k(   18) = (   0.1666667   0.0000000   0.1666667), wk =   0.0370370
        k(   19) = (   0.1666667   0.0000000   0.3333333), wk =   0.0370370
        k(   20) = (   0.1666667   0.0000000  -0.5000000), wk =   0.0370370
        k(   21) = (   0.1666667   0.1666667   0.0000000), wk =   0.0370370
        k(   22) = (   0.1666667   0.1666667   0.1666667), wk =   0.0370370
        k(   23) = (   0.1666667   0.1666667   0.3333333), wk =   0.0370370
        k(   24) = (   0.1666667   0.1666667  -0.5000000), wk =   0.0370370
        k(   25) = (   0.1666667   0.3333333   0.0000000), wk =   0.0185185
        k(   26) = (   0.1666667   0.3333333   0.1666667), wk =   0.0370370
        k(   27) = (   0.1666667   0.3333333   0.3333333), wk =   0.0370370
        k(   28) = (   0.1666667   0.3333333  -0.5000000), wk =   0.0185185
        k(   29) = (   0.1666667  -0.1666667   0.0000000), wk =   0.0185185
        k(   30) = (   0.1666667  -0.1666667   0.1666667), wk =   0.0370370
        k(   31) = (   0.1666667  -0.1666667   0.3333333), wk =   0.0370370
        k(   32) = (   0.1666667  -0.1666667  -0.5000000), wk =   0.0185185
        k(   33) = (   0.3333333   0.0000000   0.0000000), wk =   0.0370370
        k(   34) = (   0.3333333   0.0000000   0.1666667), wk =   0.0370370
        k(   35) = (   0.3333333   0.0000000   0.3333333), wk =   0.0370370
        k(   36) = (   0.3333333   0.0000000  -0.5000000), wk =   0.0370370
        k(   37) = (   0.3333333   0.1666667   0.0000000), wk =   0.0185185
        k(   38) = (   0.3333333   0.1666667   0.1666667), wk =   0.0370370
        k(   39) = (   0.3333333   0.1666667   0.3333333), wk =   0.0370370
        k(   40) = (   0.3333333   0.1666667  -0.5000000), wk =   0.0185185
        k(   41) = (   0.3333333  -0.5000000   0.0000000), wk =   0.0370370
        k(   42) = (   0.3333333  -0.5000000   0.1666667), wk =   0.0370370
        k(   43) = (   0.3333333  -0.5000000   0.3333333), wk =   0.0370370
        k(   44) = (   0.3333333  -0.5000000  -0.5000000), wk =   0.0370370
        k(   45) = (   0.3333333  -0.3333333   0.0000000), wk =   0.0185185
        k(   46) = (   0.3333333  -0.3333333   0.1666667), wk =   0.0370370
        k(   47) = (   0.3333333  -0.3333333   0.3333333), wk =   0.0370370
        k(   48) = (   0.3333333  -0.3333333  -0.5000000), wk =   0.0185185
        k(   49) = (  -0.5000000   0.0000000   0.0000000), wk =   0.0092593
        k(   50) = (  -0.5000000   0.0000000   0.1666667), wk =   0.0185185
        k(   51) = (  -0.5000000   0.0000000   0.3333333), wk =   0.0185185
        k(   52) = (  -0.5000000   0.0000000  -0.5000000), wk =   0.0092593
        k(   53) = (  -0.5000000   0.1666667   0.0000000), wk =   0.0185185
        k(   54) = (  -0.5000000   0.1666667   0.1666667), wk =   0.0185185
        k(   55) = (  -0.5000000   0.1666667   0.3333333), wk =   0.0185185
        k(   56) = (  -0.5000000   0.1666667  -0.5000000), wk =   0.0185185
        k(   57) = (  -0.5000000   0.3333333   0.0000000), wk =   0.0185185
        k(   58) = (  -0.5000000   0.3333333   0.1666667), wk =   0.0185185
        k(   59) = (  -0.5000000   0.3333333   0.3333333), wk =   0.0185185
        k(   60) = (  -0.5000000   0.3333333  -0.5000000), wk =   0.0185185
        k(   61) = (  -0.5000000  -0.5000000   0.0000000), wk =   0.0092593
        k(   62) = (  -0.5000000  -0.5000000   0.1666667), wk =   0.0185185
        k(   63) = (  -0.5000000  -0.5000000   0.3333333), wk =   0.0185185
        k(   64) = (  -0.5000000  -0.5000000  -0.5000000), wk =   0.0092593
        k(   65) = (   0.0000000   0.1666667  -0.1666667), wk =   0.0185185
        k(   66) = (   0.0000000   0.1666667  -0.3333333), wk =   0.0185185
        k(   67) = (   0.0000000   0.3333333  -0.1666667), wk =   0.0185185
        k(   68) = (   0.0000000   0.3333333  -0.3333333), wk =   0.0185185
        k(   69) = (  -0.1666667   0.3333333  -0.1666667), wk =   0.0370370
        k(   70) = (  -0.1666667   0.3333333  -0.3333333), wk =   0.0370370
        k(   71) = (  -0.1666667   0.5000000  -0.1666667), wk =   0.0370370
        k(   72) = (  -0.1666667   0.5000000  -0.3333333), wk =   0.0370370
        k(   73) = (  -0.3333333   0.6666667  -0.1666667), wk =   0.0370370
        k(   74) = (  -0.3333333   0.6666667  -0.3333333), wk =   0.0370370
        k(   75) = (  -0.3333333   0.1666667  -0.1666667), wk =   0.0370370
        k(   76) = (  -0.3333333   0.1666667  -0.3333333), wk =   0.0370370
        k(   77) = (   0.5000000  -0.8333333  -0.1666667), wk =   0.0185185
        k(   78) = (   0.5000000  -0.8333333  -0.3333333), wk =   0.0185185
        k(   79) = (   0.5000000  -0.6666667  -0.1666667), wk =   0.0185185
        k(   80) = (   0.5000000  -0.6666667  -0.3333333), wk =   0.0185185

     Dense  grid:   123593 G-vectors     FFT dimensions: (  45,  90,  75)

     Smooth grid:    43615 G-vectors     FFT dimensions: (  32,  64,  54)

     Dynamical RAM for                 wfc:       0.75 MB

     Dynamical RAM for     wfc (w. buffer):      30.72 MB

     Dynamical RAM for           str. fact:       0.94 MB

     Dynamical RAM for           local pot:       0.00 MB

     Dynamical RAM for          nlocal pot:       2.16 MB

     Dynamical RAM for                qrad:       3.21 MB

     Dynamical RAM for          rho,v,vnew:       3.18 MB

     Dynamical RAM for               rhoin:       1.06 MB

     Dynamical RAM for            rho*nmix:       7.54 MB

     Dynamical RAM for           G-vectors:       1.85 MB

     Dynamical RAM for          h,s,v(r/c):       0.24 MB

     Dynamical RAM for          <psi|beta>:       0.06 MB

     Dynamical RAM for                 psi:       1.50 MB

     Dynamical RAM for                hpsi:       1.50 MB

     Dynamical RAM for                spsi:       1.50 MB

     Dynamical RAM for      wfcinit/wfcrot:       2.23 MB

     Dynamical RAM for           addusdens:      45.03 MB

     Dynamical RAM for          addusforce:      46.46 MB

     Estimated static dynamical RAM per process >      47.47 MB

     Estimated max dynamical RAM per process >     101.47 MB

     Estimated total dynamical RAM >     781.60 MB

     Check: negative core charge=   -0.000003

     Initial potential from superposition of free atoms

     starting charge      71.9851, renormalised to      72.0000
     Starting wfcs are   52 randomized atomic wfcs

     total cpu time spent up to now is        6.8 secs

     Self-consistent Calculation

     iteration #  1     ecut=    50.00 Ry     beta= 0.30
     Davidson diagonalization with overlap

---- Real-time Memory Report at c_bands before calling an iterative solver
            97 MiB given to the printing process from OS
             0 MiB allocation reported by mallinfo(arena+hblkhd)
         56287 MiB available memory on the node where the printing process lives
------------------
     ethr =  1.00E-02,  avg # of iterations =  1.1

     total cpu time spent up to now is       14.9 secs

     total energy              =    -722.58177239 Ry
     estimated scf accuracy    <       1.79685486 Ry

     iteration #  2     ecut=    50.00 Ry     beta= 0.30
     Davidson diagonalization with overlap

---- Real-time Memory Report at c_bands before calling an iterative solver
           139 MiB given to the printing process from OS
             0 MiB allocation reported by mallinfo(arena+hblkhd)
         55997 MiB available memory on the node where the printing process lives
------------------
     ethr =  2.50E-03,  avg # of iterations =  2.0

     total cpu time spent up to now is       24.6 secs

     total energy              =    -722.82476012 Ry
     estimated scf accuracy    <       0.21862135 Ry

     iteration #  3     ecut=    50.00 Ry     beta= 0.30
     Davidson diagonalization with overlap

---- Real-time Memory Report at c_bands before calling an iterative solver
           141 MiB given to the printing process from OS
             0 MiB allocation reported by mallinfo(arena+hblkhd)
         56007 MiB available memory on the node where the printing process lives
------------------
     ethr =  3.04E-04,  avg # of iterations =  6.8

     total cpu time spent up to now is       40.2 secs

     total energy              =    -722.80981935 Ry
     estimated scf accuracy    <       0.50926202 Ry

     iteration #  4     ecut=    50.00 Ry     beta= 0.30
     Davidson diagonalization with overlap

---- Real-time Memory Report at c_bands before calling an iterative solver
           142 MiB given to the printing process from OS
             0 MiB allocation reported by mallinfo(arena+hblkhd)
         56029 MiB available memory on the node where the printing process lives
------------------
     ethr =  3.04E-04,  avg # of iterations =  7.6

     total cpu time spent up to now is       59.8 secs

     total energy              =    -723.18756467 Ry
     estimated scf accuracy    <       0.47829093 Ry

     iteration #  5     ecut=    50.00 Ry     beta= 0.30
     Davidson diagonalization with overlap

---- Real-time Memory Report at c_bands before calling an iterative solver
           142 MiB given to the printing process from OS
             0 MiB allocation reported by mallinfo(arena+hblkhd)
         56017 MiB available memory on the node where the printing process lives
------------------
     ethr =  3.04E-04,  avg # of iterations =  1.6

     total cpu time spent up to now is       68.3 secs

     total energy              =    -722.98851836 Ry
     estimated scf accuracy    <       0.60086442 Ry

     iteration #  6     ecut=    50.00 Ry     beta= 0.30
     Davidson diagonalization with overlap

---- Real-time Memory Report at c_bands before calling an iterative solver
           142 MiB given to the printing process from OS
             0 MiB allocation reported by mallinfo(arena+hblkhd)
         56019 MiB available memory on the node where the printing process lives
------------------
     ethr =  3.04E-04,  avg # of iterations =  2.1

     total cpu time spent up to now is       77.5 secs

     total energy              =    -722.91800413 Ry
     estimated scf accuracy    <       0.25411532 Ry

     iteration #  7     ecut=    50.00 Ry     beta= 0.30
     Davidson diagonalization with overlap

---- Real-time Memory Report at c_bands before calling an iterative solver
           143 MiB given to the printing process from OS
             0 MiB allocation reported by mallinfo(arena+hblkhd)
         56023 MiB available memory on the node where the printing process lives
------------------
     ethr =  3.04E-04,  avg # of iterations =  5.5

     total cpu time spent up to now is       90.5 secs

     total energy              =    -723.02580788 Ry
     estimated scf accuracy    <       0.03600418 Ry

     iteration #  8     ecut=    50.00 Ry     beta= 0.30
     Davidson diagonalization with overlap

---- Real-time Memory Report at c_bands before calling an iterative solver
           143 MiB given to the printing process from OS
             0 MiB allocation reported by mallinfo(arena+hblkhd)
         56021 MiB available memory on the node where the printing process lives
------------------
     ethr =  5.00E-05,  avg # of iterations =  2.6

     total cpu time spent up to now is       99.7 secs

     total energy              =    -723.03482832 Ry
     estimated scf accuracy    <       0.03220784 Ry

     iteration #  9     ecut=    50.00 Ry     beta= 0.30
     Davidson diagonalization with overlap

---- Real-time Memory Report at c_bands before calling an iterative solver
           143 MiB given to the printing process from OS
             0 MiB allocation reported by mallinfo(arena+hblkhd)
         56026 MiB available memory on the node where the printing process lives
------------------
     ethr =  4.47E-05,  avg # of iterations =  2.2

     total cpu time spent up to now is      108.6 secs

     total energy              =    -723.02517633 Ry
     estimated scf accuracy    <       0.04904453 Ry

     iteration # 10     ecut=    50.00 Ry     beta= 0.30
     Davidson diagonalization with overlap

---- Real-time Memory Report at c_bands before calling an iterative solver
           144 MiB given to the printing process from OS
             0 MiB allocation reported by mallinfo(arena+hblkhd)
         56024 MiB available memory on the node where the printing process lives
------------------
     ethr =  4.47E-05,  avg # of iterations =  1.0

     total cpu time spent up to now is      116.6 secs

     total energy              =    -723.01925807 Ry
     estimated scf accuracy    <       0.03203689 Ry

     iteration # 11     ecut=    50.00 Ry     beta= 0.30
     Davidson diagonalization with overlap

---- Real-time Memory Report at c_bands before calling an iterative solver
           145 MiB given to the printing process from OS
             0 MiB allocation reported by mallinfo(arena+hblkhd)
         56001 MiB available memory on the node where the printing process lives
------------------
     ethr =  4.45E-05,  avg # of iterations =  2.1

     total cpu time spent up to now is      125.8 secs

     total energy              =    -723.02047751 Ry
     estimated scf accuracy    <       0.01207189 Ry

     iteration # 12     ecut=    50.00 Ry     beta= 0.30
     Davidson diagonalization with overlap

---- Real-time Memory Report at c_bands before calling an iterative solver
           145 MiB given to the printing process from OS
             0 MiB allocation reported by mallinfo(arena+hblkhd)
         55965 MiB available memory on the node where the printing process lives
------------------
     ethr =  1.68E-05,  avg # of iterations =  2.6

     total cpu time spent up to now is      135.5 secs

     total energy              =    -723.02116471 Ry
     estimated scf accuracy    <       0.00750615 Ry

     iteration # 13     ecut=    50.00 Ry     beta= 0.30
     Davidson diagonalization with overlap

---- Real-time Memory Report at c_bands before calling an iterative solver
           145 MiB given to the printing process from OS
             0 MiB allocation reported by mallinfo(arena+hblkhd)
         55980 MiB available memory on the node where the printing process lives
------------------
     ethr =  1.04E-05,  avg # of iterations =  2.2

     total cpu time spent up to now is      144.5 secs

     total energy              =    -723.02191038 Ry
     estimated scf accuracy    <       0.00546399 Ry

     iteration # 14     ecut=    50.00 Ry     beta= 0.30
     Davidson diagonalization with overlap

---- Real-time Memory Report at c_bands before calling an iterative solver
           145 MiB given to the printing process from OS
             0 MiB allocation reported by mallinfo(arena+hblkhd)
         55972 MiB available memory on the node where the printing process lives
------------------
     ethr =  7.59E-06,  avg # of iterations =  2.3

     total cpu time spent up to now is      153.5 secs

     total energy              =    -723.02188996 Ry
     estimated scf accuracy    <       0.00509215 Ry

     iteration # 15     ecut=    50.00 Ry     beta= 0.30
     Davidson diagonalization with overlap

---- Real-time Memory Report at c_bands before calling an iterative solver
           145 MiB given to the printing process from OS
             0 MiB allocation reported by mallinfo(arena+hblkhd)
         55995 MiB available memory on the node where the printing process lives
------------------
     ethr =  7.07E-06,  avg # of iterations =  1.1

     total cpu time spent up to now is      161.6 secs

     total energy              =    -723.02111836 Ry
     estimated scf accuracy    <       0.00425609 Ry

     iteration # 16     ecut=    50.00 Ry     beta= 0.30
     Davidson diagonalization with overlap

---- Real-time Memory Report at c_bands before calling an iterative solver
           145 MiB given to the printing process from OS
             0 MiB allocation reported by mallinfo(arena+hblkhd)
         56010 MiB available memory on the node where the printing process lives
------------------
     ethr =  5.91E-06,  avg # of iterations =  4.3

     total cpu time spent up to now is      171.8 secs

     total energy              =    -723.02133500 Ry
     estimated scf accuracy    <       0.00142674 Ry

     iteration # 17     ecut=    50.00 Ry     beta= 0.30
     Davidson diagonalization with overlap

---- Real-time Memory Report at c_bands before calling an iterative solver
           145 MiB given to the printing process from OS
             0 MiB allocation reported by mallinfo(arena+hblkhd)
         56006 MiB available memory on the node where the printing process lives
------------------
     ethr =  1.98E-06,  avg # of iterations =  6.4

     total cpu time spent up to now is      184.2 secs

     total energy              =    -723.02189772 Ry
     estimated scf accuracy    <       0.00004144 Ry

     iteration # 18     ecut=    50.00 Ry     beta= 0.30
     Davidson diagonalization with overlap

---- Real-time Memory Report at c_bands before calling an iterative solver
           145 MiB given to the printing process from OS
             0 MiB allocation reported by mallinfo(arena+hblkhd)
         56027 MiB available memory on the node where the printing process lives
------------------
     ethr =  5.75E-08,  avg # of iterations =  7.9

     total cpu time spent up to now is      200.7 secs

     total energy              =    -723.02194576 Ry
     estimated scf accuracy    <       0.00039811 Ry

     iteration # 19     ecut=    50.00 Ry     beta= 0.30
     Davidson diagonalization with overlap

---- Real-time Memory Report at c_bands before calling an iterative solver
           145 MiB given to the printing process from OS
             0 MiB allocation reported by mallinfo(arena+hblkhd)
         56013 MiB available memory on the node where the printing process lives
------------------
     ethr =  5.75E-08,  avg # of iterations =  1.1

     total cpu time spent up to now is      208.8 secs

     total energy              =    -723.02180289 Ry
     estimated scf accuracy    <       0.00037082 Ry

     iteration # 20     ecut=    50.00 Ry     beta= 0.30
     Davidson diagonalization with overlap

---- Real-time Memory Report at c_bands before calling an iterative solver
           145 MiB given to the printing process from OS
             0 MiB allocation reported by mallinfo(arena+hblkhd)
         56041 MiB available memory on the node where the printing process lives
------------------
     ethr =  5.75E-08,  avg # of iterations =  8.0

     total cpu time spent up to now is      226.2 secs

     total energy              =    -723.02188420 Ry
     estimated scf accuracy    <       0.00001563 Ry

     iteration # 21     ecut=    50.00 Ry     beta= 0.30
     Davidson diagonalization with overlap

---- Real-time Memory Report at c_bands before calling an iterative solver
           145 MiB given to the printing process from OS
             0 MiB allocation reported by mallinfo(arena+hblkhd)
         56019 MiB available memory on the node where the printing process lives
------------------
     c_bands:  1 eigenvalues not converged
     ethr =  2.17E-08,  avg # of iterations =  8.4

     total cpu time spent up to now is      242.9 secs

     total energy              =    -723.02196879 Ry
     estimated scf accuracy    <       0.00015431 Ry

     iteration # 22     ecut=    50.00 Ry     beta= 0.30
     Davidson diagonalization with overlap

---- Real-time Memory Report at c_bands before calling an iterative solver
           145 MiB given to the printing process from OS
             0 MiB allocation reported by mallinfo(arena+hblkhd)
         56031 MiB available memory on the node where the printing process lives
------------------
     ethr =  2.17E-08,  avg # of iterations =  7.9

     total cpu time spent up to now is      259.3 secs

     total energy              =    -723.02192743 Ry
     estimated scf accuracy    <       0.00053683 Ry

     iteration # 23     ecut=    50.00 Ry     beta= 0.30
     Davidson diagonalization with overlap

---- Real-time Memory Report at c_bands before calling an iterative solver
           145 MiB given to the printing process from OS
             0 MiB allocation reported by mallinfo(arena+hblkhd)
         56029 MiB available memory on the node where the printing process lives
------------------
     ethr =  2.17E-08,  avg # of iterations =  5.2

     total cpu time spent up to now is      272.1 secs

     total energy              =    -723.02193713 Ry
     estimated scf accuracy    <       0.00032309 Ry

     iteration # 24     ecut=    50.00 Ry     beta= 0.30
     Davidson diagonalization with overlap

---- Real-time Memory Report at c_bands before calling an iterative solver
           145 MiB given to the printing process from OS
             0 MiB allocation reported by mallinfo(arena+hblkhd)
         56043 MiB available memory on the node where the printing process lives
------------------
     c_bands:  1 eigenvalues not converged
     ethr =  2.17E-08,  avg # of iterations =  2.0

     total cpu time spent up to now is      280.9 secs

     total energy              =    -723.02189670 Ry
     estimated scf accuracy    <       0.00039854 Ry

     iteration # 25     ecut=    50.00 Ry     beta= 0.30
     Davidson diagonalization with overlap

---- Real-time Memory Report at c_bands before calling an iterative solver
           145 MiB given to the printing process from OS
             0 MiB allocation reported by mallinfo(arena+hblkhd)
         56006 MiB available memory on the node where the printing process lives
------------------
     ethr =  2.17E-08,  avg # of iterations =  7.3

     total cpu time spent up to now is      296.1 secs

     total energy              =    -723.02187001 Ry
     estimated scf accuracy    <       0.00013467 Ry

     iteration # 26     ecut=    50.00 Ry     beta= 0.30
     Davidson diagonalization with overlap

---- Real-time Memory Report at c_bands before calling an iterative solver
           145 MiB given to the printing process from OS
             0 MiB allocation reported by mallinfo(arena+hblkhd)
         56044 MiB available memory on the node where the printing process lives
------------------
     ethr =  2.17E-08,  avg # of iterations =  7.6

     total cpu time spent up to now is      312.1 secs

     total energy              =    -723.02188518 Ry
     estimated scf accuracy    <       0.00000664 Ry

     iteration # 27     ecut=    50.00 Ry     beta= 0.30
     Davidson diagonalization with overlap

---- Real-time Memory Report at c_bands before calling an iterative solver
           145 MiB given to the printing process from OS
             0 MiB allocation reported by mallinfo(arena+hblkhd)
         56026 MiB available memory on the node where the printing process lives
------------------
     ethr =  9.22E-09,  avg # of iterations =  6.3

     total cpu time spent up to now is      325.7 secs

     total energy              =    -723.02188652 Ry
     estimated scf accuracy    <       0.00000573 Ry

     iteration # 28     ecut=    50.00 Ry     beta= 0.30
     Davidson diagonalization with overlap

---- Real-time Memory Report at c_bands before calling an iterative solver
           145 MiB given to the printing process from OS
             0 MiB allocation reported by mallinfo(arena+hblkhd)
         56046 MiB available memory on the node where the printing process lives
------------------
     ethr =  7.96E-09,  avg # of iterations =  2.0

     total cpu time spent up to now is      334.6 secs

     total energy              =    -723.02188603 Ry
     estimated scf accuracy    <       0.00000155 Ry

     iteration # 29     ecut=    50.00 Ry     beta= 0.30
     Davidson diagonalization with overlap

---- Real-time Memory Report at c_bands before calling an iterative solver
           145 MiB given to the printing process from OS
             0 MiB allocation reported by mallinfo(arena+hblkhd)
         56046 MiB available memory on the node where the printing process lives
------------------
     ethr =  2.15E-09,  avg # of iterations =  7.0

     total cpu time spent up to now is      350.6 secs

     total energy              =    -723.02188754 Ry
     estimated scf accuracy    <       0.00000274 Ry

     iteration # 30     ecut=    50.00 Ry     beta= 0.30
     Davidson diagonalization with overlap

---- Real-time Memory Report at c_bands before calling an iterative solver
           145 MiB given to the printing process from OS
             0 MiB allocation reported by mallinfo(arena+hblkhd)
         56053 MiB available memory on the node where the printing process lives
------------------
     ethr =  2.15E-09,  avg # of iterations =  1.0

     total cpu time spent up to now is      358.6 secs

     total energy              =    -723.02188684 Ry
     estimated scf accuracy    <       0.00000210 Ry

     iteration # 31     ecut=    50.00 Ry     beta= 0.30
     Davidson diagonalization with overlap

---- Real-time Memory Report at c_bands before calling an iterative solver
           145 MiB given to the printing process from OS
             0 MiB allocation reported by mallinfo(arena+hblkhd)
         56063 MiB available memory on the node where the printing process lives
------------------
     ethr =  2.15E-09,  avg # of iterations =  5.5

     total cpu time spent up to now is      371.4 secs

     total energy              =    -723.02188718 Ry
     estimated scf accuracy    <       0.00000020 Ry

     iteration # 32     ecut=    50.00 Ry     beta= 0.30
     Davidson diagonalization with overlap

---- Real-time Memory Report at c_bands before calling an iterative solver
           145 MiB given to the printing process from OS
             0 MiB allocation reported by mallinfo(arena+hblkhd)
         56050 MiB available memory on the node where the printing process lives
------------------
     ethr =  2.72E-10,  avg # of iterations =  6.7

     total cpu time spent up to now is      385.0 secs

     total energy              =    -723.02188724 Ry
     estimated scf accuracy    <       0.00000016 Ry

     iteration # 33     ecut=    50.00 Ry     beta= 0.30
     Davidson diagonalization with overlap

---- Real-time Memory Report at c_bands before calling an iterative solver
           145 MiB given to the printing process from OS
             0 MiB allocation reported by mallinfo(arena+hblkhd)
         56061 MiB available memory on the node where the printing process lives
------------------
     ethr =  2.22E-10,  avg # of iterations =  1.2

     total cpu time spent up to now is      393.3 secs

     total energy              =    -723.02188719 Ry
     estimated scf accuracy    <       0.00000011 Ry

     iteration # 34     ecut=    50.00 Ry     beta= 0.30
     Davidson diagonalization with overlap

---- Real-time Memory Report at c_bands before calling an iterative solver
           145 MiB given to the printing process from OS
             0 MiB allocation reported by mallinfo(arena+hblkhd)
         56047 MiB available memory on the node where the printing process lives
------------------
     ethr =  1.51E-10,  avg # of iterations =  5.8

     total cpu time spent up to now is      406.2 secs

     total energy              =    -723.02188723 Ry
     estimated scf accuracy    <       0.00000002 Ry

     iteration # 35     ecut=    50.00 Ry     beta= 0.30
     Davidson diagonalization with overlap

---- Real-time Memory Report at c_bands before calling an iterative solver
           145 MiB given to the printing process from OS
             0 MiB allocation reported by mallinfo(arena+hblkhd)
         56066 MiB available memory on the node where the printing process lives
------------------
     ethr =  2.85E-11,  avg # of iterations =  2.4

     total cpu time spent up to now is      415.5 secs

     total energy              =    -723.02188723 Ry
     estimated scf accuracy    <       0.00000002 Ry

     iteration # 36     ecut=    50.00 Ry     beta= 0.30
     Davidson diagonalization with overlap

---- Real-time Memory Report at c_bands before calling an iterative solver
           145 MiB given to the printing process from OS
             0 MiB allocation reported by mallinfo(arena+hblkhd)
         56024 MiB available memory on the node where the printing process lives
------------------
     ethr =  2.40E-11,  avg # of iterations =  5.6

     total cpu time spent up to now is      428.7 secs

     total energy              =    -723.02188723 Ry
     estimated scf accuracy    <       0.00000001 Ry

     iteration # 37     ecut=    50.00 Ry     beta= 0.30
     Davidson diagonalization with overlap

---- Real-time Memory Report at c_bands before calling an iterative solver
           145 MiB given to the printing process from OS
             0 MiB allocation reported by mallinfo(arena+hblkhd)
         56046 MiB available memory on the node where the printing process lives
------------------
     ethr =  1.67E-11,  avg # of iterations =  1.6

     total cpu time spent up to now is      437.3 secs

     total energy              =    -723.02188723 Ry
     estimated scf accuracy    <       0.00000001 Ry

     iteration # 38     ecut=    50.00 Ry     beta= 0.30
     Davidson diagonalization with overlap

---- Real-time Memory Report at c_bands before calling an iterative solver
           145 MiB given to the printing process from OS
             0 MiB allocation reported by mallinfo(arena+hblkhd)
         56027 MiB available memory on the node where the printing process lives
------------------
     ethr =  1.57E-11,  avg # of iterations =  2.1

     total cpu time spent up to now is      446.6 secs

     End of self-consistent calculation

          k = 0.0000 0.0000 0.0000 (  5435 PWs)   bands (ev):

   -12.9771 -12.7178 -12.6557 -12.5773  -1.9203  -1.8282  -1.8171  -1.8168
    -1.7355  -1.7319  -1.7318  -1.6983  -1.6654  -1.5065  -1.4735  -1.4486
    -1.4485  -1.4388  -1.3740  -1.3740  -1.3699  -1.3554  -1.3081  -1.3032
    -0.6475  -0.0173   0.5350   1.0596   1.9537   2.0241   2.6579   2.6659
     2.6670   2.7375   3.0596   3.0608

     occupation numbers 
     1.0000   1.0000   1.0000   1.0000   1.0000   1.0000   1.0000   1.0000
     1.0000   1.0000   1.0000   1.0000   1.0000   1.0000   1.0000   1.0000
     1.0000   1.0000   1.0000   1.0000   1.0000   1.0000   1.0000   1.0000
     1.0000   1.0000   1.0000   1.0000   1.0000   1.0000   1.0000   1.0000
     1.0000   1.0000   1.0000   1.0000

          k = 0.0000 0.0000 0.0939 (  5435 PWs)   bands (ev):

   -12.9603 -12.7357 -12.6502 -12.5823  -1.9182  -1.8354  -1.8126  -1.8123
    -1.7389  -1.7387  -1.7298  -1.7215  -1.6476  -1.5614  -1.5226  -1.4584
    -1.4427  -1.4427  -1.3784  -1.3784  -1.3696  -1.3579  -1.3229  -1.3093
    -0.4114  -0.0394   0.4425   1.2231   2.0014   2.0744   2.1145   2.6106
     2.6924   2.6935   3.0333   3.0345

     occupation numbers 
     1.0000   1.0000   1.0000   1.0000   1.0000   1.0000   1.0000   1.0000
     1.0000   1.0000   1.0000   1.0000   1.0000   1.0000   1.0000   1.0000
     1.0000   1.0000   1.0000   1.0000   1.0000   1.0000   1.0000   1.0000
     1.0000   1.0000   1.0000   1.0000   1.0000   1.0000   1.0000   1.0000
     1.0000   1.0000   1.0000   1.0000

          k = 0.0000 0.0000 0.1877 (  5467 PWs)   bands (ev):

   -12.9139 -12.7842 -12.6355 -12.5963  -1.9033  -1.8432  -1.7996  -1.7993
    -1.7875  -1.7573  -1.7571  -1.7370  -1.6822  -1.6009  -1.5668  -1.4694
    -1.4278  -1.4278  -1.3907  -1.3906  -1.3686  -1.3627  -1.3418  -1.3151
    -0.0293   0.0920   0.2498   1.3907   1.5811   2.0957   2.1307   2.4817
     2.7646   2.7657   2.9614   2.9625

     occupation numbers 
     1.0000   1.0000   1.0000   1.0000   1.0000   1.0000   1.0000   1.0000
     1.0000   1.0000   1.0000   1.0000   1.0000   1.0000   1.0000   1.0000
     1.0000   1.0000   1.0000   1.0000   1.0000   1.0000   1.0000   1.0000
     1.0000   1.0000   1.0000   1.0000   1.0000   1.0000   1.0000   1.0000
     1.0000   1.0000   1.0000   1.0000

          k = 0.0000 0.0000-0.2816 (  5478 PWs)   bands (ev):

   -12.8496 -12.8495 -12.6157 -12.6157  -1.8512  -1.8512  -1.8300  -1.8300
    -1.7796  -1.7796  -1.7793  -1.7793  -1.6259  -1.6259  -1.5346  -1.5346
    -1.4085  -1.4085  -1.4085  -1.4085  -1.3667  -1.3666  -1.3282  -1.3282
     0.0724   0.0725   0.7090   0.7090   1.9245   1.9245   2.3063   2.3064
     2.8630   2.8631   2.8641   2.8642

     occupation numbers 
     1.0000   1.0000   1.0000   1.0000   1.0000   1.0000   1.0000   1.0000
     1.0000   1.0000   1.0000   1.0000   1.0000   1.0000   1.0000   1.0000
     1.0000   1.0000   1.0000   1.0000   1.0000   1.0000   1.0000   1.0000
     1.0000   1.0000   1.0000   1.0000   1.0000   1.0000   1.0000   1.0000
     1.0000   1.0000   1.0000   1.0000

          k = 0.0000 0.0962 0.0000 (  5466 PWs)   bands (ev):

   -12.9580 -12.7069 -12.6828 -12.5820  -1.9074  -1.8266  -1.8217  -1.8072
    -1.7594  -1.7362  -1.7295  -1.7175  -1.6093  -1.5198  -1.4868  -1.4555
    -1.4496  -1.4478  -1.3955  -1.3826  -1.3737  -1.3595  -1.3516  -1.2605
    -0.6005   0.0880   0.5055   1.0718   2.0015   2.1423   2.3734   2.5040
     2.6178   2.6862   2.7574   3.0356

     occupation numbers 
     1.0000   1.0000   1.0000   1.0000   1.0000   1.0000   1.0000   1.0000
     1.0000   1.0000   1.0000   1.0000   1.0000   1.0000   1.0000   1.0000
     1.0000   1.0000   1.0000   1.0000   1.0000   1.0000   1.0000   1.0000
     1.0000   1.0000   1.0000   1.0000   1.0000   1.0000   1.0000   1.0000
     1.0000   1.0000   1.0000   1.0000

          k = 0.0000 0.0962 0.0939 (  5466 PWs)   bands (ev):

   -12.9417 -12.7242 -12.6759 -12.5886  -1.9064  -1.8349  -1.8157  -1.8022
    -1.7675  -1.7369  -1.7244  -1.7229  -1.6127  -1.5522  -1.5350  -1.4799
    -1.4489  -1.4438  -1.3975  -1.3819  -1.3784  -1.3716  -1.3628  -1.2805
    -0.3705   0.0573   0.4779   1.1987   1.9876   2.0477   2.1696   2.5085
     2.6401   2.6459   2.8380   3.0076

     occupation numbers 
     1.0000   1.0000   1.0000   1.0000   1.0000   1.0000   1.0000   1.0000
     1.0000   1.0000   1.0000   1.0000   1.0000   1.0000   1.0000   1.0000
     1.0000   1.0000   1.0000   1.0000   1.0000   1.0000   1.0000   1.0000
     1.0000   1.0000   1.0000   1.0000   1.0000   1.0000   1.0000   1.0000
     1.0000   1.0000   1.0000   1.0000

          k = 0.0000 0.0962 0.1877 (  5459 PWs)   bands (ev):

   -12.8966 -12.7711 -12.6571 -12.6068  -1.8928  -1.8436  -1.8006  -1.7988
    -1.7879  -1.7590  -1.7431  -1.7189  -1.6856  -1.5947  -1.5764  -1.4979
    -1.4322  -1.4288  -1.3911  -1.3897  -1.3863  -1.3794  -1.3691  -1.3210
     0.0684   0.1204   0.3380   1.3549   1.5449   2.1383   2.1734   2.5148
     2.5872   2.7225   2.7988   2.9312

     occupation numbers 
     1.0000   1.0000   1.0000   1.0000   1.0000   1.0000   1.0000   1.0000
     1.0000   1.0000   1.0000   1.0000   1.0000   1.0000   1.0000   1.0000
     1.0000   1.0000   1.0000   1.0000   1.0000   1.0000   1.0000   1.0000
     1.0000   1.0000   1.0000   1.0000   1.0000   1.0000   1.0000   1.0000
     1.0000   1.0000   1.0000   1.0000

          k = 0.0000 0.0962-0.2816 (  5462 PWs)   bands (ev):

   -12.8343 -12.8343 -12.6318 -12.6318  -1.8425  -1.8425  -1.8323  -1.8323
    -1.7753  -1.7753  -1.7666  -1.7666  -1.6320  -1.6320  -1.5485  -1.5485
    -1.4107  -1.4107  -1.4093  -1.4093  -1.3751  -1.3751  -1.3574  -1.3574
     0.1738   0.1738   0.7152   0.7152   1.9157   1.9158   2.3441   2.3442
     2.6964   2.6964   2.8269   2.8269

     occupation numbers 
     1.0000   1.0000   1.0000   1.0000   1.0000   1.0000   1.0000   1.0000
     1.0000   1.0000   1.0000   1.0000   1.0000   1.0000   1.0000   1.0000
     1.0000   1.0000   1.0000   1.0000   1.0000   1.0000   1.0000   1.0000
     1.0000   1.0000   1.0000   1.0000   1.0000   1.0000   1.0000   1.0000
     1.0000   1.0000   1.0000   1.0000

          k = 0.0000 0.1925 0.0000 (  5468 PWs)   bands (ev):

   -12.9048 -12.7483 -12.6773 -12.6028  -1.8774  -1.8280  -1.8261  -1.8154
    -1.7830  -1.7415  -1.7153  -1.6765  -1.5856  -1.5599  -1.5373  -1.4748
    -1.4554  -1.4483  -1.4380  -1.4107  -1.3731  -1.3670  -1.3119  -1.2611
    -0.4539   0.0600   0.6716   1.2641   1.7592   2.0910   2.1311   2.3629
     2.4856   2.6818   2.7627   2.9649

     occupation numbers 
     1.0000   1.0000   1.0000   1.0000   1.0000   1.0000   1.0000   1.0000
     1.0000   1.0000   1.0000   1.0000   1.0000   1.0000   1.0000   1.0000
     1.0000   1.0000   1.0000   1.0000   1.0000   1.0000   1.0000   1.0000
     1.0000   1.0000   1.0000   1.0000   1.0000   1.0000   1.0000   1.0000
     1.0000   1.0000   1.0000   1.0000

          k = 0.0000 0.1925 0.0939 (  5483 PWs)   bands (ev):

   -12.8899 -12.7386 -12.6929 -12.6125  -1.8804  -1.8403  -1.8192  -1.8074
    -1.7767  -1.7303  -1.7231  -1.6845  -1.5907  -1.5725  -1.5465  -1.5316
    -1.4635  -1.4431  -1.4413  -1.4087  -1.3781  -1.3715  -1.3518  -1.2945
    -0.2489   0.1071   0.6802   1.3110   1.6137   2.0932   2.1736   2.3459
     2.5177   2.6418   2.7202   2.9327

     occupation numbers 
     1.0000   1.0000   1.0000   1.0000   1.0000   1.0000   1.0000   1.0000
     1.0000   1.0000   1.0000   1.0000   1.0000   1.0000   1.0000   1.0000
     1.0000   1.0000   1.0000   1.0000   1.0000   1.0000   1.0000   1.0000
     1.0000   1.0000   1.0000   1.0000   1.0000   1.0000   1.0000   1.0000
     1.0000   1.0000   1.0000   1.0000

          k = 0.0000 0.1925 0.1877 (  5474 PWs)   bands (ev):

   -12.8489 -12.7352 -12.7119 -12.6391  -1.8727  -1.8486  -1.8138  -1.8057
    -1.7589  -1.7431  -1.7057  -1.6983  -1.6736  -1.6068  -1.6007  -1.5760
    -1.4429  -1.4313  -1.4291  -1.4025  -1.3915  -1.3861  -1.3816  -1.3530
     0.1935   0.2318   0.5859   1.2132   1.5587   2.1860   2.2195   2.2893
     2.5186   2.6044   2.6055   2.8449

     occupation numbers 
     1.0000   1.0000   1.0000   1.0000   1.0000   1.0000   1.0000   1.0000
     1.0000   1.0000   1.0000   1.0000   1.0000   1.0000   1.0000   1.0000
     1.0000   1.0000   1.0000   1.0000   1.0000   1.0000   1.0000   1.0000
     1.0000   1.0000   1.0000   1.0000   1.0000   1.0000   1.0000   1.0000
     1.0000   1.0000   1.0000   1.0000

          k = 0.0000 0.1925-0.2816 (  5484 PWs)   bands (ev):

   -12.7924 -12.7923 -12.6755 -12.6754  -1.8362  -1.8362  -1.8341  -1.8341
    -1.7440  -1.7440  -1.7332  -1.7332  -1.6533  -1.6533  -1.5992  -1.5992
    -1.4151  -1.4151  -1.4103  -1.4102  -1.4001  -1.4001  -1.3929  -1.3929
     0.4057   0.4057   0.7083   0.7083   1.9258   1.9258   2.3473   2.3473
     2.4469   2.4469   2.7252   2.7252

     occupation numbers 
     1.0000   1.0000   1.0000   1.0000   1.0000   1.0000   1.0000   1.0000
     1.0000   1.0000   1.0000   1.0000   1.0000   1.0000   1.0000   1.0000
     1.0000   1.0000   1.0000   1.0000   1.0000   1.0000   1.0000   1.0000
     1.0000   1.0000   1.0000   1.0000   1.0000   1.0000   1.0000   1.0000
     1.0000   1.0000   1.0000   1.0000

          k = 0.0000-0.2887 0.0000 (  5478 PWs)   bands (ev):

   -12.8292 -12.8291 -12.6384 -12.6383  -1.8525  -1.8525  -1.8235  -1.8235
    -1.7575  -1.7575  -1.6684  -1.6684  -1.6186  -1.6186  -1.5048  -1.5048
    -1.4505  -1.4505  -1.4364  -1.4364  -1.3716  -1.3715  -1.2801  -1.2801
    -0.2124  -0.2123   1.1689   1.1690   1.6357   1.6358   2.3077   2.3078
     2.5534   2.5536   2.8651   2.8652

     occupation numbers 
     1.0000   1.0000   1.0000   1.0000   1.0000   1.0000   1.0000   1.0000
     1.0000   1.0000   1.0000   1.0000   1.0000   1.0000   1.0000   1.0000
     1.0000   1.0000   1.0000   1.0000   1.0000   1.0000   1.0000   1.0000
     1.0000   1.0000   1.0000   1.0000   1.0000   1.0000   1.0000   1.0000
     1.0000   1.0000   1.0000   1.0000

          k = 0.0000-0.2887 0.0939 (  5500 PWs)   bands (ev):

   -12.8166 -12.8164 -12.6514 -12.6512  -1.8597  -1.8597  -1.8157  -1.8157
    -1.7488  -1.7488  -1.6736  -1.6736  -1.6283  -1.6283  -1.5266  -1.5266
    -1.4650  -1.4649  -1.4325  -1.4325  -1.3767  -1.3767  -1.3237  -1.3237
    -0.0625  -0.0624   1.1235   1.1236   1.6464   1.6465   2.3451   2.3452
     2.5023   2.5024   2.8276   2.8277

     occupation numbers 
     1.0000   1.0000   1.0000   1.0000   1.0000   1.0000   1.0000   1.0000
     1.0000   1.0000   1.0000   1.0000   1.0000   1.0000   1.0000   1.0000
     1.0000   1.0000   1.0000   1.0000   1.0000   1.0000   1.0000   1.0000
     1.0000   1.0000   1.0000   1.0000   1.0000   1.0000   1.0000   1.0000
     1.0000   1.0000   1.0000   1.0000

          k = 0.0000-0.2887 0.1877 (  5480 PWs)   bands (ev):

   -12.7820 -12.7818 -12.6866 -12.6864  -1.8595  -1.8594  -1.8131  -1.8130
    -1.7244  -1.7244  -1.6835  -1.6835  -1.6547  -1.6547  -1.6182  -1.6181
    -1.4492  -1.4492  -1.4216  -1.4216  -1.3896  -1.3896  -1.3760  -1.3760
     0.2633   0.2634   0.9284   0.9284   1.7848   1.7849   2.3261   2.3261
     2.4472   2.4472   2.7254   2.7255

     occupation numbers 
     1.0000   1.0000   1.0000   1.0000   1.0000   1.0000   1.0000   1.0000
     1.0000   1.0000   1.0000   1.0000   1.0000   1.0000   1.0000   1.0000
     1.0000   1.0000   1.0000   1.0000   1.0000   1.0000   1.0000   1.0000
     1.0000   1.0000   1.0000   1.0000   1.0000   1.0000   1.0000   1.0000
     1.0000   1.0000   1.0000   1.0000

          k = 0.0000-0.2887-0.2816 (  5476 PWs)   bands (ev):

   -12.7345 -12.7344 -12.7343 -12.7342  -1.8362  -1.8361  -1.8361  -1.8361
    -1.6901  -1.6901  -1.6901  -1.6901  -1.6765  -1.6765  -1.6764  -1.6764
    -1.4158  -1.4158  -1.4158  -1.4158  -1.4062  -1.4061  -1.4061  -1.4061
     0.6177   0.6177   0.6178   0.6178   2.0511   2.0511   2.0512   2.0512
     2.5862   2.5862   2.5864   2.5865

     occupation numbers 
     1.0000   1.0000   1.0000   1.0000   1.0000   1.0000   1.0000   1.0000
     1.0000   1.0000   1.0000   1.0000   1.0000   1.0000   1.0000   1.0000
     1.0000   1.0000   1.0000   1.0000   1.0000   1.0000   1.0000   1.0000
     1.0000   1.0000   1.0000   1.0000   1.0000   1.0000   1.0000   1.0000
     1.0000   1.0000   1.0000   1.0000

          k = 0.1667 0.0962 0.0000 (  5473 PWs)   bands (ev):

   -12.9048 -12.6773 -12.6581 -12.5762  -1.8774  -1.8294  -1.8278  -1.7833
    -1.7365  -1.7152  -1.6766  -1.6647  -1.5661  -1.5278  -1.4953  -1.4749
    -1.4554  -1.4483  -1.4383  -1.4161  -1.3731  -1.3253  -1.3119  -1.2416
    -0.4539   0.1988   0.5397   1.1598   1.5903   1.7598   2.0917   2.0947
     2.3850   2.4848   2.6818   2.9640

     occupation numbers 
     1.0000   1.0000   1.0000   1.0000   1.0000   1.0000   1.0000   1.0000
     1.0000   1.0000   1.0000   1.0000   1.0000   1.0000   1.0000   1.0000
     1.0000   1.0000   1.0000   1.0000   1.0000   1.0000   1.0000   1.0000
     1.0000   1.0000   1.0000   1.0000   1.0000   1.0000   1.0000   1.0000
     1.0000   1.0000   1.0000   1.0000

          k = 0.1667 0.0962 0.0939 (  5465 PWs)   bands (ev):

   -12.8899 -12.6929 -12.6524 -12.5814  -1.8804  -1.8196  -1.8190  -1.7769
    -1.7468  -1.7230  -1.6846  -1.6748  -1.5706  -1.5368  -1.5316  -1.5015
    -1.4635  -1.4432  -1.4430  -1.4049  -1.3781  -1.3518  -1.3239  -1.2539
    -0.2489   0.1673   0.4939   1.2852   1.6141   1.6527   2.0939   2.1324
     2.3286   2.5169   2.6421   2.9319

     occupation numbers 
     1.0000   1.0000   1.0000   1.0000   1.0000   1.0000   1.0000   1.0000
     1.0000   1.0000   1.0000   1.0000   1.0000   1.0000   1.0000   1.0000
     1.0000   1.0000   1.0000   1.0000   1.0000   1.0000   1.0000   1.0000
     1.0000   1.0000   1.0000   1.0000   1.0000   1.0000   1.0000   1.0000
     1.0000   1.0000   1.0000   1.0000

          k = 0.1667 0.0962 0.1877 (  5453 PWs)   bands (ev):

   -12.8489 -12.7352 -12.6370 -12.5960  -1.8727  -1.8056  -1.8023  -1.7608
    -1.7591  -1.7430  -1.7059  -1.6917  -1.6736  -1.5913  -1.5533  -1.5204
    -1.4429  -1.4290  -1.4289  -1.3961  -1.3915  -1.3860  -1.3189  -1.2816
     0.1593   0.1935   0.3650   1.2133   1.5641   1.8347   2.0936   2.1867
     2.2264   2.5191   2.6047   2.8441

     occupation numbers 
     1.0000   1.0000   1.0000   1.0000   1.0000   1.0000   1.0000   1.0000
     1.0000   1.0000   1.0000   1.0000   1.0000   1.0000   1.0000   1.0000
     1.0000   1.0000   1.0000   1.0000   1.0000   1.0000   1.0000   1.0000
     1.0000   1.0000   1.0000   1.0000   1.0000   1.0000   1.0000   1.0000
     1.0000   1.0000   1.0000   1.0000

          k = 0.1667 0.0962-0.2816 (  5464 PWs)   bands (ev):

   -12.7924 -12.7923 -12.6163 -12.6163  -1.8341  -1.8341  -1.7850  -1.7849
    -1.7439  -1.7438  -1.7334  -1.7334  -1.6539  -1.6539  -1.5392  -1.5392
    -1.4151  -1.4151  -1.4102  -1.4102  -1.4061  -1.4061  -1.3062  -1.3061
     0.2324   0.2324   0.7084   0.7084   1.8419   1.8420   2.0927   2.0927
     2.3479   2.3479   2.7244   2.7244

     occupation numbers 
     1.0000   1.0000   1.0000   1.0000   1.0000   1.0000   1.0000   1.0000
     1.0000   1.0000   1.0000   1.0000   1.0000   1.0000   1.0000   1.0000
     1.0000   1.0000   1.0000   1.0000   1.0000   1.0000   1.0000   1.0000
     1.0000   1.0000   1.0000   1.0000   1.0000   1.0000   1.0000   1.0000
     1.0000   1.0000   1.0000   1.0000

          k = 0.1667 0.1925 0.0000 (  5471 PWs)   bands (ev):

   -12.8574 -12.7177 -12.6524 -12.5912  -1.8570  -1.8134  -1.8120  -1.7772
    -1.7771  -1.7008  -1.6991  -1.6369  -1.6177  -1.5389  -1.5082  -1.4871
    -1.4583  -1.4556  -1.4443  -1.4307  -1.3732  -1.3556  -1.2888  -1.2461
    -0.3064   0.1513   0.7106   1.2045   1.4242   1.7595   1.7990   2.3166
     2.3611   2.5120   2.6111   2.8629

     occupation numbers 
     1.0000   1.0000   1.0000   1.0000   1.0000   1.0000   1.0000   1.0000
     1.0000   1.0000   1.0000   1.0000   1.0000   1.0000   1.0000   1.0000
     1.0000   1.0000   1.0000   1.0000   1.0000   1.0000   1.0000   1.0000
     1.0000   1.0000   1.0000   1.0000   1.0000   1.0000   1.0000   1.0000
     1.0000   1.0000   1.0000   1.0000

          k = 0.1667 0.1925 0.0939 (  5478 PWs)   bands (ev):

   -12.8438 -12.7091 -12.6663 -12.5996  -1.8618  -1.8069  -1.8032  -1.7863
    -1.7702  -1.7059  -1.6932  -1.6456  -1.6235  -1.5504  -1.5223  -1.5215
    -1.4761  -1.4725  -1.4374  -1.4094  -1.3782  -1.3570  -1.3322  -1.2706
    -0.1323   0.1779   0.6739   1.3213   1.3304   1.7970   1.8281   2.3198
     2.3760   2.4594   2.5675   2.8266

     occupation numbers 
     1.0000   1.0000   1.0000   1.0000   1.0000   1.0000   1.0000   1.0000
     1.0000   1.0000   1.0000   1.0000   1.0000   1.0000   1.0000   1.0000
     1.0000   1.0000   1.0000   1.0000   1.0000   1.0000   1.0000   1.0000
     1.0000   1.0000   1.0000   1.0000   1.0000   1.0000   1.0000   1.0000
     1.0000   1.0000   1.0000   1.0000

          k = 0.1667 0.1925 0.1877 (  5469 PWs)   bands (ev):

   -12.8067 -12.7042 -12.6858 -12.6225  -1.8578  -1.8047  -1.7955  -1.7873
    -1.7528  -1.7190  -1.6802  -1.6683  -1.6382  -1.6337  -1.5857  -1.5749
    -1.4501  -1.4490  -1.4252  -1.3969  -1.3913  -1.3787  -1.3589  -1.3199
     0.2466   0.2625   0.5534   1.0545   1.6257   1.9336   1.9393   2.2390
     2.3280   2.3705   2.4935   2.7282

     occupation numbers 
     1.0000   1.0000   1.0000   1.0000   1.0000   1.0000   1.0000   1.0000
     1.0000   1.0000   1.0000   1.0000   1.0000   1.0000   1.0000   1.0000
     1.0000   1.0000   1.0000   1.0000   1.0000   1.0000   1.0000   1.0000
     1.0000   1.0000   1.0000   1.0000   1.0000   1.0000   1.0000   1.0000
     1.0000   1.0000   1.0000   1.0000

          k = 0.1667 0.1925-0.2816 (  5464 PWs)   bands (ev):

   -12.7557 -12.7557 -12.6541 -12.6541  -1.8259  -1.8259  -1.7964  -1.7964
    -1.7286  -1.7286  -1.6898  -1.6898  -1.6525  -1.6525  -1.6057  -1.6057
    -1.4165  -1.4165  -1.4107  -1.4107  -1.4076  -1.4076  -1.3539  -1.3539
     0.3977   0.3977   0.6696   0.6696   1.9521   1.9521   2.1590   2.1591
     2.1602   2.1602   2.5981   2.5981

     occupation numbers 
     1.0000   1.0000   1.0000   1.0000   1.0000   1.0000   1.0000   1.0000
     1.0000   1.0000   1.0000   1.0000   1.0000   1.0000   1.0000   1.0000
     1.0000   1.0000   1.0000   1.0000   1.0000   1.0000   1.0000   1.0000
     1.0000   1.0000   1.0000   1.0000   1.0000   1.0000   1.0000   1.0000
     1.0000   1.0000   1.0000   1.0000

          k = 0.1667 0.2887 0.0000 (  5466 PWs)   bands (ev):

   -12.7900 -12.7899 -12.6200 -12.6199  -1.8240  -1.8239  -1.7941  -1.7941
    -1.7555  -1.7555  -1.6723  -1.6723  -1.5823  -1.5823  -1.4959  -1.4959
    -1.4653  -1.4653  -1.4357  -1.4357  -1.3700  -1.3700  -1.2656  -1.2656
    -0.0796  -0.0796   1.0658   1.0658   1.4039   1.4040   2.1101   2.1102
     2.4924   2.4926   2.6890   2.6890

     occupation numbers 
     1.0000   1.0000   1.0000   1.0000   1.0000   1.0000   1.0000   1.0000
     1.0000   1.0000   1.0000   1.0000   1.0000   1.0000   1.0000   1.0000
     1.0000   1.0000   1.0000   1.0000   1.0000   1.0000   1.0000   1.0000
     1.0000   1.0000   1.0000   1.0000   1.0000   1.0000   1.0000   1.0000
     1.0000   1.0000   1.0000   1.0000

          k = 0.1667 0.2887 0.0939 (  5474 PWs)   bands (ev):

   -12.7787 -12.7785 -12.6314 -12.6313  -1.8303  -1.8303  -1.7888  -1.7888
    -1.7452  -1.7452  -1.6779  -1.6779  -1.5926  -1.5926  -1.5159  -1.5159
    -1.4848  -1.4848  -1.4221  -1.4220  -1.3741  -1.3741  -1.3026  -1.3026
     0.0356   0.0357   0.9979   0.9979   1.4887   1.4888   2.1241   2.1241
     2.4662   2.4663   2.6439   2.6440

     occupation numbers 
     1.0000   1.0000   1.0000   1.0000   1.0000   1.0000   1.0000   1.0000
     1.0000   1.0000   1.0000   1.0000   1.0000   1.0000   1.0000   1.0000
     1.0000   1.0000   1.0000   1.0000   1.0000   1.0000   1.0000   1.0000
     1.0000   1.0000   1.0000   1.0000   1.0000   1.0000   1.0000   1.0000
     1.0000   1.0000   1.0000   1.0000

          k = 0.1667 0.2887 0.1877 (  5470 PWs)   bands (ev):

   -12.7477 -12.7475 -12.6627 -12.6625  -1.8316  -1.8316  -1.7857  -1.7857
    -1.7221  -1.7221  -1.6869  -1.6869  -1.6208  -1.6208  -1.6059  -1.6059
    -1.4542  -1.4542  -1.4103  -1.4103  -1.3836  -1.3836  -1.3590  -1.3590
     0.2888   0.2888   0.8149   0.8149   1.7222   1.7222   2.1802   2.1803
     2.3486   2.3486   2.5241   2.5241

     occupation numbers 
     1.0000   1.0000   1.0000   1.0000   1.0000   1.0000   1.0000   1.0000
     1.0000   1.0000   1.0000   1.0000   1.0000   1.0000   1.0000   1.0000
     1.0000   1.0000   1.0000   1.0000   1.0000   1.0000   1.0000   1.0000
     1.0000   1.0000   1.0000   1.0000   1.0000   1.0000   1.0000   1.0000
     1.0000   1.0000   1.0000   1.0000

          k = 0.1667 0.2887-0.2816 (  5472 PWs)   bands (ev):

   -12.7053 -12.7053 -12.7051 -12.7050  -1.8098  -1.8098  -1.8098  -1.8098
    -1.6937  -1.6937  -1.6937  -1.6937  -1.6476  -1.6476  -1.6476  -1.6475
    -1.4151  -1.4151  -1.4151  -1.4151  -1.3919  -1.3919  -1.3919  -1.3919
     0.5651   0.5651   0.5651   0.5652   2.0259   2.0259   2.0260   2.0260
     2.3738   2.3739   2.3739   2.3740

     occupation numbers 
     1.0000   1.0000   1.0000   1.0000   1.0000   1.0000   1.0000   1.0000
     1.0000   1.0000   1.0000   1.0000   1.0000   1.0000   1.0000   1.0000
     1.0000   1.0000   1.0000   1.0000   1.0000   1.0000   1.0000   1.0000
     1.0000   1.0000   1.0000   1.0000   1.0000   1.0000   1.0000   1.0000
     1.0000   1.0000   1.0000   1.0000

          k = 0.1667 0.0000 0.0000 (  5465 PWs)   bands (ev):

   -12.9219 -12.6866 -12.6323 -12.5744  -1.8853  -1.8352  -1.8222  -1.7950
    -1.7236  -1.7228  -1.6887  -1.6357  -1.5861  -1.5149  -1.4836  -1.4668
    -1.4552  -1.4504  -1.4139  -1.4072  -1.3738  -1.3219  -1.2879  -1.2642
    -0.5032   0.1281   0.5547   1.1314   1.5957   1.9469   1.9513   2.1757
     2.3395   2.5443   2.7068   2.9718

     occupation numbers 
     1.0000   1.0000   1.0000   1.0000   1.0000   1.0000   1.0000   1.0000
     1.0000   1.0000   1.0000   1.0000   1.0000   1.0000   1.0000   1.0000
     1.0000   1.0000   1.0000   1.0000   1.0000   1.0000   1.0000   1.0000
     1.0000   1.0000   1.0000   1.0000   1.0000   1.0000   1.0000   1.0000
     1.0000   1.0000   1.0000   1.0000

          k = 0.1667 0.0000 0.0939 (  5455 PWs)   bands (ev):

   -12.9065 -12.7027 -12.6282 -12.5781  -1.8868  -1.8243  -1.8136  -1.7899
    -1.7307  -1.7288  -1.6963  -1.6714  -1.5723  -1.5372  -1.5320  -1.4725
    -1.4593  -1.4441  -1.4172  -1.4065  -1.3786  -1.3576  -1.2866  -1.2695
    -0.2890   0.1017   0.4718   1.2505   1.6774   1.7406   2.0068   2.2126
     2.2813   2.5461   2.7007   2.9408

     occupation numbers 
     1.0000   1.0000   1.0000   1.0000   1.0000   1.0000   1.0000   1.0000
     1.0000   1.0000   1.0000   1.0000   1.0000   1.0000   1.0000   1.0000
     1.0000   1.0000   1.0000   1.0000   1.0000   1.0000   1.0000   1.0000
     1.0000   1.0000   1.0000   1.0000   1.0000   1.0000   1.0000   1.0000
     1.0000   1.0000   1.0000   1.0000

          k = 0.1667 0.0000 0.1877 (  5453 PWs)   bands (ev):

   -12.8641 -12.7465 -12.6171 -12.5882  -1.8768  -1.8032  -1.7930  -1.7820
    -1.7514  -1.7334  -1.7160  -1.7159  -1.6872  -1.5862  -1.5420  -1.4819
    -1.4395  -1.4297  -1.4096  -1.4049  -1.3919  -1.3869  -1.2841  -1.2783
     0.0916   0.1716   0.3048   1.2668   1.5062   1.8853   2.0054   2.1854
     2.3145   2.5670   2.6615   2.8566

     occupation numbers 
     1.0000   1.0000   1.0000   1.0000   1.0000   1.0000   1.0000   1.0000
     1.0000   1.0000   1.0000   1.0000   1.0000   1.0000   1.0000   1.0000
     1.0000   1.0000   1.0000   1.0000   1.0000   1.0000   1.0000   1.0000
     1.0000   1.0000   1.0000   1.0000   1.0000   1.0000   1.0000   1.0000
     1.0000   1.0000   1.0000   1.0000

          k = 0.1667 0.0000-0.2816 (  5442 PWs)   bands (ev):

   -12.8057 -12.8057 -12.6024 -12.6024  -1.8318  -1.8318  -1.7793  -1.7793
    -1.7650  -1.7650  -1.7382  -1.7382  -1.6593  -1.6593  -1.5092  -1.5092
    -1.4138  -1.4138  -1.4102  -1.4102  -1.4042  -1.4042  -1.2822  -1.2822
     0.1611   0.1611   0.7155   0.7155   1.7828   1.7828   2.0933   2.0933
     2.4537   2.4537   2.7450   2.7451

     occupation numbers 
     1.0000   1.0000   1.0000   1.0000   1.0000   1.0000   1.0000   1.0000
     1.0000   1.0000   1.0000   1.0000   1.0000   1.0000   1.0000   1.0000
     1.0000   1.0000   1.0000   1.0000   1.0000   1.0000   1.0000   1.0000
     1.0000   1.0000   1.0000   1.0000   1.0000   1.0000   1.0000   1.0000
     1.0000   1.0000   1.0000   1.0000

          k = 0.3333 0.1925 0.0000 (  5439 PWs)   bands (ev):

   -12.7483 -12.6581 -12.6028 -12.5762  -1.8294  -1.8260  -1.8154  -1.7418
    -1.7365  -1.6648  -1.5856  -1.5661  -1.5601  -1.5373  -1.5279  -1.4952
    -1.4383  -1.4379  -1.4161  -1.4106  -1.3670  -1.3253  -1.2610  -1.2416
     0.0602   0.1992   0.5399   0.6722   1.1601   1.2646   1.5897   2.0947
     2.1304   2.3629   2.3846   2.7619

     occupation numbers 
     1.0000   1.0000   1.0000   1.0000   1.0000   1.0000   1.0000   1.0000
     1.0000   1.0000   1.0000   1.0000   1.0000   1.0000   1.0000   1.0000
     1.0000   1.0000   1.0000   1.0000   1.0000   1.0000   1.0000   1.0000
     1.0000   1.0000   1.0000   1.0000   1.0000   1.0000   1.0000   1.0000
     1.0000   1.0000   1.0000   1.0000

          k = 0.3333 0.1925 0.0939 (  5456 PWs)   bands (ev):

   -12.7386 -12.6524 -12.6125 -12.5814  -1.8402  -1.8196  -1.8073  -1.7468
    -1.7305  -1.6749  -1.5907  -1.5727  -1.5707  -1.5464  -1.5369  -1.5014
    -1.4431  -1.4412  -1.4086  -1.4049  -1.3715  -1.3239  -1.2944  -1.2538
     0.1073   0.1677   0.4941   0.6807   1.2854   1.3114   1.6521   2.1324
     2.1729   2.3281   2.3460   2.7194

     occupation numbers 
     1.0000   1.0000   1.0000   1.0000   1.0000   1.0000   1.0000   1.0000
     1.0000   1.0000   1.0000   1.0000   1.0000   1.0000   1.0000   1.0000
     1.0000   1.0000   1.0000   1.0000   1.0000   1.0000   1.0000   1.0000
     1.0000   1.0000   1.0000   1.0000   1.0000   1.0000   1.0000   1.0000
     1.0000   1.0000   1.0000   1.0000

          k = 0.3333 0.1925 0.1877 (  5451 PWs)   bands (ev):

   -12.7119 -12.6391 -12.6370 -12.5960  -1.8486  -1.8138  -1.8023  -1.7608
    -1.6985  -1.6919  -1.6070  -1.6006  -1.5914  -1.5758  -1.5533  -1.5203
    -1.4313  -1.4289  -1.4024  -1.3961  -1.3815  -1.3530  -1.3189  -1.2816
     0.1596   0.2321   0.3652   0.5863   1.5590   1.5643   1.8341   2.0936
     2.2197   2.2260   2.2886   2.6037

     occupation numbers 
     1.0000   1.0000   1.0000   1.0000   1.0000   1.0000   1.0000   1.0000
     1.0000   1.0000   1.0000   1.0000   1.0000   1.0000   1.0000   1.0000
     1.0000   1.0000   1.0000   1.0000   1.0000   1.0000   1.0000   1.0000
     1.0000   1.0000   1.0000   1.0000   1.0000   1.0000   1.0000   1.0000
     1.0000   1.0000   1.0000   1.0000

          k = 0.3333 0.1925-0.2816 (  5464 PWs)   bands (ev):

   -12.6755 -12.6754 -12.6164 -12.6163  -1.8362  -1.8362  -1.7850  -1.7850
    -1.6540  -1.6539  -1.6535  -1.6535  -1.5991  -1.5991  -1.5392  -1.5392
    -1.4060  -1.4060  -1.4001  -1.4001  -1.3929  -1.3929  -1.3061  -1.3061
     0.2327   0.2327   0.4061   0.4061   1.8419   1.8420   1.9261   1.9261
     2.0923   2.0923   2.4461   2.4461

     occupation numbers 
     1.0000   1.0000   1.0000   1.0000   1.0000   1.0000   1.0000   1.0000
     1.0000   1.0000   1.0000   1.0000   1.0000   1.0000   1.0000   1.0000
     1.0000   1.0000   1.0000   1.0000   1.0000   1.0000   1.0000   1.0000
     1.0000   1.0000   1.0000   1.0000   1.0000   1.0000   1.0000   1.0000
     1.0000   1.0000   1.0000   1.0000

          k = 0.3333 0.2887 0.0000 (  5460 PWs)   bands (ev):

   -12.7051 -12.7049 -12.5877 -12.5875  -1.8192  -1.8192  -1.7813  -1.7813
    -1.7297  -1.7297  -1.5701  -1.5701  -1.5506  -1.5506  -1.5107  -1.5107
    -1.4316  -1.4316  -1.4044  -1.4044  -1.3577  -1.3577  -1.2521  -1.2521
     0.1519   0.1519   0.5506   0.5506   1.1458   1.1459   1.9362   1.9363
     2.2480   2.2481   2.6315   2.6316

     occupation numbers 
     1.0000   1.0000   1.0000   1.0000   1.0000   1.0000   1.0000   1.0000
     1.0000   1.0000   1.0000   1.0000   1.0000   1.0000   1.0000   1.0000
     1.0000   1.0000   1.0000   1.0000   1.0000   1.0000   1.0000   1.0000
     1.0000   1.0000   1.0000   1.0000   1.0000   1.0000   1.0000   1.0000
     1.0000   1.0000   1.0000   1.0000

          k = 0.3333 0.2887 0.0939 (  5444 PWs)   bands (ev):

   -12.6971 -12.6969 -12.5955 -12.5953  -1.8245  -1.8245  -1.7835  -1.7834
    -1.7203  -1.7203  -1.5796  -1.5796  -1.5586  -1.5586  -1.5175  -1.5175
    -1.4352  -1.4352  -1.3983  -1.3983  -1.3598  -1.3598  -1.2758  -1.2758
     0.1387   0.1388   0.5523   0.5523   1.2417   1.2418   1.9802   1.9803
     2.2578   2.2579   2.5843   2.5844

     occupation numbers 
     1.0000   1.0000   1.0000   1.0000   1.0000   1.0000   1.0000   1.0000
     1.0000   1.0000   1.0000   1.0000   1.0000   1.0000   1.0000   1.0000
     1.0000   1.0000   1.0000   1.0000   1.0000   1.0000   1.0000   1.0000
     1.0000   1.0000   1.0000   1.0000   1.0000   1.0000   1.0000   1.0000
     1.0000   1.0000   1.0000   1.0000

          k = 0.3333 0.2887 0.1877 (  5464 PWs)   bands (ev):

   -12.6754 -12.6752 -12.6167 -12.6165  -1.8315  -1.8315  -1.7961  -1.7961
    -1.6931  -1.6931  -1.5957  -1.5957  -1.5811  -1.5811  -1.5428  -1.5428
    -1.4239  -1.4239  -1.3918  -1.3918  -1.3635  -1.3635  -1.3238  -1.3238
     0.1756   0.1756   0.4479   0.4479   1.5522   1.5523   2.0915   2.0917
     2.1999   2.2000   2.4606   2.4607

     occupation numbers 
     1.0000   1.0000   1.0000   1.0000   1.0000   1.0000   1.0000   1.0000
     1.0000   1.0000   1.0000   1.0000   1.0000   1.0000   1.0000   1.0000
     1.0000   1.0000   1.0000   1.0000   1.0000   1.0000   1.0000   1.0000
     1.0000   1.0000   1.0000   1.0000   1.0000   1.0000   1.0000   1.0000
     1.0000   1.0000   1.0000   1.0000

          k = 0.3333 0.2887-0.2816 (  5460 PWs)   bands (ev):

   -12.6460 -12.6460 -12.6458 -12.6457  -1.8208  -1.8208  -1.8208  -1.8208
    -1.6449  -1.6449  -1.6449  -1.6449  -1.5698  -1.5698  -1.5698  -1.5698
    -1.3996  -1.3996  -1.3996  -1.3996  -1.3580  -1.3580  -1.3580  -1.3580
     0.2925   0.2925   0.2925   0.2925   1.9180   1.9180   1.9181   1.9182
     2.2940   2.2940   2.2941   2.2941

     occupation numbers 
     1.0000   1.0000   1.0000   1.0000   1.0000   1.0000   1.0000   1.0000
     1.0000   1.0000   1.0000   1.0000   1.0000   1.0000   1.0000   1.0000
     1.0000   1.0000   1.0000   1.0000   1.0000   1.0000   1.0000   1.0000
     1.0000   1.0000   1.0000   1.0000   1.0000   1.0000   1.0000   1.0000
     1.0000   1.0000   1.0000   1.0000

          k = 0.3333-0.0962 0.0000 (  5451 PWs)   bands (ev):

   -12.7789 -12.6168 -12.6152 -12.5748  -1.8511  -1.8279  -1.8098  -1.7493
    -1.6827  -1.6372  -1.6119  -1.5783  -1.5363  -1.5159  -1.5095  -1.4843
    -1.4578  -1.4497  -1.4351  -1.4282  -1.3691  -1.2853  -1.2649  -1.2401
    -0.0404   0.3084   0.5167   0.9087   1.0720   1.3898   1.4677   1.9041
     2.1312   2.1404   2.4569   2.7387

     occupation numbers 
     1.0000   1.0000   1.0000   1.0000   1.0000   1.0000   1.0000   1.0000
     1.0000   1.0000   1.0000   1.0000   1.0000   1.0000   1.0000   1.0000
     1.0000   1.0000   1.0000   1.0000   1.0000   1.0000   1.0000   1.0000
     1.0000   1.0000   1.0000   1.0000   1.0000   1.0000   1.0000   1.0000
     1.0000   1.0000   1.0000   1.0000

          k = 0.3333-0.0962 0.0939 (  5451 PWs)   bands (ev):

   -12.7680 -12.6262 -12.6137 -12.5774  -1.8374  -1.8343  -1.8031  -1.7387
    -1.6987  -1.6419  -1.6402  -1.5891  -1.5423  -1.5316  -1.5166  -1.4838
    -1.4643  -1.4555  -1.4265  -1.4191  -1.3733  -1.3016  -1.2820  -1.2431
     0.0580   0.2684   0.4565   0.8812   1.1337   1.4364   1.5967   1.9711
     2.0736   2.1626   2.4281   2.6968

     occupation numbers 
     1.0000   1.0000   1.0000   1.0000   1.0000   1.0000   1.0000   1.0000
     1.0000   1.0000   1.0000   1.0000   1.0000   1.0000   1.0000   1.0000
     1.0000   1.0000   1.0000   1.0000   1.0000   1.0000   1.0000   1.0000
     1.0000   1.0000   1.0000   1.0000   1.0000   1.0000   1.0000   1.0000
     1.0000   1.0000   1.0000   1.0000

          k = 0.3333-0.0962 0.1877 (  5456 PWs)   bands (ev):

   -12.7381 -12.6562 -12.6055 -12.5845  -1.8417  -1.8038  -1.7891  -1.7228
    -1.7110  -1.6877  -1.6532  -1.6171  -1.6038  -1.5955  -1.5071  -1.4893
    -1.4485  -1.4389  -1.4171  -1.4092  -1.3835  -1.3592  -1.2734  -1.2509
     0.2211   0.2753   0.3349   0.7412   1.3163   1.6495   1.8177   1.8943
     2.1016   2.2255   2.3189   2.5833

     occupation numbers 
     1.0000   1.0000   1.0000   1.0000   1.0000   1.0000   1.0000   1.0000
     1.0000   1.0000   1.0000   1.0000   1.0000   1.0000   1.0000   1.0000
     1.0000   1.0000   1.0000   1.0000   1.0000   1.0000   1.0000   1.0000
     1.0000   1.0000   1.0000   1.0000   1.0000   1.0000   1.0000   1.0000
     1.0000   1.0000   1.0000   1.0000

          k = 0.3333-0.0962-0.2816 (  5446 PWs)   bands (ev):

   -12.6972 -12.6972 -12.5948 -12.5948  -1.8248  -1.8248  -1.7450  -1.7450
    -1.6781  -1.6780  -1.6738  -1.6738  -1.6343  -1.6343  -1.4972  -1.4972
    -1.4221  -1.4221  -1.4128  -1.4128  -1.3926  -1.3925  -1.2619  -1.2619
     0.2416   0.2416   0.5183   0.5183   1.5761   1.5761   1.9759   1.9759
     2.0728   2.0728   2.4304   2.4304

     occupation numbers 
     1.0000   1.0000   1.0000   1.0000   1.0000   1.0000   1.0000   1.0000
     1.0000   1.0000   1.0000   1.0000   1.0000   1.0000   1.0000   1.0000
     1.0000   1.0000   1.0000   1.0000   1.0000   1.0000   1.0000   1.0000
     1.0000   1.0000   1.0000   1.0000   1.0000   1.0000   1.0000   1.0000
     1.0000   1.0000   1.0000   1.0000

          k = 0.3333-0.0000 0.0000 (  5463 PWs)   bands (ev):

   -12.7899 -12.6199 -12.5880 -12.5880  -1.8607  -1.8239  -1.7943  -1.7554
    -1.6722  -1.6327  -1.6327  -1.5824  -1.5135  -1.4960  -1.4874  -1.4874
    -1.4653  -1.4635  -1.4459  -1.4356  -1.3699  -1.2656  -1.2552  -1.2551
    -0.0795   0.4637   0.4637   0.8634   1.0663   1.4045   1.6869   1.6869
     2.0313   2.1094   2.4925   2.6883

     occupation numbers 
     1.0000   1.0000   1.0000   1.0000   1.0000   1.0000   1.0000   1.0000
     1.0000   1.0000   1.0000   1.0000   1.0000   1.0000   1.0000   1.0000
     1.0000   1.0000   1.0000   1.0000   1.0000   1.0000   1.0000   1.0000
     1.0000   1.0000   1.0000   1.0000   1.0000   1.0000   1.0000   1.0000
     1.0000   1.0000   1.0000   1.0000

          k = 0.3333-0.0000 0.0939 (  5449 PWs)   bands (ev):

   -12.7786 -12.6314 -12.5877 -12.5877  -1.8420  -1.8302  -1.7890  -1.7451
    -1.6778  -1.6558  -1.6557  -1.5928  -1.5410  -1.5159  -1.4848  -1.4743
    -1.4742  -1.4650  -1.4473  -1.4220  -1.3740  -1.3025  -1.2524  -1.2524
     0.0357   0.4040   0.4041   0.9415   0.9984   1.4892   1.7940   1.7940
     1.9488   2.1234   2.4662   2.6433

     occupation numbers 
     1.0000   1.0000   1.0000   1.0000   1.0000   1.0000   1.0000   1.0000
[...]
    -1.4322  -1.4288  -1.3911  -1.3897  -1.3863  -1.3794  -1.3691  -1.3210
     0.0684   0.1204   0.3380   1.3549   1.5449   2.1383   2.1734   2.5148
     2.5872   2.7225   2.7988   2.9312

     occupation numbers 
     1.0000   1.0000   1.0000   1.0000   1.0000   1.0000   1.0000   1.0000
     1.0000   1.0000   1.0000   1.0000   1.0000   1.0000   1.0000   1.0000
     1.0000   1.0000   1.0000   1.0000   1.0000   1.0000   1.0000   1.0000
     1.0000   1.0000   1.0000   1.0000   1.0000   1.0000   1.0000   1.0000
     1.0000   1.0000   1.0000   1.0000

          k = 0.0000 0.1925-0.0939 (  5483 PWs)   bands (ev):

   -12.8899 -12.7386 -12.6929 -12.6125  -1.8804  -1.8403  -1.8192  -1.8074
    -1.7767  -1.7303  -1.7231  -1.6845  -1.5907  -1.5725  -1.5465  -1.5316
    -1.4635  -1.4431  -1.4413  -1.4087  -1.3781  -1.3715  -1.3518  -1.2945
    -0.2489   0.1071   0.6802   1.3110   1.6137   2.0932   2.1736   2.3459
     2.5177   2.6418   2.7202   2.9327

     occupation numbers 
     1.0000   1.0000   1.0000   1.0000   1.0000   1.0000   1.0000   1.0000
     1.0000   1.0000   1.0000   1.0000   1.0000   1.0000   1.0000   1.0000
     1.0000   1.0000   1.0000   1.0000   1.0000   1.0000   1.0000   1.0000
     1.0000   1.0000   1.0000   1.0000   1.0000   1.0000   1.0000   1.0000
     1.0000   1.0000   1.0000   1.0000

          k = 0.0000 0.1925-0.1877 (  5474 PWs)   bands (ev):

   -12.8489 -12.7352 -12.7119 -12.6391  -1.8727  -1.8486  -1.8138  -1.8057
    -1.7589  -1.7432  -1.7057  -1.6983  -1.6736  -1.6068  -1.6007  -1.5760
    -1.4429  -1.4313  -1.4291  -1.4025  -1.3915  -1.3861  -1.3816  -1.3530
     0.1935   0.2318   0.5859   1.2132   1.5587   2.1860   2.2195   2.2893
     2.5186   2.6044   2.6055   2.8449

     occupation numbers 
     1.0000   1.0000   1.0000   1.0000   1.0000   1.0000   1.0000   1.0000
     1.0000   1.0000   1.0000   1.0000   1.0000   1.0000   1.0000   1.0000
     1.0000   1.0000   1.0000   1.0000   1.0000   1.0000   1.0000   1.0000
     1.0000   1.0000   1.0000   1.0000   1.0000   1.0000   1.0000   1.0000
     1.0000   1.0000   1.0000   1.0000

          k =-0.1667 0.0962-0.0939 (  5465 PWs)   bands (ev):

   -12.8899 -12.6929 -12.6524 -12.5814  -1.8804  -1.8196  -1.8190  -1.7769
    -1.7468  -1.7230  -1.6846  -1.6748  -1.5706  -1.5368  -1.5316  -1.5015
    -1.4635  -1.4432  -1.4430  -1.4049  -1.3781  -1.3518  -1.3239  -1.2539
    -0.2489   0.1673   0.4939   1.2852   1.6141   1.6527   2.0939   2.1324
     2.3286   2.5169   2.6421   2.9319

     occupation numbers 
     1.0000   1.0000   1.0000   1.0000   1.0000   1.0000   1.0000   1.0000
     1.0000   1.0000   1.0000   1.0000   1.0000   1.0000   1.0000   1.0000
     1.0000   1.0000   1.0000   1.0000   1.0000   1.0000   1.0000   1.0000
     1.0000   1.0000   1.0000   1.0000   1.0000   1.0000   1.0000   1.0000
     1.0000   1.0000   1.0000   1.0000

          k =-0.1667 0.0962-0.1877 (  5453 PWs)   bands (ev):

   -12.8489 -12.7352 -12.6370 -12.5960  -1.8727  -1.8056  -1.8023  -1.7608
    -1.7591  -1.7430  -1.7059  -1.6917  -1.6736  -1.5913  -1.5533  -1.5204
    -1.4429  -1.4290  -1.4289  -1.3961  -1.3915  -1.3860  -1.3189  -1.2816
     0.1593   0.1935   0.3650   1.2133   1.5641   1.8347   2.0936   2.1867
     2.2264   2.5191   2.6047   2.8441

     occupation numbers 
     1.0000   1.0000   1.0000   1.0000   1.0000   1.0000   1.0000   1.0000
     1.0000   1.0000   1.0000   1.0000   1.0000   1.0000   1.0000   1.0000
     1.0000   1.0000   1.0000   1.0000   1.0000   1.0000   1.0000   1.0000
     1.0000   1.0000   1.0000   1.0000   1.0000   1.0000   1.0000   1.0000
     1.0000   1.0000   1.0000   1.0000

          k =-0.1667 0.1925-0.0939 (  5478 PWs)   bands (ev):

   -12.8438 -12.7091 -12.6663 -12.5996  -1.8618  -1.8069  -1.8032  -1.7863
    -1.7702  -1.7059  -1.6932  -1.6456  -1.6235  -1.5504  -1.5223  -1.5215
    -1.4761  -1.4724  -1.4374  -1.4094  -1.3782  -1.3570  -1.3322  -1.2706
    -0.1323   0.1779   0.6739   1.3213   1.3304   1.7970   1.8281   2.3198
     2.3760   2.4594   2.5675   2.8266

     occupation numbers 
     1.0000   1.0000   1.0000   1.0000   1.0000   1.0000   1.0000   1.0000
     1.0000   1.0000   1.0000   1.0000   1.0000   1.0000   1.0000   1.0000
     1.0000   1.0000   1.0000   1.0000   1.0000   1.0000   1.0000   1.0000
     1.0000   1.0000   1.0000   1.0000   1.0000   1.0000   1.0000   1.0000
     1.0000   1.0000   1.0000   1.0000

          k =-0.1667 0.1925-0.1877 (  5469 PWs)   bands (ev):

   -12.8067 -12.7042 -12.6858 -12.6225  -1.8578  -1.8047  -1.7955  -1.7873
    -1.7528  -1.7190  -1.6802  -1.6683  -1.6382  -1.6337  -1.5857  -1.5749
    -1.4501  -1.4490  -1.4252  -1.3969  -1.3913  -1.3787  -1.3589  -1.3199
     0.2466   0.2625   0.5534   1.0545   1.6257   1.9336   1.9393   2.2390
     2.3280   2.3705   2.4935   2.7282

     occupation numbers 
     1.0000   1.0000   1.0000   1.0000   1.0000   1.0000   1.0000   1.0000
     1.0000   1.0000   1.0000   1.0000   1.0000   1.0000   1.0000   1.0000
     1.0000   1.0000   1.0000   1.0000   1.0000   1.0000   1.0000   1.0000
     1.0000   1.0000   1.0000   1.0000   1.0000   1.0000   1.0000   1.0000
     1.0000   1.0000   1.0000   1.0000

          k =-0.3333 0.1925-0.0939 (  5456 PWs)   bands (ev):

   -12.7386 -12.6524 -12.6125 -12.5814  -1.8402  -1.8196  -1.8073  -1.7468
    -1.7305  -1.6749  -1.5907  -1.5727  -1.5706  -1.5464  -1.5369  -1.5014
    -1.4431  -1.4412  -1.4086  -1.4049  -1.3715  -1.3239  -1.2944  -1.2538
     0.1073   0.1677   0.4941   0.6807   1.2854   1.3114   1.6521   2.1324
     2.1729   2.3281   2.3460   2.7194

     occupation numbers 
     1.0000   1.0000   1.0000   1.0000   1.0000   1.0000   1.0000   1.0000
     1.0000   1.0000   1.0000   1.0000   1.0000   1.0000   1.0000   1.0000
     1.0000   1.0000   1.0000   1.0000   1.0000   1.0000   1.0000   1.0000
     1.0000   1.0000   1.0000   1.0000   1.0000   1.0000   1.0000   1.0000
     1.0000   1.0000   1.0000   1.0000

          k =-0.3333 0.1925-0.1877 (  5451 PWs)   bands (ev):

   -12.7119 -12.6391 -12.6370 -12.5960  -1.8486  -1.8138  -1.8023  -1.7608
    -1.6985  -1.6919  -1.6070  -1.6006  -1.5914  -1.5758  -1.5533  -1.5203
    -1.4313  -1.4289  -1.4024  -1.3961  -1.3815  -1.3530  -1.3189  -1.2816
     0.1596   0.2321   0.3652   0.5863   1.5590   1.5643   1.8341   2.0937
     2.2197   2.2260   2.2886   2.6037

     occupation numbers 
     1.0000   1.0000   1.0000   1.0000   1.0000   1.0000   1.0000   1.0000
     1.0000   1.0000   1.0000   1.0000   1.0000   1.0000   1.0000   1.0000
     1.0000   1.0000   1.0000   1.0000   1.0000   1.0000   1.0000   1.0000
     1.0000   1.0000   1.0000   1.0000   1.0000   1.0000   1.0000   1.0000
     1.0000   1.0000   1.0000   1.0000

          k =-0.3333-0.0962-0.0939 (  5451 PWs)   bands (ev):

   -12.7680 -12.6262 -12.6137 -12.5774  -1.8374  -1.8343  -1.8031  -1.7387
    -1.6987  -1.6419  -1.6402  -1.5891  -1.5423  -1.5316  -1.5166  -1.4838
    -1.4643  -1.4555  -1.4265  -1.4191  -1.3733  -1.3015  -1.2820  -1.2431
     0.0580   0.2684   0.4565   0.8812   1.1337   1.4364   1.5967   1.9711
     2.0736   2.1626   2.4281   2.6968

     occupation numbers 
     1.0000   1.0000   1.0000   1.0000   1.0000   1.0000   1.0000   1.0000
     1.0000   1.0000   1.0000   1.0000   1.0000   1.0000   1.0000   1.0000
     1.0000   1.0000   1.0000   1.0000   1.0000   1.0000   1.0000   1.0000
     1.0000   1.0000   1.0000   1.0000   1.0000   1.0000   1.0000   1.0000
     1.0000   1.0000   1.0000   1.0000

          k =-0.3333-0.0962-0.1877 (  5456 PWs)   bands (ev):

   -12.7381 -12.6562 -12.6055 -12.5845  -1.8417  -1.8037  -1.7891  -1.7228
    -1.7110  -1.6877  -1.6532  -1.6171  -1.6038  -1.5955  -1.5071  -1.4893
    -1.4485  -1.4389  -1.4171  -1.4092  -1.3834  -1.3592  -1.2734  -1.2509
     0.2211   0.2753   0.3349   0.7412   1.3163   1.6495   1.8178   1.8943
     2.1016   2.2255   2.3189   2.5833

     occupation numbers 
     1.0000   1.0000   1.0000   1.0000   1.0000   1.0000   1.0000   1.0000
     1.0000   1.0000   1.0000   1.0000   1.0000   1.0000   1.0000   1.0000
     1.0000   1.0000   1.0000   1.0000   1.0000   1.0000   1.0000   1.0000
     1.0000   1.0000   1.0000   1.0000   1.0000   1.0000   1.0000   1.0000
     1.0000   1.0000   1.0000   1.0000

          k = 0.5000-0.1925-0.0939 (  5432 PWs)   bands (ev):

   -12.6511 -12.6508 -12.5822 -12.5819  -1.8271  -1.8271  -1.7426  -1.7426
    -1.7133  -1.7133  -1.6141  -1.6141  -1.5290  -1.5290  -1.4672  -1.4672
    -1.3926  -1.3926  -1.3824  -1.3824  -1.3276  -1.3276  -1.2799  -1.2799
     0.0233   0.0233   0.4612   0.4612   1.2332   1.2333   1.8975   1.8976
     2.0913   2.0915   2.5187   2.5188

     occupation numbers 
     1.0000   1.0000   1.0000   1.0000   1.0000   1.0000   1.0000   1.0000
     1.0000   1.0000   1.0000   1.0000   1.0000   1.0000   1.0000   1.0000
     1.0000   1.0000   1.0000   1.0000   1.0000   1.0000   1.0000   1.0000
     1.0000   1.0000   1.0000   1.0000   1.0000   1.0000   1.0000   1.0000
     1.0000   1.0000   1.0000   1.0000

          k = 0.5000-0.1925-0.1877 (  5432 PWs)   bands (ev):

   -12.6361 -12.6359 -12.5963 -12.5961  -1.8303  -1.8303  -1.7757  -1.7757
    -1.6960  -1.6960  -1.5816  -1.5816  -1.5736  -1.5736  -1.4809  -1.4809
    -1.3917  -1.3917  -1.3821  -1.3821  -1.3278  -1.3278  -1.3010  -1.3010
     0.0277   0.0277   0.2875   0.2876   1.5738   1.5740   2.0333   2.0334
     2.1052   2.1054   2.3899   2.3900

     occupation numbers 
     1.0000   1.0000   1.0000   1.0000   1.0000   1.0000   1.0000   1.0000
     1.0000   1.0000   1.0000   1.0000   1.0000   1.0000   1.0000   1.0000
     1.0000   1.0000   1.0000   1.0000   1.0000   1.0000   1.0000   1.0000
     1.0000   1.0000   1.0000   1.0000   1.0000   1.0000   1.0000   1.0000
     1.0000   1.0000   1.0000   1.0000

          k = 0.5000-0.0962-0.0939 (  5438 PWs)   bands (ev):

   -12.6525 -12.6523 -12.5816 -12.5813  -1.8197  -1.8196  -1.7468  -1.7468
    -1.6748  -1.6748  -1.5706  -1.5706  -1.5369  -1.5369  -1.5015  -1.5015
    -1.4432  -1.4432  -1.4049  -1.4049  -1.3238  -1.3238  -1.2538  -1.2538
     0.1678   0.1678   0.4943   0.4944   1.2851   1.2853   1.6520   1.6521
     2.1322   2.1324   2.3279   2.3280

     occupation numbers 
     1.0000   1.0000   1.0000   1.0000   1.0000   1.0000   1.0000   1.0000
     1.0000   1.0000   1.0000   1.0000   1.0000   1.0000   1.0000   1.0000
     1.0000   1.0000   1.0000   1.0000   1.0000   1.0000   1.0000   1.0000
     1.0000   1.0000   1.0000   1.0000   1.0000   1.0000   1.0000   1.0000
     1.0000   1.0000   1.0000   1.0000

          k = 0.5000-0.0962-0.1877 (  5430 PWs)   bands (ev):

   -12.6371 -12.6369 -12.5962 -12.5959  -1.8023  -1.8023  -1.7608  -1.7608
    -1.6918  -1.6918  -1.5914  -1.5914  -1.5533  -1.5533  -1.5204  -1.5203
    -1.4289  -1.4289  -1.3961  -1.3961  -1.3188  -1.3188  -1.2815  -1.2815
     0.1597   0.1597   0.3654   0.3655   1.5639   1.5641   1.8342   1.8343
     2.0933   2.0935   2.2259   2.2261

     occupation numbers 
     1.0000   1.0000   1.0000   1.0000   1.0000   1.0000   1.0000   1.0000
     1.0000   1.0000   1.0000   1.0000   1.0000   1.0000   1.0000   1.0000
     1.0000   1.0000   1.0000   1.0000   1.0000   1.0000   1.0000   1.0000
     1.0000   1.0000   1.0000   1.0000   1.0000   1.0000   1.0000   1.0000
     1.0000   1.0000   1.0000   1.0000

     highest occupied level (ev):     3.0608

!    total energy              =    -723.02188722 Ry
     estimated scf accuracy    <          5.9E-09 Ry

     The total energy is the sum of the following terms:
     one-electron contribution =    -379.06277340 Ry
     hartree contribution      =     261.98818529 Ry
     xc contribution           =    -217.93967722 Ry
     ewald contribution        =    -388.00762190 Ry

     convergence has been achieved in  38 iterations

     Forces acting on atoms (cartesian axes, Ry/au):

     atom    1 type  1   force =     0.00000000   -0.00002339    0.01709084
     atom    2 type  2   force =     0.00000000    0.00000760   -0.01707157
     atom    3 type  1   force =     0.00000000    0.00003681    0.01707515
     atom    4 type  2   force =     0.00000000   -0.00000663   -0.01706936
     atom    5 type  1   force =     0.00000000    0.00000644    0.01706462
     atom    6 type  2   force =     0.00000000    0.00000634   -0.01707436
     atom    7 type  1   force =     0.00000000   -0.00002127    0.01705651
     atom    8 type  2   force =     0.00000000   -0.00000589   -0.01707183
     The non-local contrib.  to forces
     atom    1 type  1   force =     0.00000000    0.00004835   -0.11570338
     atom    2 type  2   force =     0.00000000    0.00027805   -0.10964365
     atom    3 type  1   force =     0.00000000   -0.00004401   -0.11570977
     atom    4 type  2   force =     0.00000000   -0.00028266   -0.10964217
     atom    5 type  1   force =     0.00000000    0.00005997   -0.11570968
     atom    6 type  2   force =     0.00000000    0.00028992   -0.10964437
     atom    7 type  1   force =     0.00000000   -0.00006533   -0.11571398
     atom    8 type  2   force =     0.00000000   -0.00028499   -0.10964493
     The ionic contribution  to forces
     atom    1 type  1   force =     0.00000000   -0.00000000   -0.91846157
     atom    2 type  2   force =    -0.00000000    0.00000000    0.91846157
     atom    3 type  1   force =    -0.00000000    0.00000000   -0.91846157
     atom    4 type  2   force =     0.00000000   -0.00000000    0.91846157
     atom    5 type  1   force =     0.00000000   -0.00000000   -0.91846157
     atom    6 type  2   force =    -0.00000000    0.00000000    0.91846157
     atom    7 type  1   force =    -0.00000000    0.00000000   -0.91846157
     atom    8 type  2   force =     0.00000000   -0.00000000    0.91846157
     The local contribution  to forces
     atom    1 type  1   force =     0.00000000   -0.00003193    1.04614521
     atom    2 type  2   force =     0.00000000   -0.00027676   -0.82690949
     atom    3 type  1   force =     0.00000000    0.00001184    1.04617739
     atom    4 type  2   force =     0.00000000    0.00028085   -0.82690154
     atom    5 type  1   force =    -0.00000000   -0.00007410    1.04618226
     atom    6 type  2   force =    -0.00000000   -0.00027059   -0.82691581
     atom    7 type  1   force =     0.00000000    0.00009625    1.04620408
     atom    8 type  2   force =    -0.00000000    0.00026724   -0.82690439
     The core correction contribution to forces
     atom    1 type  1   force =     0.00000000   -0.00000801    0.00506615
     atom    2 type  2   force =    -0.00000000   -0.00000313    0.00100987
     atom    3 type  1   force =    -0.00000000    0.00000856    0.00506150
     atom    4 type  2   force =     0.00000000    0.00000320    0.00101003
     atom    5 type  1   force =    -0.00000000   -0.00000728    0.00506509
     atom    6 type  2   force =    -0.00000000   -0.00000329    0.00100986
     atom    7 type  1   force =     0.00000000    0.00000676    0.00506069
     atom    8 type  2   force =     0.00000000    0.00000322    0.00101005
     The Hubbard contrib.    to forces
     atom    1 type  1   force =     0.00000000    0.00000000    0.00000000
     atom    2 type  2   force =     0.00000000    0.00000000    0.00000000
     atom    3 type  1   force =     0.00000000    0.00000000    0.00000000
     atom    4 type  2   force =     0.00000000    0.00000000    0.00000000
     atom    5 type  1   force =     0.00000000    0.00000000    0.00000000
     atom    6 type  2   force =     0.00000000    0.00000000    0.00000000
     atom    7 type  1   force =     0.00000000    0.00000000    0.00000000
     atom    8 type  2   force =     0.00000000    0.00000000    0.00000000
     The SCF correction term to forces
     atom    1 type  1   force =    -0.00000000   -0.00003189    0.00004336
     atom    2 type  2   force =    -0.00000000    0.00000935    0.00000905
     atom    3 type  1   force =    -0.00000000    0.00006033    0.00000654
     atom    4 type  2   force =     0.00000000   -0.00000811    0.00000167
     atom    5 type  1   force =    -0.00000000    0.00002777   -0.00001254
     atom    6 type  2   force =    -0.00000000   -0.00000980    0.00001332
     atom    7 type  1   force =    -0.00000000   -0.00005904   -0.00003378
     atom    8 type  2   force =     0.00000000    0.00000856    0.00000480

     Total force =     0.048286     Total SCF correction =     0.000113

     init_run     :      6.19s CPU      6.48s WALL (       1 calls)
     electrons    :    417.58s CPU    439.81s WALL (       1 calls)
     forces       :      1.97s CPU      2.05s WALL (       1 calls)

     Called by init_run:
     wfcinit      :      4.15s CPU      4.36s WALL (       1 calls)
     wfcinit:atom :      0.07s CPU      0.07s WALL (      40 calls)
     wfcinit:wfcr :      3.71s CPU      3.92s WALL (      40 calls)
     potinit      :      0.78s CPU      0.79s WALL (       1 calls)
     hinit0       :      1.06s CPU      1.07s WALL (       1 calls)

     Called by electrons:
     c_bands      :    356.57s CPU    372.70s WALL (      38 calls)
     sum_band     :     52.62s CPU     57.12s WALL (      38 calls)
     v_of_rho     :      2.91s CPU      3.00s WALL (      39 calls)
     v_h          :      0.15s CPU      0.16s WALL (      39 calls)
     v_xc         :      2.83s CPU      2.91s WALL (      40 calls)
     newd         :      4.98s CPU      6.49s WALL (      39 calls)
     mix_rho      :      0.45s CPU      0.47s WALL (      38 calls)

     Called by c_bands:
     init_us_2    :      4.24s CPU      4.30s WALL (    3120 calls)
     init_us_2:cp :      4.22s CPU      4.29s WALL (    3120 calls)
     cegterg      :    332.85s CPU    348.89s WALL (    1520 calls)

     Called by sum_band:
     sum_band:wei :      0.01s CPU      0.01s WALL (      38 calls)
     sum_band:loo :     46.74s CPU     49.60s WALL (      38 calls)
     sum_band:buf :      0.32s CPU      0.34s WALL (    1520 calls)
     sum_band:ini :      2.01s CPU      2.04s WALL (    1520 calls)
     sum_band:cal :      5.54s CPU      5.68s WALL (    1520 calls)
     sum_band:bec :      0.11s CPU      0.11s WALL (    1520 calls)
     addusdens    :      5.40s CPU      6.97s WALL (      38 calls)
                                        0.00s GPU  (      38 calls)
     addusd:skk   :      0.03s CPU      0.03s WALL (      76 calls)
                                        0.00s GPU  (      76 calls)

     Called by *egterg:
     cdiaghg      :     28.34s CPU     28.40s WALL (    8140 calls)
     cegterg:over :     16.58s CPU     16.95s WALL (    6620 calls)
     cegterg:upda :     10.61s CPU     10.65s WALL (    6620 calls)
     cegterg:last :     19.99s CPU     20.01s WALL (    3609 calls)
     h_psi        :    232.91s CPU    248.48s WALL (    8180 calls)
     s_psi        :     18.49s CPU     18.55s WALL (    8180 calls)
     g_psi        :      1.43s CPU      1.44s WALL (    6620 calls)

     Called by h_psi:
     h_psi:calbec :     17.04s CPU     17.72s WALL (    8180 calls)
     vloc_psi     :    195.65s CPU    210.42s WALL (    8180 calls)
     add_vuspsi   :     19.32s CPU     19.42s WALL (    8180 calls)

     General routines
     calbec       :     23.11s CPU     23.96s WALL (    9860 calls)
     fft          :      1.58s CPU      1.72s WALL (     516 calls)
     ffts         :      0.21s CPU      0.23s WALL (      77 calls)
     fftw         :    195.45s CPU    210.45s WALL (  361368 calls)
     interpolate  :      0.31s CPU      0.33s WALL (      39 calls)

     Parallel routines

     PWSCF        :   7m 6.10s CPU   7m28.72s WALL


   This run was terminated on:  23:51:12  13Jul2025            

=------------------------------------------------------------------------------=
   JOB DONE.
=------------------------------------------------------------------------------=
Note: The following floating-point exceptions are signalling: IEEE_INVALID_FLAG
Note: The following floating-point exceptions are signalling: IEEE_INVALID_FLAG
