Authorization required, but no authorization protocol specified

Authorization required, but no authorization protocol specified

Authorization required, but no authorization protocol specified

Authorization required, but no authorization protocol specified

Authorization required, but no authorization protocol specified

Authorization required, but no authorization protocol specified

Authorization required, but no authorization protocol specified

Authorization required, but no authorization protocol specified

Authorization required, but no authorization protocol specified

Authorization required, but no authorization protocol specified

Authorization required, but no authorization protocol specified

Authorization required, but no authorization protocol specified

Authorization required, but no authorization protocol specified

Authorization required, but no authorization protocol specified

Authorization required, but no authorization protocol specified

Authorization required, but no authorization protocol specified

Authorization required, but no authorization protocol specified

Authorization required, but no authorization protocol specified

Authorization required, but no authorization protocol specified

Authorization required, but no authorization protocol specified

Authorization required, but no authorization protocol specified

Authorization required, but no authorization protocol specified

Authorization required, but no authorization protocol specified

Authorization required, but no authorization protocol specified

Authorization required, but no authorization protocol specified

Authorization required, but no authorization protocol specified

Authorization required, but no authorization protocol specified

Authorization required, but no authorization protocol specified

Authorization required, but no authorization protocol specified

Authorization required, but no authorization protocol specified

Authorization required, but no authorization protocol specified

Authorization required, but no authorization protocol specified

Authorization required, but no authorization protocol specified

Authorization required, but no authorization protocol specified


     Program PWSCF v.7.2 starts on 22Jul2025 at 20:19:49 

     This program is part of the open-source Quantum ESPRESSO suite
     for quantum simulation of materials; please cite
         "P. Giannozzi et al., J. Phys.:Condens. Matter 21 395502 (2009);
         "P. Giannozzi et al., J. Phys.:Condens. Matter 29 465901 (2017);
         "P. Giannozzi et al., J. Chem. Phys. 152 154105 (2020);
          URL http://www.quantum-espresso.org", 
     in publications or presentations arising from this work. More details at
     http://www.quantum-espresso.org/quote

     Parallel version (MPI), running on    32 processors

     MPI processes distributed on     1 nodes
     79930 MiB available memory on the printing compute node when the environment starts

     Reading input from /home/jvc/QEspresso7.2/ZnO_database/scripts/cell312.in/ZnO-3.27-1.58-312.in
Warning: card &CELL ignored
Warning: card / ignored
Warning: card &FCP ignored
Warning: card / ignored
Warning: card &RISM ignored
Warning: card / ignored

     Current dimensions of program PWSCF are:
     Max number of different atomic species (ntypx) = 10
     Max number of k-points (npk) =  40000
     Max angular momentum in pseudopotentials (lmaxx) =  4
     file Zn.upf: wavefunction(s)  3D renormalized
     Found identity + (  0.0000  0.0000  0.5000) symmetry
     This is a supercell, fractional translations are disabled
     Message from routine setup:
     using ibrav=0 with symmetry is DISCOURAGED, use correct ibrav instead

     K-points division:     npool     =       8
     R & G space division:  proc/nbgrp/npool/nimage =       4
     Subspace diagonalization in iterative solution of the eigenvalue problem:
     a serial algorithm will be used


     Parallelization info
     --------------------
     sticks:   dense  smooth     PW     G-vecs:    dense   smooth      PW
     Min         787     393    115                66833    23593    3775
     Max         789     394    116                66835    23594    3780
     Sum        3153    1573    461               267335    94373   15109

     Using Slab Decomposition



     bravais-lattice index     =            0
     lattice parameter (alat)  =      18.5365  a.u.
     unit-cell volume          =    1978.7861 (a.u.)^3
     number of atoms/cell      =           24
     number of atomic types    =            2
     number of electrons       =       216.00
     number of Kohn-Sham states=          108
     kinetic-energy cutoff     =      50.0000  Ry
     charge density cutoff     =     400.0000  Ry
     scf convergence threshold =      1.0E-08
     mixing beta               =       0.3000
     number of iterations used =            8  plain     mixing
     Exchange-correlation= PBE
                           (   1   4   3   4   0   0   0)

     celldm(1)=  18.536466  celldm(2)=   0.000000  celldm(3)=   0.000000
     celldm(4)=   0.000000  celldm(5)=   0.000000  celldm(6)=   0.000000

     crystal axes: (cart. coord. in units of alat)
               a(1) = (   1.000000   0.000000   0.000000 )  
               a(2) = (  -0.166667   0.288675   0.000000 )  
               a(3) = (   0.000000   0.000000   1.076239 )  

     reciprocal axes: (cart. coord. in units 2 pi/alat)
               b(1) = (  1.000000  0.577350 -0.000000 )  
               b(2) = (  0.000000  3.464102  0.000000 )  
               b(3) = (  0.000000 -0.000000  0.929162 )  


     PseudoPot. # 1 for Zn read from file:
     /home/jvc/QEspresso7.2/ZnO_database/pseudos/Zn.upf
     MD5 check sum: 7f56cabf9682ed8c977c2f7d0c5985c5
     Pseudo is Ultrasoft + core correction, Zval = 12.0
     Generated using &quot;atomic&quot; code by A. Dal Corso  v.6.2.2
     Using radial grid of 1201 points,  6 beta functions with: 
                l(1) =   0
                l(2) =   0
                l(3) =   1
                l(4) =   1
                l(5) =   2
                l(6) =   2
     Q(r) pseudized with 0 coefficients 


     PseudoPot. # 2 for O  read from file:
     /home/jvc/QEspresso7.2/ZnO_database/pseudos/O.upf
     MD5 check sum: 91400c9766925bcf19f520983a725ff0
     Pseudo is Ultrasoft + core correction, Zval =  6.0
     Generated using &quot;atomic&quot; code by A. Dal Corso  v.6.3MaX
     Using radial grid of 1095 points,  4 beta functions with: 
                l(1) =   0
                l(2) =   0
                l(3) =   1
                l(4) =   1
     Q(r) pseudized with 0 coefficients 


     atomic species   valence    mass     pseudopotential
        Zn            12.00    65.38000     Zn( 1.00)
        O              6.00    15.99900     O ( 1.00)

      2 Sym. Ops. (no inversion) found


                                    s                        frac. trans.

      isym =  1     identity                                     

 cryst.   s( 1) = (     1          0          0      )
                  (     0          1          0      )
                  (     0          0          1      )

 cart.    s( 1) = (  1.0000000  0.0000000  0.0000000 )
                  (  0.0000000  1.0000000  0.0000000 )
                  (  0.0000000  0.0000000  1.0000000 )


      isym =  2     inv. 180 deg rotation - cryst. axis [0,1,0]  

 cryst.   s( 2) = (     1          3          0      )
                  (     0         -1          0      )
                  (     0          0          1      )

 cart.    s( 2) = (  0.5000000  0.8660254  0.0000000 )
                  (  0.8660254 -0.5000000  0.0000000 )
                  (  0.0000000  0.0000000  1.0000000 )


   Cartesian axes

     site n.     atom                  positions (alat units)
         1           Zn  tau(   1) = (   0.1666667   0.0962250   0.2694007  )
         2           Zn  tau(   2) = (   0.0000000   0.1924501   0.0003409  )
         3           O   tau(   3) = (   0.1666667   0.0962250   0.4733710  )
         4           O   tau(   4) = (   0.0000000   0.1924501   0.2043113  )
         5           Zn  tau(   5) = (   0.1666667   0.0962250   0.8075201  )
         6           Zn  tau(   6) = (   0.0000000   0.1924501   0.5384604  )
         7           O   tau(   7) = (   0.1666667   0.0962250   1.0114904  )
         8           O   tau(   8) = (   0.0000000   0.1924501   0.7424307  )
         9           Zn  tau(   9) = (   0.5000000   0.0962250   0.2694007  )
        10           Zn  tau(  10) = (   0.3333333   0.1924501   0.0003409  )
        11           O   tau(  11) = (   0.5000000   0.0962250   0.4733710  )
        12           O   tau(  12) = (   0.3333333   0.1924501   0.2043113  )
        13           Zn  tau(  13) = (   0.5000000   0.0962250   0.8075201  )
        14           Zn  tau(  14) = (   0.3333333   0.1924501   0.5384604  )
        15           O   tau(  15) = (   0.5000000   0.0962250   1.0114904  )
        16           O   tau(  16) = (   0.3333333   0.1924501   0.7424307  )
        17           Zn  tau(  17) = (   0.8333333   0.0962250   0.2694007  )
        18           Zn  tau(  18) = (   0.6666667   0.1924501   0.0003409  )
        19           O   tau(  19) = (   0.8333333   0.0962250   0.4733710  )
        20           O   tau(  20) = (   0.6666667   0.1924501   0.2043113  )
        21           Zn  tau(  21) = (   0.8333333   0.0962250   0.8075201  )
        22           Zn  tau(  22) = (   0.6666667   0.1924501   0.5384604  )
        23           O   tau(  23) = (   0.8333333   0.0962250   1.0114904  )
        24           O   tau(  24) = (   0.6666667   0.1924501   0.7424307  )

   Crystallographic axes

     site n.     atom                  positions (cryst. coord.)
         1           Zn  tau(   1) = (  0.2222222  0.3333333  0.2503168  )
         2           Zn  tau(   2) = (  0.1111111  0.6666667  0.0003168  )
         3           O   tau(   3) = (  0.2222222  0.3333333  0.4398382  )
         4           O   tau(   4) = (  0.1111111  0.6666667  0.1898382  )
         5           Zn  tau(   5) = (  0.2222222  0.3333333  0.7503168  )
         6           Zn  tau(   6) = (  0.1111111  0.6666667  0.5003168  )
         7           O   tau(   7) = (  0.2222222  0.3333333  0.9398382  )
         8           O   tau(   8) = (  0.1111111  0.6666667  0.6898382  )
         9           Zn  tau(   9) = (  0.5555556  0.3333333  0.2503168  )
        10           Zn  tau(  10) = (  0.4444444  0.6666667  0.0003168  )
        11           O   tau(  11) = (  0.5555556  0.3333333  0.4398382  )
        12           O   tau(  12) = (  0.4444444  0.6666667  0.1898382  )
        13           Zn  tau(  13) = (  0.5555556  0.3333333  0.7503168  )
        14           Zn  tau(  14) = (  0.4444444  0.6666667  0.5003168  )
        15           O   tau(  15) = (  0.5555556  0.3333333  0.9398382  )
        16           O   tau(  16) = (  0.4444444  0.6666667  0.6898382  )
        17           Zn  tau(  17) = (  0.8888889  0.3333333  0.2503168  )
        18           Zn  tau(  18) = (  0.7777778  0.6666667  0.0003168  )
        19           O   tau(  19) = (  0.8888889  0.3333333  0.4398382  )
        20           O   tau(  20) = (  0.7777778  0.6666667  0.1898382  )
        21           Zn  tau(  21) = (  0.8888889  0.3333333  0.7503168  )
        22           Zn  tau(  22) = (  0.7777778  0.6666667  0.5003168  )
        23           O   tau(  23) = (  0.8888889  0.3333333  0.9398382  )
        24           O   tau(  24) = (  0.7777778  0.6666667  0.6898382  )

     number of k points=    13
                       cart. coord. in units 2pi/alat
        k(    1) = (   0.0000000   0.0000000   0.0000000), wk =   0.0555556
        k(    2) = (   0.0000000   0.0000000   0.3097206), wk =   0.1111111
        k(    3) = (   0.0000000   0.5773503   0.0000000), wk =   0.2222222
        k(    4) = (   0.0000000   0.5773503   0.3097206), wk =   0.2222222
        k(    5) = (   0.0000000   1.1547005   0.0000000), wk =   0.1111111
        k(    6) = (   0.0000000   1.1547005   0.3097206), wk =   0.2222222
        k(    7) = (   0.0000000  -1.7320508   0.0000000), wk =   0.1111111
        k(    8) = (   0.0000000  -1.7320508   0.3097206), wk =   0.2222222
        k(    9) = (  -0.5000000  -0.2886751   0.0000000), wk =   0.0555556
        k(   10) = (  -0.5000000  -0.2886751   0.3097206), wk =   0.1111111
        k(   11) = (  -0.5000000   0.8660254   0.0000000), wk =   0.1111111
        k(   12) = (  -0.5000000   0.8660254   0.3097206), wk =   0.2222222
        k(   13) = (   0.5000000  -0.2886751  -0.3097206), wk =   0.2222222

                       cryst. coord.
        k(    1) = (   0.0000000   0.0000000   0.0000000), wk =   0.0555556
        k(    2) = (   0.0000000   0.0000000   0.3333333), wk =   0.1111111
        k(    3) = (   0.0000000   0.1666667   0.0000000), wk =   0.2222222
        k(    4) = (   0.0000000   0.1666667   0.3333333), wk =   0.2222222
        k(    5) = (   0.0000000   0.3333333   0.0000000), wk =   0.1111111
        k(    6) = (   0.0000000   0.3333333   0.3333333), wk =   0.2222222
        k(    7) = (   0.0000000  -0.5000000   0.0000000), wk =   0.1111111
        k(    8) = (   0.0000000  -0.5000000   0.3333333), wk =   0.2222222
        k(    9) = (  -0.5000000   0.0000000   0.0000000), wk =   0.0555556
        k(   10) = (  -0.5000000   0.0000000   0.3333333), wk =   0.1111111
        k(   11) = (  -0.5000000   0.3333333   0.0000000), wk =   0.1111111
        k(   12) = (  -0.5000000   0.3333333   0.3333333), wk =   0.2222222
        k(   13) = (   0.5000000  -0.1666667  -0.3333333), wk =   0.2222222

     Dense  grid:   267335 G-vectors     FFT dimensions: ( 120,  40, 128)

     Smooth grid:    94373 G-vectors     FFT dimensions: (  90,  27,  90)

     Dynamical RAM for                 wfc:       4.87 MB

     Dynamical RAM for     wfc (w. buffer):      14.60 MB

     Dynamical RAM for           str. fact:       2.04 MB

     Dynamical RAM for           local pot:       0.00 MB

     Dynamical RAM for          nlocal pot:      14.06 MB

     Dynamical RAM for                qrad:       3.21 MB

     Dynamical RAM for          rho,v,vnew:       6.58 MB

     Dynamical RAM for               rhoin:       2.19 MB

     Dynamical RAM for            rho*nmix:      16.32 MB

     Dynamical RAM for           G-vectors:       4.00 MB

     Dynamical RAM for          h,s,v(r/c):       2.14 MB

     Dynamical RAM for          <psi|beta>:       0.51 MB

     Dynamical RAM for                 psi:       9.73 MB

     Dynamical RAM for                hpsi:       9.73 MB

     Dynamical RAM for                spsi:       9.73 MB

     Dynamical RAM for      wfcinit/wfcrot:      14.62 MB

     Dynamical RAM for           addusdens:      26.13 MB

     Dynamical RAM for          addusforce:      28.60 MB

     Estimated static dynamical RAM per process >      55.60 MB

     Estimated max dynamical RAM per process >     103.76 MB

     Estimated total dynamical RAM >       2.80 GB

     Check: negative core charge=   -0.000002

     Initial potential from superposition of free atoms

     starting charge     215.9553, renormalised to     216.0000
     Starting wfcs are  156 randomized atomic wfcs

     total cpu time spent up to now is       10.2 secs

     Self-consistent Calculation

     iteration #  1     ecut=    50.00 Ry     beta= 0.30
     Davidson diagonalization with overlap

---- Real-time Memory Report at c_bands before calling an iterative solver
           102 MiB given to the printing process from OS
             0 MiB allocation reported by mallinfo(arena+hblkhd)
         77431 MiB available memory on the node where the printing process lives
------------------
     ethr =  1.00E-02,  avg # of iterations =  2.0

     total cpu time spent up to now is       14.9 secs

     total energy              =   -2168.87930138 Ry
     estimated scf accuracy    <       4.14160316 Ry

     iteration #  2     ecut=    50.00 Ry     beta= 0.30
     Davidson diagonalization with overlap

---- Real-time Memory Report at c_bands before calling an iterative solver
           126 MiB given to the printing process from OS
             0 MiB allocation reported by mallinfo(arena+hblkhd)
         76684 MiB available memory on the node where the printing process lives
------------------
     ethr =  1.92E-03,  avg # of iterations =  2.0

     total cpu time spent up to now is       20.5 secs

     total energy              =   -2169.47606623 Ry
     estimated scf accuracy    <       0.52802311 Ry

     iteration #  3     ecut=    50.00 Ry     beta= 0.30
     Davidson diagonalization with overlap

---- Real-time Memory Report at c_bands before calling an iterative solver
           131 MiB given to the printing process from OS
             0 MiB allocation reported by mallinfo(arena+hblkhd)
         76698 MiB available memory on the node where the printing process lives
------------------
     ethr =  2.44E-04,  avg # of iterations =  7.5

     total cpu time spent up to now is       30.6 secs

     total energy              =   -2169.67989005 Ry
     estimated scf accuracy    <       0.31809954 Ry

     iteration #  4     ecut=    50.00 Ry     beta= 0.30
     Davidson diagonalization with overlap

---- Real-time Memory Report at c_bands before calling an iterative solver
           131 MiB given to the printing process from OS
             0 MiB allocation reported by mallinfo(arena+hblkhd)
         76744 MiB available memory on the node where the printing process lives
------------------
     ethr =  1.47E-04,  avg # of iterations =  8.7

     total cpu time spent up to now is       42.7 secs

     total energy              =   -2169.86055696 Ry
     estimated scf accuracy    <       1.17393803 Ry

     iteration #  5     ecut=    50.00 Ry     beta= 0.30
     Davidson diagonalization with overlap

---- Real-time Memory Report at c_bands before calling an iterative solver
           132 MiB given to the printing process from OS
             0 MiB allocation reported by mallinfo(arena+hblkhd)
         76749 MiB available memory on the node where the printing process lives
------------------
     ethr =  1.47E-04,  avg # of iterations =  2.0

     total cpu time spent up to now is       47.4 secs

     total energy              =   -2169.36351601 Ry
     estimated scf accuracy    <       0.64327997 Ry

     iteration #  6     ecut=    50.00 Ry     beta= 0.30
     Davidson diagonalization with overlap

---- Real-time Memory Report at c_bands before calling an iterative solver
           133 MiB given to the printing process from OS
             0 MiB allocation reported by mallinfo(arena+hblkhd)
         76745 MiB available memory on the node where the printing process lives
------------------
     ethr =  1.47E-04,  avg # of iterations = 11.5

     total cpu time spent up to now is       61.9 secs

     total energy              =   -2169.19080662 Ry
     estimated scf accuracy    <       6.14149924 Ry

     iteration #  7     ecut=    50.00 Ry     beta= 0.30
     Davidson diagonalization with overlap

---- Real-time Memory Report at c_bands before calling an iterative solver
           134 MiB given to the printing process from OS
             0 MiB allocation reported by mallinfo(arena+hblkhd)
         76744 MiB available memory on the node where the printing process lives
------------------
     ethr =  1.47E-04,  avg # of iterations = 10.0

     total cpu time spent up to now is       74.6 secs

     total energy              =   -2169.81048875 Ry
     estimated scf accuracy    <       0.31162691 Ry

     iteration #  8     ecut=    50.00 Ry     beta= 0.30
     Davidson diagonalization with overlap

---- Real-time Memory Report at c_bands before calling an iterative solver
           134 MiB given to the printing process from OS
             0 MiB allocation reported by mallinfo(arena+hblkhd)
         76740 MiB available memory on the node where the printing process lives
------------------
     ethr =  1.44E-04,  avg # of iterations =  2.0

     total cpu time spent up to now is       79.2 secs

     total energy              =   -2169.80339684 Ry
     estimated scf accuracy    <       0.17528660 Ry

     iteration #  9     ecut=    50.00 Ry     beta= 0.30
     Davidson diagonalization with overlap

---- Real-time Memory Report at c_bands before calling an iterative solver
           135 MiB given to the printing process from OS
             0 MiB allocation reported by mallinfo(arena+hblkhd)
         76735 MiB available memory on the node where the printing process lives
------------------
     ethr =  8.12E-05,  avg # of iterations =  2.0

     total cpu time spent up to now is       84.2 secs

     total energy              =   -2169.78503053 Ry
     estimated scf accuracy    <       0.09554196 Ry

     iteration # 10     ecut=    50.00 Ry     beta= 0.30
     Davidson diagonalization with overlap

---- Real-time Memory Report at c_bands before calling an iterative solver
           136 MiB given to the printing process from OS
             0 MiB allocation reported by mallinfo(arena+hblkhd)
         76734 MiB available memory on the node where the printing process lives
------------------
     ethr =  4.42E-05,  avg # of iterations =  6.8

     total cpu time spent up to now is       91.7 secs

     total energy              =   -2169.81926019 Ry
     estimated scf accuracy    <       0.00011442 Ry

     iteration # 11     ecut=    50.00 Ry     beta= 0.30
     Davidson diagonalization with overlap

---- Real-time Memory Report at c_bands before calling an iterative solver
           137 MiB given to the printing process from OS
             0 MiB allocation reported by mallinfo(arena+hblkhd)
         76730 MiB available memory on the node where the printing process lives
------------------
     c_bands:  5 eigenvalues not converged
     c_bands:  1 eigenvalues not converged
     ethr =  5.30E-08,  avg # of iterations = 14.8

     total cpu time spent up to now is      109.5 secs

     total energy              =   -2169.82072064 Ry
     estimated scf accuracy    <       0.00106190 Ry

     iteration # 12     ecut=    50.00 Ry     beta= 0.30
     Davidson diagonalization with overlap

---- Real-time Memory Report at c_bands before calling an iterative solver
           137 MiB given to the printing process from OS
             0 MiB allocation reported by mallinfo(arena+hblkhd)
         76730 MiB available memory on the node where the printing process lives
------------------
     c_bands:  1 eigenvalues not converged
     ethr =  5.30E-08,  avg # of iterations = 14.2

     total cpu time spent up to now is      127.4 secs

     total energy              =   -2169.82243622 Ry
     estimated scf accuracy    <       0.00456946 Ry

     iteration # 13     ecut=    50.00 Ry     beta= 0.30
     Davidson diagonalization with overlap

---- Real-time Memory Report at c_bands before calling an iterative solver
           137 MiB given to the printing process from OS
             0 MiB allocation reported by mallinfo(arena+hblkhd)
         76730 MiB available memory on the node where the printing process lives
------------------
     ethr =  5.30E-08,  avg # of iterations =  1.1

     total cpu time spent up to now is      131.7 secs

     total energy              =   -2169.82167029 Ry
     estimated scf accuracy    <       0.00444981 Ry

     iteration # 14     ecut=    50.00 Ry     beta= 0.30
     Davidson diagonalization with overlap

---- Real-time Memory Report at c_bands before calling an iterative solver
           137 MiB given to the printing process from OS
             0 MiB allocation reported by mallinfo(arena+hblkhd)
         76730 MiB available memory on the node where the printing process lives
------------------
     ethr =  5.30E-08,  avg # of iterations =  8.2

     total cpu time spent up to now is      142.4 secs

     total energy              =   -2169.82143166 Ry
     estimated scf accuracy    <       0.00189580 Ry

     iteration # 15     ecut=    50.00 Ry     beta= 0.30
     Davidson diagonalization with overlap

---- Real-time Memory Report at c_bands before calling an iterative solver
           137 MiB given to the printing process from OS
             0 MiB allocation reported by mallinfo(arena+hblkhd)
         76730 MiB available memory on the node where the printing process lives
------------------
     ethr =  5.30E-08,  avg # of iterations =  6.3

     total cpu time spent up to now is      150.7 secs

     total energy              =   -2169.82124692 Ry
     estimated scf accuracy    <       0.00074756 Ry

     iteration # 16     ecut=    50.00 Ry     beta= 0.30
     Davidson diagonalization with overlap

---- Real-time Memory Report at c_bands before calling an iterative solver
           137 MiB given to the printing process from OS
             0 MiB allocation reported by mallinfo(arena+hblkhd)
         76730 MiB available memory on the node where the printing process lives
------------------
     ethr =  5.30E-08,  avg # of iterations =  6.8

     total cpu time spent up to now is      161.0 secs

     total energy              =   -2169.82132811 Ry
     estimated scf accuracy    <       0.00005071 Ry

     iteration # 17     ecut=    50.00 Ry     beta= 0.30
     Davidson diagonalization with overlap

---- Real-time Memory Report at c_bands before calling an iterative solver
           137 MiB given to the printing process from OS
             0 MiB allocation reported by mallinfo(arena+hblkhd)
         76729 MiB available memory on the node where the printing process lives
------------------
     ethr =  2.35E-08,  avg # of iterations =  3.2

     total cpu time spent up to now is      165.9 secs

     total energy              =   -2169.82130946 Ry
     estimated scf accuracy    <       0.00003201 Ry

     iteration # 18     ecut=    50.00 Ry     beta= 0.30
     Davidson diagonalization with overlap

---- Real-time Memory Report at c_bands before calling an iterative solver
           137 MiB given to the printing process from OS
             0 MiB allocation reported by mallinfo(arena+hblkhd)
         76729 MiB available memory on the node where the printing process lives
------------------
     ethr =  1.48E-08,  avg # of iterations =  7.5

     total cpu time spent up to now is      176.1 secs

     total energy              =   -2169.82132737 Ry
     estimated scf accuracy    <       0.00002536 Ry

     iteration # 19     ecut=    50.00 Ry     beta= 0.30
     Davidson diagonalization with overlap

---- Real-time Memory Report at c_bands before calling an iterative solver
           137 MiB given to the printing process from OS
             0 MiB allocation reported by mallinfo(arena+hblkhd)
         76729 MiB available memory on the node where the printing process lives
------------------
     ethr =  1.17E-08,  avg # of iterations =  1.4

     total cpu time spent up to now is      180.6 secs

     total energy              =   -2169.82132168 Ry
     estimated scf accuracy    <       0.00001152 Ry

     iteration # 20     ecut=    50.00 Ry     beta= 0.30
     Davidson diagonalization with overlap

---- Real-time Memory Report at c_bands before calling an iterative solver
           137 MiB given to the printing process from OS
             0 MiB allocation reported by mallinfo(arena+hblkhd)
         76729 MiB available memory on the node where the printing process lives
------------------
     ethr =  5.33E-09,  avg # of iterations =  5.5

     total cpu time spent up to now is      188.8 secs

     total energy              =   -2169.82132652 Ry
     estimated scf accuracy    <       0.00000313 Ry

     iteration # 21     ecut=    50.00 Ry     beta= 0.30
     Davidson diagonalization with overlap

---- Real-time Memory Report at c_bands before calling an iterative solver
           137 MiB given to the printing process from OS
             0 MiB allocation reported by mallinfo(arena+hblkhd)
         76729 MiB available memory on the node where the printing process lives
------------------
     ethr =  1.45E-09,  avg # of iterations =  5.4

     total cpu time spent up to now is      195.4 secs

     total energy              =   -2169.82132743 Ry
     estimated scf accuracy    <       0.00000003 Ry

     iteration # 22     ecut=    50.00 Ry     beta= 0.30
     Davidson diagonalization with overlap

---- Real-time Memory Report at c_bands before calling an iterative solver
           137 MiB given to the printing process from OS
             0 MiB allocation reported by mallinfo(arena+hblkhd)
         76729 MiB available memory on the node where the printing process lives
------------------
     ethr =  1.33E-11,  avg # of iterations = 12.9

     total cpu time spent up to now is      211.9 secs

     total energy              =   -2169.82132744 Ry
     estimated scf accuracy    <       0.00000117 Ry

     iteration # 23     ecut=    50.00 Ry     beta= 0.30
     Davidson diagonalization with overlap

---- Real-time Memory Report at c_bands before calling an iterative solver
           137 MiB given to the printing process from OS
             0 MiB allocation reported by mallinfo(arena+hblkhd)
         76729 MiB available memory on the node where the printing process lives
------------------
     ethr =  1.33E-11,  avg # of iterations =  9.8

     total cpu time spent up to now is      224.7 secs

     total energy              =   -2169.82132743 Ry
     estimated scf accuracy    <       0.00000022 Ry

     iteration # 24     ecut=    50.00 Ry     beta= 0.30
     Davidson diagonalization with overlap

---- Real-time Memory Report at c_bands before calling an iterative solver
           137 MiB given to the printing process from OS
             0 MiB allocation reported by mallinfo(arena+hblkhd)
         76729 MiB available memory on the node where the printing process lives
------------------
     ethr =  1.33E-11,  avg # of iterations =  8.1

     total cpu time spent up to now is      235.6 secs

     End of self-consistent calculation

          k = 0.0000 0.0000 0.0000 ( 11795 PWs)   bands (ev):

   -10.9985 -10.6675 -10.6675 -10.5471 -10.5471 -10.3487 -10.3487 -10.3487
   -10.3487 -10.3183 -10.1575 -10.1575   0.9620   0.9620   0.9620   0.9620
     1.0419   1.0419   1.1297   1.1297   1.3159   1.3159   1.3565   1.3780
     1.3780   1.3852   1.3852   1.3852   1.3852   1.4392   1.5014   1.5014
     1.5195   1.5196   1.6841   1.6841   1.6841   1.6841   1.6874   1.6874
     1.6874   1.6874   1.7197   1.7197   1.9005   1.9005   2.0312   2.0312
     2.3484   2.3484   2.4282   2.4282   2.4988   2.4988   2.5468   2.5468
     2.5468   2.5468   2.5702   2.5702   2.5702   2.5702   2.5851   2.5851
     2.5851   2.5851   2.6248   2.6248   2.6552   2.6552   2.8131   2.8131
     2.8918   3.0837   3.0838   3.7941   3.7941   3.8757   3.8757   3.8757
     3.8757   4.6506   4.6506   4.6600   4.6600   5.0972   5.0972   5.5303
     5.5303   5.5303   5.5303   5.7224   5.7224   5.7224   5.7224   6.0930
     6.0930   6.1250   6.1250   6.3015   6.3015   6.5108   6.5108   6.5108
     6.5108   6.8049   6.8873   6.8873

     occupation numbers 
     1.0000   1.0000   1.0000   1.0000   1.0000   1.0000   1.0000   1.0000
     1.0000   1.0000   1.0000   1.0000   1.0000   1.0000   1.0000   1.0000
     1.0000   1.0000   1.0000   1.0000   1.0000   1.0000   1.0000   1.0000
     1.0000   1.0000   1.0000   1.0000   1.0000   1.0000   1.0000   1.0000
     1.0000   1.0000   1.0000   1.0000   1.0000   1.0000   1.0000   1.0000
     1.0000   1.0000   1.0000   1.0000   1.0000   1.0000   1.0000   1.0000
     1.0000   1.0000   1.0000   1.0000   1.0000   1.0000   1.0000   1.0000
     1.0000   1.0000   1.0000   1.0000   1.0000   1.0000   1.0000   1.0000
     1.0000   1.0000   1.0000   1.0000   1.0000   1.0000   1.0000   1.0000
     1.0000   1.0000   1.0000   1.0000   1.0000   1.0000   1.0000   1.0000
     1.0000   1.0000   1.0000   1.0000   1.0000   1.0000   1.0000   1.0000
     1.0000   1.0000   1.0000   1.0000   1.0000   1.0000   1.0000   1.0000
     1.0000   1.0000   1.0000   1.0000   1.0000   1.0000   1.0000   1.0000
     1.0000   1.0000   1.0000   1.0000

          k = 0.0000 0.0000 0.3097 ( 11753 PWs)   bands (ev):

   -10.9552 -10.8352 -10.5202 -10.5202 -10.4952 -10.4472 -10.4472 -10.3662
   -10.2520 -10.2520 -10.1826 -10.1826   0.9558   0.9558   1.0113   1.0113
     1.0906   1.0906   1.1614   1.2062   1.2878   1.2878   1.3102   1.3169
     1.3225   1.3225   1.3450   1.3450   1.4366   1.4366   1.4826   1.4826
     1.5395   1.5395   1.5967   1.5967   1.6673   1.6673   1.6945   1.6945
     1.7583   1.7583   1.7846   1.7846   1.8679   1.8679   1.8969   1.8969
     2.3853   2.3853   2.4460   2.4460   2.4787   2.4787   2.4918   2.4918
     2.5083   2.5083   2.5339   2.5339   2.5918   2.5918   2.6097   2.6097
     2.6172   2.6172   2.6425   2.6425   2.6819   2.6819   2.7606   2.7606
     3.2007   3.3424   3.3424   3.6415   3.6415   3.8753   3.9351   3.9351
     4.0473   4.0473   4.6229   4.6229   4.9083   4.9083   5.1856   5.1856
     5.4185   5.4185   5.4566   5.9792   5.9792   6.0154   6.0154   6.1084
     6.1084   6.1771   6.1771   6.2254   6.2254   6.2429   6.3189   6.3189
     6.7003   6.7003   6.8374   6.8374

     occupation numbers 
     1.0000   1.0000   1.0000   1.0000   1.0000   1.0000   1.0000   1.0000
     1.0000   1.0000   1.0000   1.0000   1.0000   1.0000   1.0000   1.0000
     1.0000   1.0000   1.0000   1.0000   1.0000   1.0000   1.0000   1.0000
     1.0000   1.0000   1.0000   1.0000   1.0000   1.0000   1.0000   1.0000
     1.0000   1.0000   1.0000   1.0000   1.0000   1.0000   1.0000   1.0000
     1.0000   1.0000   1.0000   1.0000   1.0000   1.0000   1.0000   1.0000
     1.0000   1.0000   1.0000   1.0000   1.0000   1.0000   1.0000   1.0000
     1.0000   1.0000   1.0000   1.0000   1.0000   1.0000   1.0000   1.0000
     1.0000   1.0000   1.0000   1.0000   1.0000   1.0000   1.0000   1.0000
     1.0000   1.0000   1.0000   1.0000   1.0000   1.0000   1.0000   1.0000
     1.0000   1.0000   1.0000   1.0000   1.0000   1.0000   1.0000   1.0000
     1.0000   1.0000   1.0000   1.0000   1.0000   1.0000   1.0000   1.0000
     1.0000   1.0000   1.0000   1.0000   1.0000   1.0000   1.0000   1.0000
     1.0000   1.0000   1.0000   1.0000

          k = 0.0000 0.5774 0.0000 ( 11805 PWs)   bands (ev):

   -10.8594 -10.6323 -10.5637 -10.5637 -10.4039 -10.4039 -10.3568 -10.2582
   -10.2392 -10.2392 -10.1783 -10.1368   1.0209   1.0209   1.0549   1.0549
     1.0856   1.0856   1.1448   1.1787   1.2098   1.3347   1.3939   1.4175
     1.4529   1.4697   1.4697   1.4827   1.4827   1.4978   1.5272   1.5328
     1.5328   1.5839   1.5845   1.6182   1.6623   1.6623   1.6647   1.6781
     1.6781   1.7926   1.8373   1.8597   1.8597   1.9688   2.0460   2.1149
     2.3226   2.3719   2.4055   2.4269   2.4473   2.4731   2.5440   2.5440
     2.5485   2.5485   2.5519   2.5519   2.5532   2.5532   2.5835   2.5835
     2.6359   2.6485   2.6836   2.7390   2.7390   2.7479   2.8198   2.8614
     2.8732   3.0203   3.0747   3.4275   3.4275   3.6813   4.1030   4.2135
     4.2135   4.4220   4.4226   4.6007   4.6007   4.6354   4.9298   4.9298
     5.2256   5.2290   5.5300   5.5300   5.6134   5.6422   5.6422   5.7236
     5.7236   5.7793   5.7884   5.7975   5.9119   5.9119   6.2536   6.2536
     6.2536   6.2863   6.6255   6.7029

     occupation numbers 
     1.0000   1.0000   1.0000   1.0000   1.0000   1.0000   1.0000   1.0000
     1.0000   1.0000   1.0000   1.0000   1.0000   1.0000   1.0000   1.0000
     1.0000   1.0000   1.0000   1.0000   1.0000   1.0000   1.0000   1.0000
     1.0000   1.0000   1.0000   1.0000   1.0000   1.0000   1.0000   1.0000
     1.0000   1.0000   1.0000   1.0000   1.0000   1.0000   1.0000   1.0000
     1.0000   1.0000   1.0000   1.0000   1.0000   1.0000   1.0000   1.0000
     1.0000   1.0000   1.0000   1.0000   1.0000   1.0000   1.0000   1.0000
     1.0000   1.0000   1.0000   1.0000   1.0000   1.0000   1.0000   1.0000
     1.0000   1.0000   1.0000   1.0000   1.0000   1.0000   1.0000   1.0000
     1.0000   1.0000   1.0000   1.0000   1.0000   1.0000   1.0000   1.0000
     1.0000   1.0000   1.0000   1.0000   1.0000   1.0000   1.0000   1.0000
     1.0000   1.0000   1.0000   1.0000   1.0000   1.0000   1.0000   1.0000
     1.0000   1.0000   1.0000   1.0000   1.0000   1.0000   1.0000   1.0000
     1.0000   1.0000   1.0000   1.0000

          k = 0.0000 0.5774 0.3097 ( 11800 PWs)   bands (ev):

   -10.8204 -10.7129 -10.6016 -10.5179 -10.4121 -10.3402 -10.2997 -10.2962
   -10.2905 -10.2082 -10.1859 -10.1496   1.0368   1.0820   1.1038   1.1086
     1.1268   1.1443   1.1496   1.1780   1.1968   1.2850   1.3367   1.3762
     1.4035   1.4331   1.4425   1.4548   1.5169   1.5188   1.5220   1.5381
     1.5437   1.5573   1.5637   1.5839   1.5905   1.5969   1.6853   1.7338
     1.7417   1.7730   1.8092   1.8094   1.8904   1.9133   1.9824   2.0290
     2.3643   2.4014   2.4172   2.4440   2.4609   2.4695   2.4789   2.4884
     2.4958   2.5183   2.5393   2.5677   2.5935   2.6056   2.6172   2.6256
     2.6364   2.6725   2.6725   2.6804   2.6913   2.7501   2.8116   2.8696
     3.1154   3.2560   3.2568   3.3752   3.5916   3.6971   3.8659   3.9342
     4.2091   4.4657   4.5349   4.5550   4.6101   4.6167   4.9825   5.0817
     5.1229   5.2327   5.2750   5.3663   5.3813   5.5972   5.5974   5.6314
     5.7986   5.8447   5.8519   5.9569   6.0234   6.0904   6.1732   6.2738
     6.2837   6.4800   6.5472   6.6435

     occupation numbers 
     1.0000   1.0000   1.0000   1.0000   1.0000   1.0000   1.0000   1.0000
     1.0000   1.0000   1.0000   1.0000   1.0000   1.0000   1.0000   1.0000
     1.0000   1.0000   1.0000   1.0000   1.0000   1.0000   1.0000   1.0000
     1.0000   1.0000   1.0000   1.0000   1.0000   1.0000   1.0000   1.0000
     1.0000   1.0000   1.0000   1.0000   1.0000   1.0000   1.0000   1.0000
     1.0000   1.0000   1.0000   1.0000   1.0000   1.0000   1.0000   1.0000
     1.0000   1.0000   1.0000   1.0000   1.0000   1.0000   1.0000   1.0000
     1.0000   1.0000   1.0000   1.0000   1.0000   1.0000   1.0000   1.0000
     1.0000   1.0000   1.0000   1.0000   1.0000   1.0000   1.0000   1.0000
     1.0000   1.0000   1.0000   1.0000   1.0000   1.0000   1.0000   1.0000
     1.0000   1.0000   1.0000   1.0000   1.0000   1.0000   1.0000   1.0000
     1.0000   1.0000   1.0000   1.0000   1.0000   1.0000   1.0000   1.0000
     1.0000   1.0000   1.0000   1.0000   1.0000   1.0000   1.0000   1.0000
     1.0000   1.0000   1.0000   1.0000

          k = 0.0000 1.1547 0.0000 ( 11855 PWs)   bands (ev):

   -10.5471 -10.5471 -10.3487 -10.3487 -10.3487 -10.3487 -10.1944 -10.1944
   -10.1849 -10.1849 -10.1575 -10.1575   0.9620   0.9620   0.9620   0.9620
     1.0419   1.0419   1.2800   1.3212   1.3212   1.3780   1.3780   1.5196
     1.5196   1.5305   1.5305   1.6688   1.6688   1.6841   1.6841   1.6841
     1.6841   1.6874   1.6874   1.6874   1.6874   1.7197   1.7197   1.9005
     1.9005   2.0258   2.0312   2.0312   2.0556   2.0556   2.2690   2.2690
     2.3484   2.3484   2.3627   2.4346   2.4346   2.4858   2.4988   2.4988
     2.5316   2.5316   2.5702   2.5702   2.5702   2.5702   2.5851   2.5851
     2.5851   2.5851   2.6552   2.6552   2.8131   2.8131   2.9255   2.9255
     3.0837   3.0838   3.2410   3.2429   3.2429   3.4120   3.4120   3.7941
     3.7941   3.8757   3.8757   3.8757   3.8757   4.2827   4.2827   4.6506
     4.6506   5.0283   5.0283   5.0972   5.0972   5.2182   5.5303   5.5303
     5.5303   5.5303   5.6817   5.6817   5.7224   5.7224   5.7224   5.7224
     6.0930   6.0930   6.3015   6.3015

     occupation numbers 
     1.0000   1.0000   1.0000   1.0000   1.0000   1.0000   1.0000   1.0000
     1.0000   1.0000   1.0000   1.0000   1.0000   1.0000   1.0000   1.0000
     1.0000   1.0000   1.0000   1.0000   1.0000   1.0000   1.0000   1.0000
     1.0000   1.0000   1.0000   1.0000   1.0000   1.0000   1.0000   1.0000
     1.0000   1.0000   1.0000   1.0000   1.0000   1.0000   1.0000   1.0000
     1.0000   1.0000   1.0000   1.0000   1.0000   1.0000   1.0000   1.0000
     1.0000   1.0000   1.0000   1.0000   1.0000   1.0000   1.0000   1.0000
     1.0000   1.0000   1.0000   1.0000   1.0000   1.0000   1.0000   1.0000
     1.0000   1.0000   1.0000   1.0000   1.0000   1.0000   1.0000   1.0000
     1.0000   1.0000   1.0000   1.0000   1.0000   1.0000   1.0000   1.0000
     1.0000   1.0000   1.0000   1.0000   1.0000   1.0000   1.0000   1.0000
     1.0000   1.0000   1.0000   1.0000   1.0000   1.0000   1.0000   1.0000
     1.0000   1.0000   1.0000   1.0000   1.0000   1.0000   1.0000   1.0000
     1.0000   1.0000   1.0000   1.0000

          k = 0.0000 1.1547 0.3097 ( 11798 PWs)   bands (ev):

   -10.5202 -10.5202 -10.4472 -10.4472 -10.2520 -10.2520 -10.1920 -10.1920
   -10.1873 -10.1873 -10.1826 -10.1826   0.9558   0.9558   1.0113   1.0113
     1.0906   1.0906   1.2878   1.2878   1.3081   1.3917   1.4031   1.4031
     1.5395   1.5395   1.5787   1.5787   1.5967   1.5967   1.6673   1.6673
     1.6945   1.6945   1.7170   1.7583   1.7583   1.7846   1.7846   1.8679
     1.8679   1.8969   1.8969   1.9187   2.0771   2.0771   2.1585   2.1585
     2.3793   2.3853   2.3853   2.4065   2.4607   2.4787   2.4787   2.4792
     2.5083   2.5083   2.5339   2.5339   2.6097   2.6097   2.6425   2.6425
     2.6812   2.6812   2.6819   2.6819   2.7606   2.7606   2.8530   2.8530
     3.2872   3.2872   3.3424   3.3424   3.3685   3.3685   3.4090   3.6415
     3.6415   3.8035   3.9351   3.9351   4.0473   4.0473   4.6229   4.6229
     4.7452   4.9083   4.9083   5.0893   5.1856   5.1856   5.1982   5.1982
     5.4185   5.4185   5.5233   5.5233   5.9792   5.9792   6.0154   6.0154
     6.1084   6.1084   6.2254   6.2254

     occupation numbers 
     1.0000   1.0000   1.0000   1.0000   1.0000   1.0000   1.0000   1.0000
     1.0000   1.0000   1.0000   1.0000   1.0000   1.0000   1.0000   1.0000
     1.0000   1.0000   1.0000   1.0000   1.0000   1.0000   1.0000   1.0000
     1.0000   1.0000   1.0000   1.0000   1.0000   1.0000   1.0000   1.0000
     1.0000   1.0000   1.0000   1.0000   1.0000   1.0000   1.0000   1.0000
     1.0000   1.0000   1.0000   1.0000   1.0000   1.0000   1.0000   1.0000
     1.0000   1.0000   1.0000   1.0000   1.0000   1.0000   1.0000   1.0000
     1.0000   1.0000   1.0000   1.0000   1.0000   1.0000   1.0000   1.0000
     1.0000   1.0000   1.0000   1.0000   1.0000   1.0000   1.0000   1.0000
     1.0000   1.0000   1.0000   1.0000   1.0000   1.0000   1.0000   1.0000
     1.0000   1.0000   1.0000   1.0000   1.0000   1.0000   1.0000   1.0000
     1.0000   1.0000   1.0000   1.0000   1.0000   1.0000   1.0000   1.0000
     1.0000   1.0000   1.0000   1.0000   1.0000   1.0000   1.0000   1.0000
     1.0000   1.0000   1.0000   1.0000

          k = 0.0000-1.7321 0.0000 ( 11826 PWs)   bands (ev):

   -10.3568 -10.3568 -10.3494 -10.2392 -10.2392 -10.2392 -10.2392 -10.2372
   -10.2372 -10.1408 -10.1368 -10.1368   0.9526   0.9526   1.0856   1.0856
     1.0856   1.0856   1.1141   1.2098   1.2098   1.3230   1.4529   1.4529
     1.5609   1.5839   1.5839   1.6623   1.6623   1.6623   1.6623   1.7821
     1.7821   1.7926   1.7926   1.8586   1.8586   1.8597   1.8597   1.8597
     1.8597   1.9413   1.9538   2.0460   2.0460   2.0753   2.1149   2.1149
     2.4055   2.4055   2.4642   2.4731   2.4731   2.5532   2.5532   2.5532
     2.5532   2.5909   2.6133   2.6133   2.6705   2.6836   2.6836   2.6978
     2.6978   2.7390   2.7390   2.7390   2.7390   2.7418   2.8732   2.8732
     3.0747   3.0747   3.1878   3.1878   3.2047   3.4268   3.4275   3.4275
     3.4275   3.4275   3.6813   3.6813   4.1030   4.1030   4.1405   4.4220
     4.4220   4.7139   4.9298   4.9298   4.9298   4.9298   5.4384   5.4384
     5.5539   5.5539   5.6134   5.6134   5.6402   5.6422   5.6422   5.6422
     5.6422   5.7975   5.7975   6.0829

     occupation numbers 
     1.0000   1.0000   1.0000   1.0000   1.0000   1.0000   1.0000   1.0000
     1.0000   1.0000   1.0000   1.0000   1.0000   1.0000   1.0000   1.0000
     1.0000   1.0000   1.0000   1.0000   1.0000   1.0000   1.0000   1.0000
     1.0000   1.0000   1.0000   1.0000   1.0000   1.0000   1.0000   1.0000
     1.0000   1.0000   1.0000   1.0000   1.0000   1.0000   1.0000   1.0000
     1.0000   1.0000   1.0000   1.0000   1.0000   1.0000   1.0000   1.0000
     1.0000   1.0000   1.0000   1.0000   1.0000   1.0000   1.0000   1.0000
     1.0000   1.0000   1.0000   1.0000   1.0000   1.0000   1.0000   1.0000
     1.0000   1.0000   1.0000   1.0000   1.0000   1.0000   1.0000   1.0000
     1.0000   1.0000   1.0000   1.0000   1.0000   1.0000   1.0000   1.0000
     1.0000   1.0000   1.0000   1.0000   1.0000   1.0000   1.0000   1.0000
     1.0000   1.0000   1.0000   1.0000   1.0000   1.0000   1.0000   1.0000
     1.0000   1.0000   1.0000   1.0000   1.0000   1.0000   1.0000   1.0000
     1.0000   1.0000   1.0000   1.0000

          k = 0.0000-1.7321 0.3097 ( 11864 PWs)   bands (ev):

   -10.3402 -10.3402 -10.3335 -10.2962 -10.2962 -10.2915 -10.1869 -10.1859
   -10.1859 -10.1527 -10.1496 -10.1496   0.9825   1.0471   1.0697   1.1038
     1.1038   1.1780   1.1780   1.1968   1.1968   1.2255   1.3762   1.3762
     1.5637   1.5637   1.5839   1.5839   1.5871   1.6641   1.7338   1.7338
     1.7730   1.7730   1.8687   1.8803   1.8904   1.8904   1.9133   1.9133
     1.9133   1.9178   1.9195   1.9824   1.9824   2.0290   2.0290   2.0308
     2.4172   2.4172   2.4958   2.4958   2.5267   2.5393   2.5393   2.5677
     2.5677   2.5930   2.6003   2.6268   2.6330   2.6574   2.6804   2.6804
     2.6913   2.6913   2.7318   2.7411   2.8116   2.8116   2.8696   2.8696
     3.1154   3.1154   3.1456   3.1660   3.2568   3.2568   3.2754   3.3761
     3.5916   3.5916   3.6971   3.6971   4.2091   4.2091   4.4237   4.5349
     4.5349   4.6167   4.6167   4.8200   5.0140   5.0817   5.0817   5.0927
     5.3813   5.3813   5.5972   5.5972   5.7266   5.7658   5.7926   5.7986
     5.7986   5.8447   5.8447   5.9986

     occupation numbers 
     1.0000   1.0000   1.0000   1.0000   1.0000   1.0000   1.0000   1.0000
     1.0000   1.0000   1.0000   1.0000   1.0000   1.0000   1.0000   1.0000
     1.0000   1.0000   1.0000   1.0000   1.0000   1.0000   1.0000   1.0000
     1.0000   1.0000   1.0000   1.0000   1.0000   1.0000   1.0000   1.0000
     1.0000   1.0000   1.0000   1.0000   1.0000   1.0000   1.0000   1.0000
     1.0000   1.0000   1.0000   1.0000   1.0000   1.0000   1.0000   1.0000
     1.0000   1.0000   1.0000   1.0000   1.0000   1.0000   1.0000   1.0000
     1.0000   1.0000   1.0000   1.0000   1.0000   1.0000   1.0000   1.0000
     1.0000   1.0000   1.0000   1.0000   1.0000   1.0000   1.0000   1.0000
     1.0000   1.0000   1.0000   1.0000   1.0000   1.0000   1.0000   1.0000
     1.0000   1.0000   1.0000   1.0000   1.0000   1.0000   1.0000   1.0000
     1.0000   1.0000   1.0000   1.0000   1.0000   1.0000   1.0000   1.0000
     1.0000   1.0000   1.0000   1.0000   1.0000   1.0000   1.0000   1.0000
     1.0000   1.0000   1.0000   1.0000

          k =-0.5000-0.2887 0.0000 ( 11762 PWs)   bands (ev):

   -10.8594 -10.8594 -10.5637 -10.5637 -10.5637 -10.5637 -10.3494 -10.2582
   -10.2582 -10.2372 -10.2372 -10.1408   0.9526   0.9526   1.0549   1.0549
     1.0549   1.0549   1.1141   1.1787   1.1787   1.3230   1.3939   1.3939
     1.4175   1.4175   1.4697   1.4697   1.4697   1.4698   1.4827   1.4827
     1.4827   1.4827   1.4978   1.4978   1.5609   1.6182   1.6182   1.6647
     1.6647   1.7821   1.7821   1.8586   1.8586   1.9413   1.9538   2.0753
     2.3719   2.3719   2.4269   2.4269   2.4642   2.5440   2.5440   2.5440
     2.5440   2.5485   2.5485   2.5485   2.5485   2.5909   2.6133   2.6133
     2.6358   2.6359   2.6705   2.6978   2.6978   2.7418   2.7479   2.7479
     2.8614   2.8614   3.1878   3.1878   3.2047   3.4268   4.1405   4.6007
     4.6007   4.6007   4.6007   4.7139   5.2256   5.2256   5.4384   5.4384
     5.5539   5.5539   5.6402   5.7793   5.7793   5.7884   5.7884   5.9119
     5.9119   5.9119   5.9119   6.0829   6.2536   6.2536   6.2536   6.2536
     6.6255   6.6255   6.7029   6.7029

     occupation numbers 
     1.0000   1.0000   1.0000   1.0000   1.0000   1.0000   1.0000   1.0000
     1.0000   1.0000   1.0000   1.0000   1.0000   1.0000   1.0000   1.0000
     1.0000   1.0000   1.0000   1.0000   1.0000   1.0000   1.0000   1.0000
     1.0000   1.0000   1.0000   1.0000   1.0000   1.0000   1.0000   1.0000
     1.0000   1.0000   1.0000   1.0000   1.0000   1.0000   1.0000   1.0000
     1.0000   1.0000   1.0000   1.0000   1.0000   1.0000   1.0000   1.0000
     1.0000   1.0000   1.0000   1.0000   1.0000   1.0000   1.0000   1.0000
     1.0000   1.0000   1.0000   1.0000   1.0000   1.0000   1.0000   1.0000
     1.0000   1.0000   1.0000   1.0000   1.0000   1.0000   1.0000   1.0000
     1.0000   1.0000   1.0000   1.0000   1.0000   1.0000   1.0000   1.0000
     1.0000   1.0000   1.0000   1.0000   1.0000   1.0000   1.0000   1.0000
     1.0000   1.0000   1.0000   1.0000   1.0000   1.0000   1.0000   1.0000
     1.0000   1.0000   1.0000   1.0000   1.0000   1.0000   1.0000   1.0000
     1.0000   1.0000   1.0000   1.0000

          k =-0.5000-0.2887 0.3097 ( 11768 PWs)   bands (ev):

   -10.8204 -10.8204 -10.7129 -10.7129 -10.4121 -10.4121 -10.3335 -10.2997
   -10.2997 -10.2915 -10.1869 -10.1527   0.9825   1.0471   1.0697   1.0820
     1.0820   1.1443   1.1443   1.1496   1.1496   1.2255   1.3367   1.3367
     1.4035   1.4035   1.4331   1.4331   1.4425   1.4425   1.4548   1.4548
     1.5220   1.5220   1.5437   1.5437   1.5871   1.5905   1.5905   1.5969
     1.5969   1.6641   1.8687   1.8803   1.9133   1.9178   1.9195   2.0308
     2.4014   2.4014   2.4440   2.4440   2.4695   2.4695   2.4884   2.4884
     2.5267   2.5930   2.5935   2.5935   2.6003   2.6172   2.6172   2.6256
     2.6256   2.6268   2.6330   2.6574   2.6725   2.6725   2.7318   2.7411
     3.1456   3.1660   3.2560   3.2560   3.2754   3.3761   3.9342   3.9342
     4.4237   4.8200   5.0140   5.0927   5.1229   5.1229   5.2750   5.2750
     5.5974   5.5974   5.6314   5.6314   5.7266   5.7658   5.7926   5.8519
     5.8519   5.9986   6.0234   6.0234   6.2837   6.2837   6.4800   6.4800
     6.5472   6.5472   6.6435   6.6435

     occupation numbers 
     1.0000   1.0000   1.0000   1.0000   1.0000   1.0000   1.0000   1.0000
     1.0000   1.0000   1.0000   1.0000   1.0000   1.0000   1.0000   1.0000
     1.0000   1.0000   1.0000   1.0000   1.0000   1.0000   1.0000   1.0000
     1.0000   1.0000   1.0000   1.0000   1.0000   1.0000   1.0000   1.0000
     1.0000   1.0000   1.0000   1.0000   1.0000   1.0000   1.0000   1.0000
     1.0000   1.0000   1.0000   1.0000   1.0000   1.0000   1.0000   1.0000
     1.0000   1.0000   1.0000   1.0000   1.0000   1.0000   1.0000   1.0000
     1.0000   1.0000   1.0000   1.0000   1.0000   1.0000   1.0000   1.0000
     1.0000   1.0000   1.0000   1.0000   1.0000   1.0000   1.0000   1.0000
     1.0000   1.0000   1.0000   1.0000   1.0000   1.0000   1.0000   1.0000
     1.0000   1.0000   1.0000   1.0000   1.0000   1.0000   1.0000   1.0000
     1.0000   1.0000   1.0000   1.0000   1.0000   1.0000   1.0000   1.0000
     1.0000   1.0000   1.0000   1.0000   1.0000   1.0000   1.0000   1.0000
     1.0000   1.0000   1.0000   1.0000

          k =-0.5000 0.8660 0.0000 ( 11837 PWs)   bands (ev):

   -10.6323 -10.4039 -10.4039 -10.3568 -10.3568 -10.2392 -10.2392 -10.2392
   -10.2392 -10.1783 -10.1368 -10.1368   1.0209   1.0209   1.0856   1.0856
     1.0856   1.0856   1.1448   1.2098   1.2098   1.3347   1.4529   1.4529
     1.5272   1.5328   1.5328   1.5839   1.5839   1.5845   1.6623   1.6623
     1.6623   1.6623   1.6781   1.6781   1.7926   1.7926   1.8373   1.8597
     1.8597   1.8597   1.8597   1.9688   2.0460   2.0460   2.1149   2.1149
     2.3226   2.4055   2.4055   2.4473   2.4731   2.4731   2.5519   2.5519
     2.5532   2.5532   2.5532   2.5532   2.5835   2.5835   2.6485   2.6836
     2.6836   2.7390   2.7390   2.7390   2.7390   2.8198   2.8732   2.8732
     3.0203   3.0747   3.0747   3.4275   3.4275   3.4275   3.4275   3.6813
     3.6813   4.1030   4.1030   4.2135   4.2135   4.4220   4.4220   4.4226
     4.6354   4.9298   4.9298   4.9298   4.9298   5.2290   5.5300   5.5300
     5.6134   5.6134   5.6422   5.6422   5.6422   5.6422   5.7236   5.7236
     5.7975   5.7975   6.2536   6.2863

     occupation numbers 
     1.0000   1.0000   1.0000   1.0000   1.0000   1.0000   1.0000   1.0000
     1.0000   1.0000   1.0000   1.0000   1.0000   1.0000   1.0000   1.0000
     1.0000   1.0000   1.0000   1.0000   1.0000   1.0000   1.0000   1.0000
     1.0000   1.0000   1.0000   1.0000   1.0000   1.0000   1.0000   1.0000
     1.0000   1.0000   1.0000   1.0000   1.0000   1.0000   1.0000   1.0000
     1.0000   1.0000   1.0000   1.0000   1.0000   1.0000   1.0000   1.0000
     1.0000   1.0000   1.0000   1.0000   1.0000   1.0000   1.0000   1.0000
     1.0000   1.0000   1.0000   1.0000   1.0000   1.0000   1.0000   1.0000
     1.0000   1.0000   1.0000   1.0000   1.0000   1.0000   1.0000   1.0000
     1.0000   1.0000   1.0000   1.0000   1.0000   1.0000   1.0000   1.0000
     1.0000   1.0000   1.0000   1.0000   1.0000   1.0000   1.0000   1.0000
     1.0000   1.0000   1.0000   1.0000   1.0000   1.0000   1.0000   1.0000
     1.0000   1.0000   1.0000   1.0000   1.0000   1.0000   1.0000   1.0000
     1.0000   1.0000   1.0000   1.0000

          k =-0.5000 0.8660 0.3097 ( 11848 PWs)   bands (ev):

   -10.6016 -10.5179 -10.3402 -10.3402 -10.2962 -10.2962 -10.2905 -10.2082
   -10.1859 -10.1859 -10.1496 -10.1496   1.0368   1.1038   1.1038   1.1086
     1.1268   1.1780   1.1780   1.1968   1.1968   1.2850   1.3762   1.3762
     1.5169   1.5188   1.5381   1.5573   1.5636   1.5637   1.5839   1.5839
     1.6853   1.7338   1.7338   1.7417   1.7730   1.7730   1.8092   1.8094
     1.8904   1.8904   1.9133   1.9133   1.9824   1.9824   2.0290   2.0290
     2.3643   2.4172   2.4172   2.4609   2.4789   2.4958   2.4958   2.5183
     2.5393   2.5393   2.5677   2.5677   2.6056   2.6364   2.6725   2.6804
     2.6804   2.6913   2.6913   2.7501   2.8116   2.8116   2.8696   2.8696
     3.1154   3.1154   3.2568   3.2568   3.3752   3.5916   3.5916   3.6971
     3.6971   3.8659   4.2091   4.2091   4.4657   4.5349   4.5349   4.5550
     4.6101   4.6167   4.6167   4.9825   5.0817   5.0817   5.2327   5.3663
     5.3813   5.3813   5.5972   5.5972   5.7986   5.7986   5.8447   5.8447
     5.9569   6.0904   6.1732   6.2738

     occupation numbers 
     1.0000   1.0000   1.0000   1.0000   1.0000   1.0000   1.0000   1.0000
     1.0000   1.0000   1.0000   1.0000   1.0000   1.0000   1.0000   1.0000
     1.0000   1.0000   1.0000   1.0000   1.0000   1.0000   1.0000   1.0000
     1.0000   1.0000   1.0000   1.0000   1.0000   1.0000   1.0000   1.0000
     1.0000   1.0000   1.0000   1.0000   1.0000   1.0000   1.0000   1.0000
     1.0000   1.0000   1.0000   1.0000   1.0000   1.0000   1.0000   1.0000
     1.0000   1.0000   1.0000   1.0000   1.0000   1.0000   1.0000   1.0000
     1.0000   1.0000   1.0000   1.0000   1.0000   1.0000   1.0000   1.0000
     1.0000   1.0000   1.0000   1.0000   1.0000   1.0000   1.0000   1.0000
     1.0000   1.0000   1.0000   1.0000   1.0000   1.0000   1.0000   1.0000
     1.0000   1.0000   1.0000   1.0000   1.0000   1.0000   1.0000   1.0000
     1.0000   1.0000   1.0000   1.0000   1.0000   1.0000   1.0000   1.0000
     1.0000   1.0000   1.0000   1.0000   1.0000   1.0000   1.0000   1.0000
     1.0000   1.0000   1.0000   1.0000

          k = 0.5000-0.2887-0.3097 ( 11800 PWs)   bands (ev):

   -10.8204 -10.7129 -10.6016 -10.5179 -10.4121 -10.3402 -10.2997 -10.2962
   -10.2905 -10.2082 -10.1859 -10.1496   1.0368   1.0820   1.1038   1.1086
     1.1268   1.1443   1.1496   1.1780   1.1968   1.2850   1.3367   1.3762
     1.4035   1.4331   1.4425   1.4548   1.5169   1.5188   1.5220   1.5381
     1.5437   1.5573   1.5636   1.5839   1.5905   1.5969   1.6853   1.7338
     1.7417   1.7730   1.8092   1.8094   1.8904   1.9133   1.9824   2.0290
     2.3643   2.4014   2.4172   2.4440   2.4609   2.4695   2.4789   2.4884
     2.4958   2.5183   2.5393   2.5677   2.5935   2.6056   2.6172   2.6256
     2.6364   2.6725   2.6725   2.6804   2.6913   2.7501   2.8116   2.8696
     3.1154   3.2560   3.2568   3.3752   3.5916   3.6971   3.8659   3.9342
     4.2091   4.4657   4.5349   4.5550   4.6101   4.6167   4.9825   5.0817
     5.1229   5.2327   5.2750   5.3663   5.3813   5.5972   5.5974   5.6314
     5.7986   5.8447   5.8519   5.9569   6.0234   6.0904   6.1732   6.2738
     6.2837   6.4800   6.5472   6.6435

     occupation numbers 
     1.0000   1.0000   1.0000   1.0000   1.0000   1.0000   1.0000   1.0000
     1.0000   1.0000   1.0000   1.0000   1.0000   1.0000   1.0000   1.0000
     1.0000   1.0000   1.0000   1.0000   1.0000   1.0000   1.0000   1.0000
     1.0000   1.0000   1.0000   1.0000   1.0000   1.0000   1.0000   1.0000
     1.0000   1.0000   1.0000   1.0000   1.0000   1.0000   1.0000   1.0000
     1.0000   1.0000   1.0000   1.0000   1.0000   1.0000   1.0000   1.0000
     1.0000   1.0000   1.0000   1.0000   1.0000   1.0000   1.0000   1.0000
     1.0000   1.0000   1.0000   1.0000   1.0000   1.0000   1.0000   1.0000
     1.0000   1.0000   1.0000   1.0000   1.0000   1.0000   1.0000   1.0000
     1.0000   1.0000   1.0000   1.0000   1.0000   1.0000   1.0000   1.0000
     1.0000   1.0000   1.0000   1.0000   1.0000   1.0000   1.0000   1.0000
     1.0000   1.0000   1.0000   1.0000   1.0000   1.0000   1.0000   1.0000
     1.0000   1.0000   1.0000   1.0000   1.0000   1.0000   1.0000   1.0000
     1.0000   1.0000   1.0000   1.0000

     highest occupied level (ev):     6.8873

!    total energy              =   -2169.82132746 Ry
     estimated scf accuracy    <          6.0E-09 Ry

     The total energy is the sum of the following terms:
     one-electron contribution =    -927.15144299 Ry
     hartree contribution      =     709.73527079 Ry
     xc contribution           =    -657.27676334 Ry
     ewald contribution        =   -1295.12839192 Ry

     convergence has been achieved in  24 iterations

     Forces acting on atoms (cartesian axes, Ry/au):

     atom    1 type  1   force =    -0.00000069   -0.00000040    0.00005224
     atom    2 type  1   force =    -0.00000106   -0.00000061    0.00005802
     atom    3 type  2   force =     0.00000026    0.00000015   -0.00006255
     atom    4 type  2   force =    -0.00000007   -0.00000004   -0.00006292
     atom    5 type  1   force =    -0.00000453   -0.00000262    0.00007183
     atom    6 type  1   force =     0.00000072    0.00000042    0.00006637
     atom    7 type  2   force =    -0.00000009   -0.00000005   -0.00006231
     atom    8 type  2   force =    -0.00000008   -0.00000005   -0.00006301
     atom    9 type  1   force =    -0.00000098   -0.00000057    0.00005044
     atom   10 type  1   force =     0.00000074    0.00000042    0.00006690
     atom   11 type  2   force =     0.00000027    0.00000016   -0.00006258
     atom   12 type  2   force =    -0.00000037   -0.00000021   -0.00006225
     atom   13 type  1   force =    -0.00000261   -0.00000151    0.00007021
     atom   14 type  1   force =     0.00000553    0.00000319    0.00006179
     atom   15 type  2   force =     0.00000028    0.00000016   -0.00006297
     atom   16 type  2   force =    -0.00000032   -0.00000019   -0.00006239
     atom   17 type  1   force =    -0.00000188   -0.00000108    0.00005400
     atom   18 type  1   force =    -0.00000009   -0.00000005    0.00006087
     atom   19 type  2   force =     0.00000023    0.00000013   -0.00006241
     atom   20 type  2   force =    -0.00000005   -0.00000003   -0.00006249
     atom   21 type  1   force =    -0.00000122   -0.00000070    0.00007241
     atom   22 type  1   force =     0.00000646    0.00000373    0.00006566
     atom   23 type  2   force =     0.00000002    0.00000001   -0.00006222
     atom   24 type  2   force =    -0.00000048   -0.00000028   -0.00006265
     The non-local contrib.  to forces
     atom    1 type  1   force =    -0.00000004   -0.00000002   -0.00483709
     atom    2 type  1   force =    -0.00000049   -0.00000029   -0.00483473
     atom    3 type  2   force =     0.00000106    0.00000061    0.00575405
     atom    4 type  2   force =     0.00000020    0.00000012    0.00575738
     atom    5 type  1   force =    -0.00000164   -0.00000094   -0.00482708
     atom    6 type  1   force =    -0.00000075   -0.00000043   -0.00483187
     atom    7 type  2   force =    -0.00000072   -0.00000042    0.00575502
     atom    8 type  2   force =    -0.00000020   -0.00000012    0.00575099
     atom    9 type  1   force =     0.00000077    0.00000044   -0.00483952
     atom   10 type  1   force =     0.00000093    0.00000053   -0.00483250
     atom   11 type  2   force =     0.00000111    0.00000064    0.00575434
     atom   12 type  2   force =    -0.00000135   -0.00000078    0.00575808
     atom   13 type  1   force =     0.00000043    0.00000025   -0.00482727
     atom   14 type  1   force =     0.00000039    0.00000023   -0.00483309
     atom   15 type  2   force =     0.00000049    0.00000028    0.00575223
     atom   16 type  2   force =     0.00000019    0.00000011    0.00575104
     atom   17 type  1   force =    -0.00000044   -0.00000026   -0.00483864
     atom   18 type  1   force =    -0.00000080   -0.00000046   -0.00483243
     atom   19 type  2   force =    -0.00000047   -0.00000027    0.00575369
     atom   20 type  2   force =    -0.00000008   -0.00000005    0.00575791
     atom   21 type  1   force =     0.00000077    0.00000044   -0.00482858
     atom   22 type  1   force =     0.00000154    0.00000089   -0.00483119
     atom   23 type  2   force =     0.00000019    0.00000011    0.00575409
     atom   24 type  2   force =    -0.00000149   -0.00000086    0.00575050
     The ionic contribution  to forces
     atom    1 type  1   force =     0.00000001    0.00000000    0.06271747
     atom    2 type  1   force =     0.00000000    0.00000000    0.06271747
     atom    3 type  2   force =     0.00000001    0.00000000   -0.06271747
     atom    4 type  2   force =     0.00000000    0.00000000   -0.06271747
     atom    5 type  1   force =     0.00000001    0.00000000    0.06271747
     atom    6 type  1   force =     0.00000000    0.00000000    0.06271747
     atom    7 type  2   force =     0.00000001    0.00000000   -0.06271747
     atom    8 type  2   force =     0.00000000    0.00000000   -0.06271747
     atom    9 type  1   force =    -0.00000001    0.00000000    0.06271747
     atom   10 type  1   force =     0.00000001   -0.00000000    0.06271747
     atom   11 type  2   force =    -0.00000000    0.00000000   -0.06271747
     atom   12 type  2   force =     0.00000000   -0.00000000   -0.06271747
     atom   13 type  1   force =    -0.00000001    0.00000000    0.06271747
     atom   14 type  1   force =     0.00000001   -0.00000000    0.06271747
     atom   15 type  2   force =    -0.00000000    0.00000000   -0.06271747
     atom   16 type  2   force =     0.00000000   -0.00000000   -0.06271747
     atom   17 type  1   force =    -0.00000000   -0.00000000    0.06271747
     atom   18 type  1   force =    -0.00000001   -0.00000000    0.06271747
     atom   19 type  2   force =    -0.00000000   -0.00000000   -0.06271747
     atom   20 type  2   force =    -0.00000001   -0.00000000   -0.06271747
     atom   21 type  1   force =    -0.00000000   -0.00000000    0.06271747
     atom   22 type  1   force =    -0.00000001   -0.00000000    0.06271747
     atom   23 type  2   force =    -0.00000000   -0.00000000   -0.06271747
     atom   24 type  2   force =    -0.00000001   -0.00000000   -0.06271747
     The local contribution  to forces
     atom    1 type  1   force =    -0.00000113   -0.00000065   -0.05827750
     atom    2 type  1   force =     0.00000100    0.00000053   -0.05828212
     atom    3 type  2   force =    -0.00000073   -0.00000042    0.05696784
     atom    4 type  2   force =     0.00000101    0.00000057    0.05697374
     atom    5 type  1   force =     0.00000514    0.00000297   -0.05830301
     atom    6 type  1   force =     0.00000205    0.00000113   -0.05829353
     atom    7 type  2   force =     0.00000039    0.00000023    0.05696956
     atom    8 type  2   force =     0.00000308    0.00000177    0.05696012
     atom    9 type  1   force =    -0.00000109   -0.00000053   -0.05827273
     atom   10 type  1   force =    -0.00000176   -0.00000112   -0.05828956
     atom   11 type  2   force =    -0.00000041   -0.00000021    0.05696681
     atom   12 type  2   force =     0.00000007    0.00000001    0.05697433
     atom   13 type  1   force =    -0.00000085   -0.00000039   -0.05830323
     atom   14 type  1   force =    -0.00000226   -0.00000141   -0.05828881
     atom   15 type  2   force =     0.00000071    0.00000043    0.05696649
     atom   16 type  2   force =     0.00000042    0.00000022    0.05696246
     atom   17 type  1   force =     0.00000295    0.00000175   -0.05827560
     atom   18 type  1   force =     0.00000165    0.00000095   -0.05828844
     atom   19 type  2   force =    -0.00000105   -0.00000059    0.05696585
     atom   20 type  2   force =     0.00000085    0.00000049    0.05697351
     atom   21 type  1   force =    -0.00000150   -0.00000082   -0.05830089
     atom   22 type  1   force =    -0.00000499   -0.00000288   -0.05829381
     atom   23 type  2   force =    -0.00000187   -0.00000107    0.05697004
     atom   24 type  2   force =    -0.00000106   -0.00000061    0.05696375
     The core correction contribution to forces
     atom    1 type  1   force =     0.00000012    0.00000007    0.00046399
     atom    2 type  1   force =     0.00000003    0.00000001    0.00046380
     atom    3 type  2   force =    -0.00000002   -0.00000001   -0.00006502
     atom    4 type  2   force =     0.00000000    0.00000000   -0.00006505
     atom    5 type  1   force =    -0.00000003   -0.00000002    0.00046405
     atom    6 type  1   force =    -0.00000007   -0.00000005    0.00046409
     atom    7 type  2   force =     0.00000001    0.00000001   -0.00006502
     atom    8 type  2   force =     0.00000001    0.00000001   -0.00006500
     atom    9 type  1   force =     0.00000004    0.00000004    0.00046395
     atom   10 type  1   force =     0.00000001   -0.00000001    0.00046380
     atom   11 type  2   force =    -0.00000002   -0.00000001   -0.00006503
     atom   12 type  2   force =     0.00000002    0.00000001   -0.00006506
     atom   13 type  1   force =     0.00000010    0.00000007    0.00046413
     atom   14 type  1   force =    -0.00000007   -0.00000005    0.00046403
     atom   15 type  2   force =    -0.00000000   -0.00000000   -0.00006500
     atom   16 type  2   force =     0.00000000    0.00000000   -0.00006499
     atom   17 type  1   force =    -0.00000010   -0.00000005    0.00046396
     atom   18 type  1   force =    -0.00000002   -0.00000001    0.00046392
     atom   19 type  2   force =     0.00000000    0.00000000   -0.00006502
     atom   20 type  2   force =     0.00000000    0.00000000   -0.00006506
     atom   21 type  1   force =     0.00000005    0.00000004    0.00046402
     atom   22 type  1   force =    -0.00000002   -0.00000001    0.00046405
     atom   23 type  2   force =    -0.00000001   -0.00000001   -0.00006501
     atom   24 type  2   force =     0.00000002    0.00000001   -0.00006498
     The Hubbard contrib.    to forces
     atom    1 type  1   force =     0.00000000    0.00000000    0.00000000
     atom    2 type  1   force =     0.00000000    0.00000000    0.00000000
     atom    3 type  2   force =     0.00000000    0.00000000    0.00000000
     atom    4 type  2   force =     0.00000000    0.00000000    0.00000000
     atom    5 type  1   force =     0.00000000    0.00000000    0.00000000
     atom    6 type  1   force =     0.00000000    0.00000000    0.00000000
     atom    7 type  2   force =     0.00000000    0.00000000    0.00000000
     atom    8 type  2   force =     0.00000000    0.00000000    0.00000000
     atom    9 type  1   force =     0.00000000    0.00000000    0.00000000
     atom   10 type  1   force =     0.00000000    0.00000000    0.00000000
     atom   11 type  2   force =     0.00000000    0.00000000    0.00000000
     atom   12 type  2   force =     0.00000000    0.00000000    0.00000000
     atom   13 type  1   force =     0.00000000    0.00000000    0.00000000
     atom   14 type  1   force =     0.00000000    0.00000000    0.00000000
     atom   15 type  2   force =     0.00000000    0.00000000    0.00000000
     atom   16 type  2   force =     0.00000000    0.00000000    0.00000000
     atom   17 type  1   force =     0.00000000    0.00000000    0.00000000
     atom   18 type  1   force =     0.00000000    0.00000000    0.00000000
     atom   19 type  2   force =     0.00000000    0.00000000    0.00000000
     atom   20 type  2   force =     0.00000000    0.00000000    0.00000000
     atom   21 type  1   force =     0.00000000    0.00000000    0.00000000
     atom   22 type  1   force =     0.00000000    0.00000000    0.00000000
     atom   23 type  2   force =     0.00000000    0.00000000    0.00000000
     atom   24 type  2   force =     0.00000000    0.00000000    0.00000000
     The SCF correction term to forces
     atom    1 type  1   force =     0.00000029    0.00000017   -0.00001508
     atom    2 type  1   force =    -0.00000163   -0.00000094   -0.00000685
     atom    3 type  2   force =    -0.00000012   -0.00000007   -0.00000241
     atom    4 type  2   force =    -0.00000134   -0.00000078   -0.00001197
     atom    5 type  1   force =    -0.00000808   -0.00000467    0.00001995
     atom    6 type  1   force =    -0.00000055   -0.00000032    0.00000975
     atom    7 type  2   force =     0.00000016    0.00000009   -0.00000485
     atom    8 type  2   force =    -0.00000304   -0.00000175    0.00000789
     atom    9 type  1   force =    -0.00000080   -0.00000046   -0.00001918
     atom   10 type  1   force =     0.00000154    0.00000089    0.00000724
     atom   11 type  2   force =    -0.00000048   -0.00000027   -0.00000169
     atom   12 type  2   force =     0.00000084    0.00000048   -0.00001258
     atom   13 type  1   force =    -0.00000240   -0.00000138    0.00001866
     atom   14 type  1   force =     0.00000745    0.00000430    0.00000173
     atom   15 type  2   force =    -0.00000099   -0.00000057    0.00000032
     atom   16 type  2   force =    -0.00000099   -0.00000057    0.00000612
     atom   17 type  1   force =    -0.00000436   -0.00000252   -0.00001365
     atom   18 type  1   force =    -0.00000097   -0.00000056   -0.00000011
     atom   19 type  2   force =     0.00000169    0.00000098    0.00000009
     atom   20 type  2   force =    -0.00000088   -0.00000051   -0.00001183
     atom   21 type  1   force =    -0.00000062   -0.00000036    0.00001994
     atom   22 type  1   force =     0.00000987    0.00000570    0.00000869
     atom   23 type  2   force =     0.00000165    0.00000095   -0.00000433
     atom   24 type  2   force =     0.00000200    0.00000116    0.00000509

     Total force =     0.000308     Total SCF correction =     0.000056
     SCF correction compared to forces is large: reduce conv_thr to get better values

     init_run     :     10.33s CPU      9.85s WALL (       1 calls)
     electrons    :    304.98s CPU    225.32s WALL (       1 calls)
     forces       :      5.47s CPU      4.99s WALL (       1 calls)

     Called by init_run:
     wfcinit      :      2.68s CPU      2.09s WALL (       1 calls)
     wfcinit:atom :      0.03s CPU      0.02s WALL (       2 calls)
     wfcinit:wfcr :      2.52s CPU      1.92s WALL (       2 calls)
     potinit      :      3.96s CPU      4.03s WALL (       1 calls)
     hinit0       :      3.14s CPU      3.17s WALL (       1 calls)

     Called by electrons:
     c_bands      :    273.57s CPU    197.92s WALL (      24 calls)
     sum_band     :     21.89s CPU     18.23s WALL (      24 calls)
     v_of_rho     :      5.32s CPU      5.55s WALL (      25 calls)
     v_h          :      0.31s CPU      0.35s WALL (      25 calls)
     v_xc         :      5.20s CPU      5.41s WALL (      26 calls)
     newd         :      3.30s CPU      2.86s WALL (      25 calls)
     mix_rho      :      0.87s CPU      0.77s WALL (      24 calls)

     Called by c_bands:
     init_us_2    :      1.05s CPU      0.94s WALL (     100 calls)
     init_us_2:cp :      1.05s CPU      0.94s WALL (     100 calls)
     cegterg      :    257.55s CPU    182.94s WALL (      48 calls)

     Called by sum_band:
     sum_band:wei :      0.01s CPU      0.01s WALL (      24 calls)
     sum_band:loo :     17.04s CPU     14.38s WALL (      24 calls)
     sum_band:buf :      0.18s CPU      0.17s WALL (      48 calls)
     sum_band:ini :      0.49s CPU      0.43s WALL (      48 calls)
     sum_band:cal :      5.08s CPU      2.62s WALL (      48 calls)
     sum_band:bec :      0.04s CPU      0.03s WALL (      48 calls)
     addusdens    :      3.72s CPU      2.70s WALL (      24 calls)
                                        0.00s GPU  (      24 calls)
     addusd:skk   :      0.07s CPU      0.06s WALL (      48 calls)
                                        0.00s GPU  (      48 calls)

     Called by *egterg:
     cdiaghg      :     24.49s CPU     18.09s WALL (     436 calls)
     cegterg:over :     23.23s CPU     12.31s WALL (     388 calls)
     cegterg:upda :     14.09s CPU      7.38s WALL (     388 calls)
     cegterg:last :     34.74s CPU     18.25s WALL (     202 calls)
     h_psi        :    134.08s CPU    112.81s WALL (     438 calls)
     s_psi        :     22.85s CPU     11.83s WALL (     438 calls)
     g_psi        :      0.65s CPU      0.54s WALL (     388 calls)

     Called by h_psi:
     h_psi:calbec :     22.00s CPU     11.98s WALL (     438 calls)
     vloc_psi     :     88.33s CPU     88.20s WALL (     438 calls)
     add_vuspsi   :     23.15s CPU     12.11s WALL (     438 calls)

     General routines
     calbec       :     27.95s CPU     15.05s WALL (     494 calls)
     fft          :      3.15s CPU      3.40s WALL (     334 calls)
     ffts         :      0.37s CPU      0.37s WALL (      49 calls)
     fftw         :     83.59s CPU     83.04s WALL (   49096 calls)
     interpolate  :      0.46s CPU      0.50s WALL (      25 calls)

     Parallel routines

     PWSCF        :   5m21.42s CPU   4m 0.81s WALL


   This run was terminated on:  20:23:50  22Jul2025            

=------------------------------------------------------------------------------=
   JOB DONE.
=------------------------------------------------------------------------------=
Note: The following floating-point exceptions are signalling: IEEE_INVALID_FLAG
Note: The following floating-point exceptions are signalling: IEEE_INVALID_FLAG
Note: The following floating-point exceptions are signalling: IEEE_INVALID_FLAG
Note: The following floating-point exceptions are signalling: IEEE_INVALID_FLAG
Note: The following floating-point exceptions are signalling: IEEE_INVALID_FLAG
Note: The following floating-point exceptions are signalling: IEEE_INVALID_FLAG
Note: The following floating-point exceptions are signalling: IEEE_INVALID_FLAG
Note: The following floating-point exceptions are signalling: IEEE_INVALID_FLAG
