
     Program PWSCF v.7.0 starts on  5Sep2025 at  1:29:10 

     This program is part of the open-source Quantum ESPRESSO suite
     for quantum simulation of materials; please cite
         "P. Giannozzi et al., J. Phys.:Condens. Matter 21 395502 (2009);
         "P. Giannozzi et al., J. Phys.:Condens. Matter 29 465901 (2017);
         "P. Giannozzi et al., J. Chem. Phys. 152 154105 (2020);
          URL http://www.quantum-espresso.org", 
     in publications or presentations arising from this work. More details at
     http://www.quantum-espresso.org/quote

     Parallel version (MPI & OpenMP), running on      64 processor cores
     Number of MPI processes:                32
     Threads/MPI process:                     2

     MPI processes distributed on     1 nodes
     K-points division:     npool     =       8
     R & G space division:  proc/nbgrp/npool/nimage =       4
     107796 MiB available memory on the printing compute node when the environment starts

     Reading input from /home/jvc/QEspresso7.2/ZnO_database/scripts/cell213.in/ZnO-3.20-1.68-213.in
Warning: card &CELL ignored
Warning: card / ignored
Warning: card &FCP ignored
Warning: card / ignored
Warning: card &RISM ignored
Warning: card / ignored

     Current dimensions of program PWSCF are:
     Max number of different atomic species (ntypx) = 10
     Max number of k-points (npk) =  40000
     Max angular momentum in pseudopotentials (lmaxx) =  4
     file Zn.upf: wavefunction(s)  3D renormalized
     Found identity + (  0.0000  0.0000  0.3333) symmetry
     This is a supercell, fractional translations are disabled
     Message from routine setup:
     using ibrav=0 with symmetry is DISCOURAGED, use correct ibrav instead

     Subspace diagonalization in iterative solution of the eigenvalue problem:
     one sub-group per band group will be used
     scalapack distributed-memory algorithm (size of sub-group:  2*  2 procs)


     Parallelization info
     --------------------
     sticks:   dense  smooth     PW     G-vecs:    dense   smooth      PW
     Min         505     254     80                65411    23154    3984
     Max         506     255     81                65426    23157    3987
     Sum        2021    1017    321               261667    92621   15941

     Using Slab Decomposition



     bravais-lattice index     =            0
     lattice parameter (alat)  =      12.1106  a.u.
     unit-cell volume          =    1936.9446 (a.u.)^3
     number of atoms/cell      =           24
     number of atomic types    =            2
     number of electrons       =       216.00
     number of Kohn-Sham states=          108
     kinetic-energy cutoff     =      50.0000  Ry
     charge density cutoff     =     400.0000  Ry
     scf convergence threshold =      1.0E-08
     mixing beta               =       0.3000
     number of iterations used =            8  plain     mixing
     Exchange-correlation= PBE
                           (   1   4   3   4   0   0   0)

     celldm(1)=  12.110554  celldm(2)=   0.000000  celldm(3)=   0.000000
     celldm(4)=   0.000000  celldm(5)=   0.000000  celldm(6)=   0.000000

     crystal axes: (cart. coord. in units of alat)
               a(1) = (   1.000000   0.000000   0.000000 )  
               a(2) = (  -0.250000   0.433013   0.000000 )  
               a(3) = (   0.000000   0.000000   2.518399 )  

     reciprocal axes: (cart. coord. in units 2 pi/alat)
               b(1) = (  1.000000  0.577350 -0.000000 )  
               b(2) = (  0.000000  2.309401  0.000000 )  
               b(3) = (  0.000000 -0.000000  0.397078 )  


     PseudoPot. # 1 for Zn read from file:
     /home/jvc/QEspresso7.2/ZnO_database/pseudos/Zn.upf
     MD5 check sum: 7f56cabf9682ed8c977c2f7d0c5985c5
     Pseudo is Ultrasoft + core correction, Zval = 12.0
     Generated using &quot;atomic&quot; code by A. Dal Corso  v.6.2.2
     Using radial grid of 1201 points,  6 beta functions with: 
                l(1) =   0
                l(2) =   0
                l(3) =   1
                l(4) =   1
                l(5) =   2
                l(6) =   2
     Q(r) pseudized with 0 coefficients 


     PseudoPot. # 2 for O  read from file:
     /home/jvc/QEspresso7.2/ZnO_database/pseudos/O.upf
     MD5 check sum: 91400c9766925bcf19f520983a725ff0
     Pseudo is Ultrasoft + core correction, Zval =  6.0
     Generated using &quot;atomic&quot; code by A. Dal Corso  v.6.3MaX
     Using radial grid of 1095 points,  4 beta functions with: 
                l(1) =   0
                l(2) =   0
                l(3) =   1
                l(4) =   1
     Q(r) pseudized with 0 coefficients 


     atomic species   valence    mass     pseudopotential
        Zn            12.00    65.38000     Zn( 1.00)
        O              6.00    15.99900     O ( 1.00)

      2 Sym. Ops. (no inversion) found


                                    s                        frac. trans.

      isym =  1     identity                                     

 cryst.   s( 1) = (     1          0          0      )
                  (     0          1          0      )
                  (     0          0          1      )

 cart.    s( 1) = (  1.0000000  0.0000000  0.0000000 )
                  (  0.0000000  1.0000000  0.0000000 )
                  (  0.0000000  0.0000000  1.0000000 )


      isym =  2     inv. 180 deg rotation - cryst. axis [0,1,0]  

 cryst.   s( 2) = (     1          2          0      )
                  (     0         -1          0      )
                  (     0          0          1      )

 cart.    s( 2) = (  0.5000000  0.8660254  0.0000000 )
                  (  0.8660254 -0.5000000  0.0000000 )
                  (  0.0000000  0.0000000  1.0000000 )


   Cartesian axes

     site n.     atom                  positions (alat units)
         1           Zn  tau(   1) = (   0.2500000   0.1443376   0.4202650  )
         2           Zn  tau(   2) = (   0.0000000   0.2886751   0.0005319  )
         3           O   tau(   3) = (   0.2500000   0.1443376   0.7384587  )
         4           O   tau(   4) = (   0.0000000   0.2886751   0.3187256  )
         5           Zn  tau(   5) = (   0.2500000   0.1443376   1.2597314  )
         6           Zn  tau(   6) = (   0.0000000   0.2886751   0.8399982  )
         7           O   tau(   7) = (   0.2500000   0.1443376   1.5779251  )
         8           O   tau(   8) = (   0.0000000   0.2886751   1.1581919  )
         9           Zn  tau(   9) = (   0.2500000   0.1443376   2.0991977  )
        10           Zn  tau(  10) = (   0.0000000   0.2886751   1.6794646  )
        11           O   tau(  11) = (   0.2500000   0.1443376   2.4173914  )
        12           O   tau(  12) = (   0.0000000   0.2886751   1.9976583  )
        13           Zn  tau(  13) = (   0.7500000   0.1443376   0.4202650  )
        14           Zn  tau(  14) = (   0.5000000   0.2886751   0.0005319  )
        15           O   tau(  15) = (   0.7500000   0.1443376   0.7384587  )
        16           O   tau(  16) = (   0.5000000   0.2886751   0.3187256  )
        17           Zn  tau(  17) = (   0.7500000   0.1443376   1.2597314  )
        18           Zn  tau(  18) = (   0.5000000   0.2886751   0.8399982  )
        19           O   tau(  19) = (   0.7500000   0.1443376   1.5779251  )
        20           O   tau(  20) = (   0.5000000   0.2886751   1.1581919  )
        21           Zn  tau(  21) = (   0.7500000   0.1443376   2.0991977  )
        22           Zn  tau(  22) = (   0.5000000   0.2886751   1.6794646  )
        23           O   tau(  23) = (   0.7500000   0.1443376   2.4173914  )
        24           O   tau(  24) = (   0.5000000   0.2886751   1.9976583  )

   Crystallographic axes

     site n.     atom                  positions (cryst. coord.)
         1           Zn  tau(   1) = (  0.3333333  0.3333333  0.1668779  )
         2           Zn  tau(   2) = (  0.1666667  0.6666667  0.0002112  )
         3           O   tau(   3) = (  0.3333333  0.3333333  0.2932255  )
         4           O   tau(   4) = (  0.1666667  0.6666667  0.1265588  )
         5           Zn  tau(   5) = (  0.3333333  0.3333333  0.5002112  )
         6           Zn  tau(   6) = (  0.1666667  0.6666667  0.3335445  )
         7           O   tau(   7) = (  0.3333333  0.3333333  0.6265588  )
         8           O   tau(   8) = (  0.1666667  0.6666667  0.4598921  )
         9           Zn  tau(   9) = (  0.3333333  0.3333333  0.8335445  )
        10           Zn  tau(  10) = (  0.1666667  0.6666667  0.6668779  )
        11           O   tau(  11) = (  0.3333333  0.3333333  0.9598921  )
        12           O   tau(  12) = (  0.1666667  0.6666667  0.7932255  )
        13           Zn  tau(  13) = (  0.8333333  0.3333333  0.1668779  )
        14           Zn  tau(  14) = (  0.6666667  0.6666667  0.0002112  )
        15           O   tau(  15) = (  0.8333333  0.3333333  0.2932255  )
        16           O   tau(  16) = (  0.6666667  0.6666667  0.1265588  )
        17           Zn  tau(  17) = (  0.8333333  0.3333333  0.5002112  )
        18           Zn  tau(  18) = (  0.6666667  0.6666667  0.3335445  )
        19           O   tau(  19) = (  0.8333333  0.3333333  0.6265588  )
        20           O   tau(  20) = (  0.6666667  0.6666667  0.4598921  )
        21           Zn  tau(  21) = (  0.8333333  0.3333333  0.8335445  )
        22           Zn  tau(  22) = (  0.6666667  0.6666667  0.6668779  )
        23           O   tau(  23) = (  0.8333333  0.3333333  0.9598921  )
        24           O   tau(  24) = (  0.6666667  0.6666667  0.7932255  )

     number of k points=    80
                       cart. coord. in units 2pi/alat
        k(    1) = (   0.0000000   0.0000000   0.0000000), wk =   0.0092593
        k(    2) = (   0.0000000   0.0000000   0.0661796), wk =   0.0185185
        k(    3) = (   0.0000000   0.0000000   0.1323592), wk =   0.0185185
        k(    4) = (   0.0000000   0.0000000  -0.1985388), wk =   0.0092593
        k(    5) = (   0.0000000   0.3849002   0.0000000), wk =   0.0370370
        k(    6) = (   0.0000000   0.3849002   0.0661796), wk =   0.0370370
        k(    7) = (   0.0000000   0.3849002   0.1323592), wk =   0.0370370
        k(    8) = (   0.0000000   0.3849002  -0.1985388), wk =   0.0370370
        k(    9) = (   0.0000000   0.7698004   0.0000000), wk =   0.0370370
        k(   10) = (   0.0000000   0.7698004   0.0661796), wk =   0.0370370
        k(   11) = (   0.0000000   0.7698004   0.1323592), wk =   0.0370370
        k(   12) = (   0.0000000   0.7698004  -0.1985388), wk =   0.0370370
        k(   13) = (   0.0000000  -1.1547005   0.0000000), wk =   0.0092593
        k(   14) = (   0.0000000  -1.1547005   0.0661796), wk =   0.0185185
        k(   15) = (   0.0000000  -1.1547005   0.1323592), wk =   0.0185185
        k(   16) = (   0.0000000  -1.1547005  -0.1985388), wk =   0.0092593
        k(   17) = (   0.1666667   0.0962250   0.0000000), wk =   0.0185185
        k(   18) = (   0.1666667   0.0962250   0.0661796), wk =   0.0185185
        k(   19) = (   0.1666667   0.0962250   0.1323592), wk =   0.0185185
        k(   20) = (   0.1666667   0.0962250  -0.1985388), wk =   0.0185185
        k(   21) = (   0.1666667   0.4811252   0.0000000), wk =   0.0370370
        k(   22) = (   0.1666667   0.4811252   0.0661796), wk =   0.0370370
        k(   23) = (   0.1666667   0.4811252   0.1323592), wk =   0.0370370
        k(   24) = (   0.1666667   0.4811252  -0.1985388), wk =   0.0370370
        k(   25) = (   0.1666667   0.8660254   0.0000000), wk =   0.0185185
        k(   26) = (   0.1666667   0.8660254   0.0661796), wk =   0.0370370
        k(   27) = (   0.1666667   0.8660254   0.1323592), wk =   0.0370370
        k(   28) = (   0.1666667   0.8660254  -0.1985388), wk =   0.0185185
        k(   29) = (   0.1666667  -1.0584755   0.0000000), wk =   0.0185185
        k(   30) = (   0.1666667  -1.0584755   0.0661796), wk =   0.0185185
        k(   31) = (   0.1666667  -1.0584755   0.1323592), wk =   0.0185185
        k(   32) = (   0.1666667  -1.0584755  -0.1985388), wk =   0.0185185
        k(   33) = (   0.1666667  -0.6735753   0.0000000), wk =   0.0370370
        k(   34) = (   0.1666667  -0.6735753   0.0661796), wk =   0.0370370
        k(   35) = (   0.1666667  -0.6735753   0.1323592), wk =   0.0370370
        k(   36) = (   0.1666667  -0.6735753  -0.1985388), wk =   0.0370370
        k(   37) = (   0.1666667  -0.2886751   0.0000000), wk =   0.0185185
        k(   38) = (   0.1666667  -0.2886751   0.0661796), wk =   0.0370370
        k(   39) = (   0.1666667  -0.2886751   0.1323592), wk =   0.0370370
        k(   40) = (   0.1666667  -0.2886751  -0.1985388), wk =   0.0185185
        k(   41) = (   0.3333333   0.1924501   0.0000000), wk =   0.0185185
        k(   42) = (   0.3333333   0.1924501   0.0661796), wk =   0.0185185
        k(   43) = (   0.3333333   0.1924501   0.1323592), wk =   0.0185185
        k(   44) = (   0.3333333   0.1924501  -0.1985388), wk =   0.0185185
        k(   45) = (   0.3333333   0.5773503   0.0000000), wk =   0.0185185
        k(   46) = (   0.3333333   0.5773503   0.0661796), wk =   0.0370370
        k(   47) = (   0.3333333   0.5773503   0.1323592), wk =   0.0370370
        k(   48) = (   0.3333333   0.5773503  -0.1985388), wk =   0.0185185
        k(   49) = (   0.3333333  -0.9622504   0.0000000), wk =   0.0185185
        k(   50) = (   0.3333333  -0.9622504   0.0661796), wk =   0.0185185
        k(   51) = (   0.3333333  -0.9622504   0.1323592), wk =   0.0185185
        k(   52) = (   0.3333333  -0.9622504  -0.1985388), wk =   0.0185185
        k(   53) = (   0.3333333  -0.5773503   0.0000000), wk =   0.0185185
        k(   54) = (   0.3333333  -0.5773503   0.0661796), wk =   0.0370370
        k(   55) = (   0.3333333  -0.5773503   0.1323592), wk =   0.0370370
        k(   56) = (   0.3333333  -0.5773503  -0.1985388), wk =   0.0185185
        k(   57) = (  -0.5000000  -0.2886751   0.0000000), wk =   0.0092593
        k(   58) = (  -0.5000000  -0.2886751   0.0661796), wk =   0.0185185
        k(   59) = (  -0.5000000  -0.2886751   0.1323592), wk =   0.0185185
        k(   60) = (  -0.5000000  -0.2886751  -0.1985388), wk =   0.0092593
        k(   61) = (  -0.5000000  -1.4433757   0.0000000), wk =   0.0092593
        k(   62) = (  -0.5000000  -1.4433757   0.0661796), wk =   0.0185185
        k(   63) = (  -0.5000000  -1.4433757   0.1323592), wk =   0.0185185
        k(   64) = (  -0.5000000  -1.4433757  -0.1985388), wk =   0.0092593
        k(   65) = (   0.3333333  -0.1924501  -0.0661796), wk =   0.0370370
        k(   66) = (   0.3333333  -0.1924501  -0.1323592), wk =   0.0370370
        k(   67) = (   0.6666667  -0.3849002  -0.0661796), wk =   0.0370370
        k(   68) = (   0.6666667  -0.3849002  -0.1323592), wk =   0.0370370
        k(   69) = (   0.1666667   0.0962250  -0.0661796), wk =   0.0185185
        k(   70) = (   0.1666667   0.0962250  -0.1323592), wk =   0.0185185
        k(   71) = (   0.5000000  -0.0962250  -0.0661796), wk =   0.0370370
        k(   72) = (   0.5000000  -0.0962250  -0.1323592), wk =   0.0370370
        k(   73) = (  -0.8333333   0.6735753  -0.0661796), wk =   0.0185185
        k(   74) = (  -0.8333333   0.6735753  -0.1323592), wk =   0.0185185
        k(   75) = (  -0.5000000   0.4811252  -0.0661796), wk =   0.0370370
        k(   76) = (  -0.5000000   0.4811252  -0.1323592), wk =   0.0370370
        k(   77) = (   0.3333333   0.1924501  -0.0661796), wk =   0.0185185
        k(   78) = (   0.3333333   0.1924501  -0.1323592), wk =   0.0185185
        k(   79) = (  -0.6666667   0.7698004  -0.0661796), wk =   0.0185185
        k(   80) = (  -0.6666667   0.7698004  -0.1323592), wk =   0.0185185

                       cryst. coord.
        k(    1) = (   0.0000000   0.0000000   0.0000000), wk =   0.0092593
        k(    2) = (   0.0000000   0.0000000   0.1666667), wk =   0.0185185
        k(    3) = (   0.0000000   0.0000000   0.3333333), wk =   0.0185185
        k(    4) = (   0.0000000   0.0000000  -0.5000000), wk =   0.0092593
        k(    5) = (   0.0000000   0.1666667   0.0000000), wk =   0.0370370
        k(    6) = (   0.0000000   0.1666667   0.1666667), wk =   0.0370370
        k(    7) = (   0.0000000   0.1666667   0.3333333), wk =   0.0370370
        k(    8) = (   0.0000000   0.1666667  -0.5000000), wk =   0.0370370
        k(    9) = (   0.0000000   0.3333333   0.0000000), wk =   0.0370370
        k(   10) = (   0.0000000   0.3333333   0.1666667), wk =   0.0370370
        k(   11) = (   0.0000000   0.3333333   0.3333333), wk =   0.0370370
        k(   12) = (   0.0000000   0.3333333  -0.5000000), wk =   0.0370370
        k(   13) = (   0.0000000  -0.5000000   0.0000000), wk =   0.0092593
        k(   14) = (   0.0000000  -0.5000000   0.1666667), wk =   0.0185185
        k(   15) = (   0.0000000  -0.5000000   0.3333333), wk =   0.0185185
        k(   16) = (   0.0000000  -0.5000000  -0.5000000), wk =   0.0092593
        k(   17) = (   0.1666667   0.0000000   0.0000000), wk =   0.0185185
        k(   18) = (   0.1666667   0.0000000   0.1666667), wk =   0.0185185
        k(   19) = (   0.1666667   0.0000000   0.3333333), wk =   0.0185185
        k(   20) = (   0.1666667   0.0000000  -0.5000000), wk =   0.0185185
        k(   21) = (   0.1666667   0.1666667   0.0000000), wk =   0.0370370
        k(   22) = (   0.1666667   0.1666667   0.1666667), wk =   0.0370370
        k(   23) = (   0.1666667   0.1666667   0.3333333), wk =   0.0370370
        k(   24) = (   0.1666667   0.1666667  -0.5000000), wk =   0.0370370
        k(   25) = (   0.1666667   0.3333333   0.0000000), wk =   0.0185185
        k(   26) = (   0.1666667   0.3333333   0.1666667), wk =   0.0370370
        k(   27) = (   0.1666667   0.3333333   0.3333333), wk =   0.0370370
        k(   28) = (   0.1666667   0.3333333  -0.5000000), wk =   0.0185185
        k(   29) = (   0.1666667  -0.5000000   0.0000000), wk =   0.0185185
        k(   30) = (   0.1666667  -0.5000000   0.1666667), wk =   0.0185185
        k(   31) = (   0.1666667  -0.5000000   0.3333333), wk =   0.0185185
        k(   32) = (   0.1666667  -0.5000000  -0.5000000), wk =   0.0185185
        k(   33) = (   0.1666667  -0.3333333   0.0000000), wk =   0.0370370
        k(   34) = (   0.1666667  -0.3333333   0.1666667), wk =   0.0370370
        k(   35) = (   0.1666667  -0.3333333   0.3333333), wk =   0.0370370
        k(   36) = (   0.1666667  -0.3333333  -0.5000000), wk =   0.0370370
        k(   37) = (   0.1666667  -0.1666667   0.0000000), wk =   0.0185185
        k(   38) = (   0.1666667  -0.1666667   0.1666667), wk =   0.0370370
        k(   39) = (   0.1666667  -0.1666667   0.3333333), wk =   0.0370370
        k(   40) = (   0.1666667  -0.1666667  -0.5000000), wk =   0.0185185
        k(   41) = (   0.3333333   0.0000000   0.0000000), wk =   0.0185185
        k(   42) = (   0.3333333   0.0000000   0.1666667), wk =   0.0185185
        k(   43) = (   0.3333333   0.0000000   0.3333333), wk =   0.0185185
        k(   44) = (   0.3333333   0.0000000  -0.5000000), wk =   0.0185185
        k(   45) = (   0.3333333   0.1666667   0.0000000), wk =   0.0185185
        k(   46) = (   0.3333333   0.1666667   0.1666667), wk =   0.0370370
        k(   47) = (   0.3333333   0.1666667   0.3333333), wk =   0.0370370
        k(   48) = (   0.3333333   0.1666667  -0.5000000), wk =   0.0185185
        k(   49) = (   0.3333333  -0.5000000   0.0000000), wk =   0.0185185
        k(   50) = (   0.3333333  -0.5000000   0.1666667), wk =   0.0185185
        k(   51) = (   0.3333333  -0.5000000   0.3333333), wk =   0.0185185
        k(   52) = (   0.3333333  -0.5000000  -0.5000000), wk =   0.0185185
        k(   53) = (   0.3333333  -0.3333333   0.0000000), wk =   0.0185185
        k(   54) = (   0.3333333  -0.3333333   0.1666667), wk =   0.0370370
        k(   55) = (   0.3333333  -0.3333333   0.3333333), wk =   0.0370370
        k(   56) = (   0.3333333  -0.3333333  -0.5000000), wk =   0.0185185
        k(   57) = (  -0.5000000  -0.0000000   0.0000000), wk =   0.0092593
        k(   58) = (  -0.5000000  -0.0000000   0.1666667), wk =   0.0185185
        k(   59) = (  -0.5000000  -0.0000000   0.3333333), wk =   0.0185185
        k(   60) = (  -0.5000000  -0.0000000  -0.5000000), wk =   0.0092593
        k(   61) = (  -0.5000000  -0.5000000   0.0000000), wk =   0.0092593
        k(   62) = (  -0.5000000  -0.5000000   0.1666667), wk =   0.0185185
        k(   63) = (  -0.5000000  -0.5000000   0.3333333), wk =   0.0185185
        k(   64) = (  -0.5000000  -0.5000000  -0.5000000), wk =   0.0092593
        k(   65) = (   0.3333333  -0.1666667  -0.1666667), wk =   0.0370370
        k(   66) = (   0.3333333  -0.1666667  -0.3333333), wk =   0.0370370
        k(   67) = (   0.6666667  -0.3333333  -0.1666667), wk =   0.0370370
        k(   68) = (   0.6666667  -0.3333333  -0.3333333), wk =   0.0370370
        k(   69) = (   0.1666667   0.0000000  -0.1666667), wk =   0.0185185
        k(   70) = (   0.1666667   0.0000000  -0.3333333), wk =   0.0185185
        k(   71) = (   0.5000000  -0.1666667  -0.1666667), wk =   0.0370370
        k(   72) = (   0.5000000  -0.1666667  -0.3333333), wk =   0.0370370
        k(   73) = (  -0.8333333   0.5000000  -0.1666667), wk =   0.0185185
        k(   74) = (  -0.8333333   0.5000000  -0.3333333), wk =   0.0185185
        k(   75) = (  -0.5000000   0.3333333  -0.1666667), wk =   0.0370370
        k(   76) = (  -0.5000000   0.3333333  -0.3333333), wk =   0.0370370
        k(   77) = (   0.3333333   0.0000000  -0.1666667), wk =   0.0185185
        k(   78) = (   0.3333333   0.0000000  -0.3333333), wk =   0.0185185
        k(   79) = (  -0.6666667   0.5000000  -0.1666667), wk =   0.0185185
        k(   80) = (  -0.6666667   0.5000000  -0.3333333), wk =   0.0185185

     Dense  grid:   261667 G-vectors     FFT dimensions: (  80,  40, 200)

     Smooth grid:    92621 G-vectors     FFT dimensions: (  60,  27, 144)

     Dynamical RAM for                 wfc:       4.76 MB

     Dynamical RAM for     wfc (w. buffer):      52.41 MB

     Dynamical RAM for           str. fact:       2.00 MB

     Dynamical RAM for           local pot:       0.00 MB

     Dynamical RAM for          nlocal pot:      13.76 MB

     Dynamical RAM for                qrad:       3.21 MB

     Dynamical RAM for          rho,v,vnew:       6.66 MB

     Dynamical RAM for               rhoin:       2.22 MB

     Dynamical RAM for            rho*nmix:      15.97 MB

     Dynamical RAM for           G-vectors:       3.92 MB

     Dynamical RAM for          h,s,v(r/c):       0.53 MB

     Dynamical RAM for          <psi|beta>:       0.51 MB

     Dynamical RAM for                 psi:       9.53 MB

     Dynamical RAM for                hpsi:       9.53 MB

     Dynamical RAM for                spsi:       9.53 MB

     Dynamical RAM for      wfcinit/wfcrot:      14.32 MB

     Dynamical RAM for           addusdens:      25.58 MB

     Dynamical RAM for          addusforce:      28.00 MB

     Estimated static dynamical RAM per process >      93.27 MB

     Estimated max dynamical RAM per process >     138.87 MB

     Estimated total dynamical RAM >       3.90 GB

     Check: negative core charge=   -0.000002

     Initial potential from superposition of free atoms

     starting charge     215.9553, renormalised to     216.0000
     Starting wfcs are  156 randomized atomic wfcs

     total cpu time spent up to now is       16.0 secs

     per-process dynamical memory:   123.7 Mb

     Self-consistent Calculation

     iteration #  1     ecut=    50.00 Ry     beta= 0.30
     Davidson diagonalization with overlap

---- Real-time Memory Report at c_bands before calling an iterative solver
           149 MiB given to the printing process from OS
           120 MiB allocation reported by mallinfo(arena+hblkhd)
        103976 MiB available memory on the node where the printing process lives
------------------
     ethr =  1.00E-02,  avg # of iterations =  2.0

     total cpu time spent up to now is       41.4 secs

     total energy              =   -2168.86939053 Ry
     estimated scf accuracy    <       4.11666599 Ry

     iteration #  2     ecut=    50.00 Ry     beta= 0.30
     Davidson diagonalization with overlap

---- Real-time Memory Report at c_bands before calling an iterative solver
           172 MiB given to the printing process from OS
           145 MiB allocation reported by mallinfo(arena+hblkhd)
        103239 MiB available memory on the node where the printing process lives
------------------
     ethr =  1.91E-03,  avg # of iterations =  2.0

     total cpu time spent up to now is       72.3 secs

     total energy              =   -2169.43940294 Ry
     estimated scf accuracy    <       0.54766173 Ry

     iteration #  3     ecut=    50.00 Ry     beta= 0.30
     Davidson diagonalization with overlap

---- Real-time Memory Report at c_bands before calling an iterative solver
           175 MiB given to the printing process from OS
           147 MiB allocation reported by mallinfo(arena+hblkhd)
        103222 MiB available memory on the node where the printing process lives
------------------
     ethr =  2.54E-04,  avg # of iterations =  7.1

     total cpu time spent up to now is      130.3 secs

     total energy              =   -2169.64174000 Ry
     estimated scf accuracy    <       0.34582618 Ry

     iteration #  4     ecut=    50.00 Ry     beta= 0.30
     Davidson diagonalization with overlap

---- Real-time Memory Report at c_bands before calling an iterative solver
           175 MiB given to the printing process from OS
           150 MiB allocation reported by mallinfo(arena+hblkhd)
        103221 MiB available memory on the node where the printing process lives
------------------
     ethr =  1.60E-04,  avg # of iterations =  8.8

     total cpu time spent up to now is      200.9 secs

     total energy              =   -2169.86473971 Ry
     estimated scf accuracy    <       1.29976954 Ry

     iteration #  5     ecut=    50.00 Ry     beta= 0.30
     Davidson diagonalization with overlap

---- Real-time Memory Report at c_bands before calling an iterative solver
           176 MiB given to the printing process from OS
           150 MiB allocation reported by mallinfo(arena+hblkhd)
        103220 MiB available memory on the node where the printing process lives
------------------
     ethr =  1.60E-04,  avg # of iterations =  2.0

     total cpu time spent up to now is      226.8 secs

     total energy              =   -2169.27433580 Ry
     estimated scf accuracy    <       0.73655979 Ry

     iteration #  6     ecut=    50.00 Ry     beta= 0.30
     Davidson diagonalization with overlap

---- Real-time Memory Report at c_bands before calling an iterative solver
           177 MiB given to the printing process from OS
           150 MiB allocation reported by mallinfo(arena+hblkhd)
        103220 MiB available memory on the node where the printing process lives
------------------
     c_bands:  1 eigenvalues not converged
     c_bands:  1 eigenvalues not converged
     ethr =  1.60E-04,  avg # of iterations = 11.4

     total cpu time spent up to now is      309.3 secs

     total energy              =   -2169.37002171 Ry
     estimated scf accuracy    <       4.74653576 Ry

     iteration #  7     ecut=    50.00 Ry     beta= 0.30
     Davidson diagonalization with overlap

---- Real-time Memory Report at c_bands before calling an iterative solver
           178 MiB given to the printing process from OS
           153 MiB allocation reported by mallinfo(arena+hblkhd)
        103197 MiB available memory on the node where the printing process lives
------------------
     ethr =  1.60E-04,  avg # of iterations =  8.7

     total cpu time spent up to now is      376.2 secs

     total energy              =   -2169.80467578 Ry
     estimated scf accuracy    <       0.32289723 Ry

     iteration #  8     ecut=    50.00 Ry     beta= 0.30
     Davidson diagonalization with overlap

---- Real-time Memory Report at c_bands before calling an iterative solver
           179 MiB given to the printing process from OS
           153 MiB allocation reported by mallinfo(arena+hblkhd)
        103186 MiB available memory on the node where the printing process lives
------------------
     ethr =  1.49E-04,  avg # of iterations =  1.6

     total cpu time spent up to now is      400.7 secs

     total energy              =   -2169.80408442 Ry
     estimated scf accuracy    <       0.20001880 Ry

     iteration #  9     ecut=    50.00 Ry     beta= 0.30
     Davidson diagonalization with overlap

---- Real-time Memory Report at c_bands before calling an iterative solver
           179 MiB given to the printing process from OS
           153 MiB allocation reported by mallinfo(arena+hblkhd)
        103190 MiB available memory on the node where the printing process lives
------------------
     ethr =  9.26E-05,  avg # of iterations =  1.3

     total cpu time spent up to now is      424.6 secs

     total energy              =   -2169.73075022 Ry
     estimated scf accuracy    <       0.16265197 Ry

     iteration # 10     ecut=    50.00 Ry     beta= 0.30
     Davidson diagonalization with overlap

---- Real-time Memory Report at c_bands before calling an iterative solver
           180 MiB given to the printing process from OS
           153 MiB allocation reported by mallinfo(arena+hblkhd)
        103189 MiB available memory on the node where the printing process lives
------------------
     ethr =  7.53E-05,  avg # of iterations =  5.6

     total cpu time spent up to now is      469.2 secs

     total energy              =   -2169.79949642 Ry
     estimated scf accuracy    <       0.01326933 Ry

     iteration # 11     ecut=    50.00 Ry     beta= 0.30
     Davidson diagonalization with overlap

---- Real-time Memory Report at c_bands before calling an iterative solver
           180 MiB given to the printing process from OS
           153 MiB allocation reported by mallinfo(arena+hblkhd)
        103189 MiB available memory on the node where the printing process lives
------------------
     ethr =  6.14E-06,  avg # of iterations =  6.2

     total cpu time spent up to now is      507.8 secs

     total energy              =   -2169.80121159 Ry
     estimated scf accuracy    <       0.01529909 Ry

     iteration # 12     ecut=    50.00 Ry     beta= 0.30
     Davidson diagonalization with overlap

---- Real-time Memory Report at c_bands before calling an iterative solver
           181 MiB given to the printing process from OS
           155 MiB allocation reported by mallinfo(arena+hblkhd)
        103188 MiB available memory on the node where the printing process lives
------------------
     ethr =  6.14E-06,  avg # of iterations =  1.0

     total cpu time spent up to now is      530.4 secs

     total energy              =   -2169.79810121 Ry
     estimated scf accuracy    <       0.01174389 Ry

     iteration # 13     ecut=    50.00 Ry     beta= 0.30
     Davidson diagonalization with overlap

---- Real-time Memory Report at c_bands before calling an iterative solver
           181 MiB given to the printing process from OS
           155 MiB allocation reported by mallinfo(arena+hblkhd)
        103188 MiB available memory on the node where the printing process lives
------------------
     ethr =  5.44E-06,  avg # of iterations =  2.0

     total cpu time spent up to now is      556.5 secs

     total energy              =   -2169.79804799 Ry
     estimated scf accuracy    <       0.00382315 Ry

     iteration # 14     ecut=    50.00 Ry     beta= 0.30
     Davidson diagonalization with overlap

---- Real-time Memory Report at c_bands before calling an iterative solver
           181 MiB given to the printing process from OS
           155 MiB allocation reported by mallinfo(arena+hblkhd)
        103188 MiB available memory on the node where the printing process lives
------------------
     ethr =  1.77E-06,  avg # of iterations =  3.0

     total cpu time spent up to now is      587.9 secs

     total energy              =   -2169.79812763 Ry
     estimated scf accuracy    <       0.00138893 Ry

     iteration # 15     ecut=    50.00 Ry     beta= 0.30
     Davidson diagonalization with overlap

---- Real-time Memory Report at c_bands before calling an iterative solver
           181 MiB given to the printing process from OS
           155 MiB allocation reported by mallinfo(arena+hblkhd)
        103186 MiB available memory on the node where the printing process lives
------------------
     ethr =  6.43E-07,  avg # of iterations =  6.7

     total cpu time spent up to now is      639.1 secs

     total energy              =   -2169.79898049 Ry
     estimated scf accuracy    <       0.00007957 Ry

     iteration # 16     ecut=    50.00 Ry     beta= 0.30
     Davidson diagonalization with overlap

---- Real-time Memory Report at c_bands before calling an iterative solver
           181 MiB given to the printing process from OS
           155 MiB allocation reported by mallinfo(arena+hblkhd)
        103187 MiB available memory on the node where the printing process lives
------------------
     ethr =  3.68E-08,  avg # of iterations =  7.6

     total cpu time spent up to now is      694.3 secs

     total energy              =   -2169.79896888 Ry
     estimated scf accuracy    <       0.00027491 Ry

     iteration # 17     ecut=    50.00 Ry     beta= 0.30
     Davidson diagonalization with overlap

---- Real-time Memory Report at c_bands before calling an iterative solver
           181 MiB given to the printing process from OS
           155 MiB allocation reported by mallinfo(arena+hblkhd)
        103189 MiB available memory on the node where the printing process lives
------------------
     ethr =  3.68E-08,  avg # of iterations =  2.0

     total cpu time spent up to now is      720.2 secs

     total energy              =   -2169.79886796 Ry
     estimated scf accuracy    <       0.00014417 Ry

     iteration # 18     ecut=    50.00 Ry     beta= 0.30
     Davidson diagonalization with overlap

---- Real-time Memory Report at c_bands before calling an iterative solver
           181 MiB given to the printing process from OS
           155 MiB allocation reported by mallinfo(arena+hblkhd)
        103189 MiB available memory on the node where the printing process lives
------------------
     ethr =  3.68E-08,  avg # of iterations =  9.3

     total cpu time spent up to now is      792.4 secs

     total energy              =   -2169.79893397 Ry
     estimated scf accuracy    <       0.00028952 Ry

     iteration # 19     ecut=    50.00 Ry     beta= 0.30
     Davidson diagonalization with overlap

---- Real-time Memory Report at c_bands before calling an iterative solver
           181 MiB given to the printing process from OS
           155 MiB allocation reported by mallinfo(arena+hblkhd)
        103189 MiB available memory on the node where the printing process lives
------------------
     ethr =  3.68E-08,  avg # of iterations =  5.4

     total cpu time spent up to now is      832.0 secs

     total energy              =   -2169.79897586 Ry
     estimated scf accuracy    <       0.00003580 Ry

     iteration # 20     ecut=    50.00 Ry     beta= 0.30
     Davidson diagonalization with overlap

---- Real-time Memory Report at c_bands before calling an iterative solver
           181 MiB given to the printing process from OS
           155 MiB allocation reported by mallinfo(arena+hblkhd)
        103189 MiB available memory on the node where the printing process lives
------------------
     ethr =  1.66E-08,  avg # of iterations =  1.8

     total cpu time spent up to now is      857.0 secs

     total energy              =   -2169.79896185 Ry
     estimated scf accuracy    <       0.00006203 Ry

     iteration # 21     ecut=    50.00 Ry     beta= 0.30
     Davidson diagonalization with overlap

---- Real-time Memory Report at c_bands before calling an iterative solver
           181 MiB given to the printing process from OS
           155 MiB allocation reported by mallinfo(arena+hblkhd)
        103189 MiB available memory on the node where the printing process lives
------------------
     ethr =  1.66E-08,  avg # of iterations =  2.1

     total cpu time spent up to now is      884.3 secs

     total energy              =   -2169.79895551 Ry
     estimated scf accuracy    <       0.00003117 Ry

     iteration # 22     ecut=    50.00 Ry     beta= 0.30
     Davidson diagonalization with overlap

---- Real-time Memory Report at c_bands before calling an iterative solver
           181 MiB given to the printing process from OS
           155 MiB allocation reported by mallinfo(arena+hblkhd)
        103189 MiB available memory on the node where the printing process lives
------------------
     ethr =  1.44E-08,  avg # of iterations =  4.1

     total cpu time spent up to now is      916.5 secs

     total energy              =   -2169.79895807 Ry
     estimated scf accuracy    <       0.00000957 Ry

     iteration # 23     ecut=    50.00 Ry     beta= 0.30
     Davidson diagonalization with overlap

---- Real-time Memory Report at c_bands before calling an iterative solver
           181 MiB given to the printing process from OS
           155 MiB allocation reported by mallinfo(arena+hblkhd)
        103188 MiB available memory on the node where the printing process lives
------------------
     ethr =  4.43E-09,  avg # of iterations =  5.6

     total cpu time spent up to now is      956.0 secs

     total energy              =   -2169.79896030 Ry
     estimated scf accuracy    <       0.00000173 Ry

     iteration # 24     ecut=    50.00 Ry     beta= 0.30
     Davidson diagonalization with overlap

---- Real-time Memory Report at c_bands before calling an iterative solver
           181 MiB given to the printing process from OS
           155 MiB allocation reported by mallinfo(arena+hblkhd)
        103188 MiB available memory on the node where the printing process lives
------------------
     ethr =  8.02E-10,  avg # of iterations =  6.1

     total cpu time spent up to now is     1002.1 secs

     total energy              =   -2169.79896136 Ry
     estimated scf accuracy    <       0.00000009 Ry

     iteration # 25     ecut=    50.00 Ry     beta= 0.30
     Davidson diagonalization with overlap

---- Real-time Memory Report at c_bands before calling an iterative solver
           181 MiB given to the printing process from OS
           155 MiB allocation reported by mallinfo(arena+hblkhd)
        103188 MiB available memory on the node where the printing process lives
------------------
     ethr =  3.97E-11,  avg # of iterations =  9.5

     total cpu time spent up to now is     1075.5 secs

     total energy              =   -2169.79896127 Ry
     estimated scf accuracy    <       0.00000102 Ry

     iteration # 26     ecut=    50.00 Ry     beta= 0.30
     Davidson diagonalization with overlap

---- Real-time Memory Report at c_bands before calling an iterative solver
           181 MiB given to the printing process from OS
           155 MiB allocation reported by mallinfo(arena+hblkhd)
        103187 MiB available memory on the node where the printing process lives
------------------
     ethr =  3.97E-11,  avg # of iterations =  7.0

     total cpu time spent up to now is     1132.4 secs

     total energy              =   -2169.79896166 Ry
     estimated scf accuracy    <       0.00000023 Ry

     iteration # 27     ecut=    50.00 Ry     beta= 0.30
     Davidson diagonalization with overlap

---- Real-time Memory Report at c_bands before calling an iterative solver
           181 MiB given to the printing process from OS
           155 MiB allocation reported by mallinfo(arena+hblkhd)
        103187 MiB available memory on the node where the printing process lives
------------------
     ethr =  3.97E-11,  avg # of iterations =  9.2

     total cpu time spent up to now is     1204.1 secs

     total energy              =   -2169.79896148 Ry
     estimated scf accuracy    <       0.00000203 Ry

     iteration # 28     ecut=    50.00 Ry     beta= 0.30
     Davidson diagonalization with overlap

---- Real-time Memory Report at c_bands before calling an iterative solver
           181 MiB given to the printing process from OS
           155 MiB allocation reported by mallinfo(arena+hblkhd)
        103187 MiB available memory on the node where the printing process lives
------------------
     ethr =  3.97E-11,  avg # of iterations =  4.5

     total cpu time spent up to now is     1244.7 secs

     total energy              =   -2169.79896122 Ry
     estimated scf accuracy    <       0.00000106 Ry

     iteration # 29     ecut=    50.00 Ry     beta= 0.30
     Davidson diagonalization with overlap

---- Real-time Memory Report at c_bands before calling an iterative solver
           181 MiB given to the printing process from OS
           155 MiB allocation reported by mallinfo(arena+hblkhd)
        103187 MiB available memory on the node where the printing process lives
------------------
     ethr =  3.97E-11,  avg # of iterations =  7.7

     total cpu time spent up to now is     1305.5 secs

     total energy              =   -2169.79896126 Ry
     estimated scf accuracy    <       0.00000015 Ry

     iteration # 30     ecut=    50.00 Ry     beta= 0.30
     Davidson diagonalization with overlap

---- Real-time Memory Report at c_bands before calling an iterative solver
           181 MiB given to the printing process from OS
           155 MiB allocation reported by mallinfo(arena+hblkhd)
        103187 MiB available memory on the node where the printing process lives
------------------
     ethr =  3.97E-11,  avg # of iterations =  5.4

     total cpu time spent up to now is     1342.1 secs

     total energy              =   -2169.79896126 Ry
     estimated scf accuracy    <       0.00000002 Ry

     iteration # 31     ecut=    50.00 Ry     beta= 0.30
     Davidson diagonalization with overlap

---- Real-time Memory Report at c_bands before calling an iterative solver
           181 MiB given to the printing process from OS
           155 MiB allocation reported by mallinfo(arena+hblkhd)
        103187 MiB available memory on the node where the printing process lives
------------------
     ethr =  1.07E-11,  avg # of iterations =  9.2

     total cpu time spent up to now is     1411.8 secs

     total energy              =   -2169.79896128 Ry
     estimated scf accuracy    <       0.00000009 Ry

     iteration # 32     ecut=    50.00 Ry     beta= 0.30
     Davidson diagonalization with overlap

---- Real-time Memory Report at c_bands before calling an iterative solver
           181 MiB given to the printing process from OS
           155 MiB allocation reported by mallinfo(arena+hblkhd)
        103187 MiB available memory on the node where the printing process lives
------------------
     ethr =  1.07E-11,  avg # of iterations =  2.6

     total cpu time spent up to now is     1441.4 secs

     total energy              =   -2169.79896128 Ry
     estimated scf accuracy    <       0.00000004 Ry

     iteration # 33     ecut=    50.00 Ry     beta= 0.30
     Davidson diagonalization with overlap

---- Real-time Memory Report at c_bands before calling an iterative solver
           181 MiB given to the printing process from OS
           155 MiB allocation reported by mallinfo(arena+hblkhd)
        103187 MiB available memory on the node where the printing process lives
------------------
     ethr =  1.07E-11,  avg # of iterations =  4.9

     total cpu time spent up to now is     1485.6 secs

     End of self-consistent calculation

          k = 0.0000 0.0000 0.0000 ( 11587 PWs)   bands (ev):

   -10.8589 -10.7035 -10.7035 -10.3786 -10.3786 -10.2085 -10.1592 -10.1056
   -10.1056 -10.0067 -10.0067  -9.9619   1.1634   1.1634   1.2118   1.2118
     1.2804   1.3379   1.3379   1.4214   1.4214   1.4307   1.5032   1.5034
     1.5069   1.5337   1.5338   1.5340   1.5340   1.5641   1.6187   1.6187
     1.6189   1.6189   1.6744   1.6746   1.7824   1.8831   1.8831   2.1232
     2.1232   2.1426   2.1426   2.1431   2.1431   2.1887   2.2370   2.2689
     2.7174   2.7174   2.7445   2.7734   2.7734   2.7735   2.7735   2.8649
     2.8649   2.8649   2.8649   2.8860   2.8947   2.8947   2.8985   2.8986
     2.9042   2.9042   2.9231   2.9231   2.9523   3.0202   3.0202   3.0343
     3.2150   3.3913   3.3913   3.4406   3.4875   3.4875   3.6081   4.0988
     4.0988   4.4179   5.1002   5.2121   5.2121   5.4424   5.4424   5.6801
     5.6801   5.8935   5.9802   5.9802   6.0631   6.0631   6.3582   6.5504
     6.5508   6.7257   6.7257   6.7261   6.7261   7.0503   7.0732   7.0732
     7.0736   7.0736   7.2451   7.2455

     occupation numbers 
     1.0000   1.0000   1.0000   1.0000   1.0000   1.0000   1.0000   1.0000
     1.0000   1.0000   1.0000   1.0000   1.0000   1.0000   1.0000   1.0000
     1.0000   1.0000   1.0000   1.0000   1.0000   1.0000   1.0000   1.0000
     1.0000   1.0000   1.0000   1.0000   1.0000   1.0000   1.0000   1.0000
     1.0000   1.0000   1.0000   1.0000   1.0000   1.0000   1.0000   1.0000
     1.0000   1.0000   1.0000   1.0000   1.0000   1.0000   1.0000   1.0000
     1.0000   1.0000   1.0000   1.0000   1.0000   1.0000   1.0000   1.0000
     1.0000   1.0000   1.0000   1.0000   1.0000   1.0000   1.0000   1.0000
     1.0000   1.0000   1.0000   1.0000   1.0000   1.0000   1.0000   1.0000
     1.0000   1.0000   1.0000   1.0000   1.0000   1.0000   1.0000   1.0000
     1.0000   1.0000   1.0000   1.0000   1.0000   1.0000   1.0000   1.0000
     1.0000   1.0000   1.0000   1.0000   1.0000   1.0000   1.0000   1.0000
     1.0000   1.0000   1.0000   1.0000   1.0000   1.0000   1.0000   1.0000
     1.0000   1.0000   1.0000   1.0000

          k = 0.0000 0.0000 0.0662 ( 11575 PWs)   bands (ev):

   -10.8543 -10.7484 -10.6535 -10.4313 -10.3306 -10.2138 -10.1575 -10.1206
   -10.0892 -10.0215  -9.9936  -9.9632   1.1444   1.1748   1.1882   1.2573
     1.2756   1.3259   1.3615   1.3878   1.4214   1.4567   1.4968   1.5040
     1.5042   1.5244   1.5246   1.5450   1.5452   1.5590   1.6030   1.6032
     1.6337   1.6339   1.6726   1.6727   1.7853   1.8532   1.9174   2.0812
     2.1338   2.1349   2.1520   2.1565   2.1628   2.1866   2.2308   2.2641
     2.7192   2.7192   2.7525   2.7583   2.7583   2.7898   2.7898   2.8523
     2.8523   2.8719   2.8759   2.8759   2.8862   2.8919   2.8976   2.8977
     2.8979   2.9169   2.9297   2.9336   2.9511   3.0108   3.0266   3.0342
     3.2464   3.3931   3.3950   3.4361   3.4613   3.5154   3.6033   3.8671
     4.3460   4.4484   5.0191   5.1111   5.3478   5.4016   5.4082   5.5447
     5.9020   5.9331   5.9521   5.9684   5.9940   6.1480   6.3493   6.5558
     6.5561   6.6758   6.6762   6.7809   6.7813   6.9555   7.0187   7.0191
     7.1225   7.1229   7.2399   7.2403

     occupation numbers 
     1.0000   1.0000   1.0000   1.0000   1.0000   1.0000   1.0000   1.0000
     1.0000   1.0000   1.0000   1.0000   1.0000   1.0000   1.0000   1.0000
     1.0000   1.0000   1.0000   1.0000   1.0000   1.0000   1.0000   1.0000
     1.0000   1.0000   1.0000   1.0000   1.0000   1.0000   1.0000   1.0000
     1.0000   1.0000   1.0000   1.0000   1.0000   1.0000   1.0000   1.0000
     1.0000   1.0000   1.0000   1.0000   1.0000   1.0000   1.0000   1.0000
     1.0000   1.0000   1.0000   1.0000   1.0000   1.0000   1.0000   1.0000
     1.0000   1.0000   1.0000   1.0000   1.0000   1.0000   1.0000   1.0000
     1.0000   1.0000   1.0000   1.0000   1.0000   1.0000   1.0000   1.0000
     1.0000   1.0000   1.0000   1.0000   1.0000   1.0000   1.0000   1.0000
     1.0000   1.0000   1.0000   1.0000   1.0000   1.0000   1.0000   1.0000
     1.0000   1.0000   1.0000   1.0000   1.0000   1.0000   1.0000   1.0000
     1.0000   1.0000   1.0000   1.0000   1.0000   1.0000   1.0000   1.0000
     1.0000   1.0000   1.0000   1.0000

          k = 0.0000 0.0000 0.1324 ( 11550 PWs)   bands (ev):

   -10.8404 -10.7868 -10.5996 -10.4868 -10.2888 -10.2293 -10.1526 -10.1338
   -10.0720 -10.0377  -9.9825  -9.9671   1.1342   1.1488   1.2152   1.2619
     1.3067   1.3262   1.3590   1.3944   1.3946   1.4695   1.4906   1.5067
     1.5069   1.5167   1.5169   1.5443   1.5579   1.5582   1.5873   1.5875
     1.6472   1.6474   1.6674   1.6676   1.7939   1.8281   1.9553   2.0382
     2.1288   2.1298   2.1623   2.1739   2.1810   2.1985   2.2147   2.2502
     2.7250   2.7250   2.7446   2.7446   2.7740   2.8065   2.8065   2.8378
     2.8384   2.8384   2.8842   2.8842   2.8869   2.8898   2.8952   2.8952
     2.9019   2.9112   2.9365   2.9476   2.9593   2.9978   3.0305   3.0338
     3.3364   3.4003   3.4043   3.4249   3.4380   3.5431   3.5895   3.6568
     4.5354   4.6039   4.8338   5.1373   5.1433   5.2644   5.5769   5.6516
     5.8489   5.8664   5.9250   5.9821   6.2208   6.2228   6.3229   6.5717
     6.5720   6.6326   6.6329   6.7429   6.8397   6.8400   6.9604   6.9608
     7.1649   7.1653   7.2245   7.2249

     occupation numbers 
     1.0000   1.0000   1.0000   1.0000   1.0000   1.0000   1.0000   1.0000
     1.0000   1.0000   1.0000   1.0000   1.0000   1.0000   1.0000   1.0000
     1.0000   1.0000   1.0000   1.0000   1.0000   1.0000   1.0000   1.0000
     1.0000   1.0000   1.0000   1.0000   1.0000   1.0000   1.0000   1.0000
     1.0000   1.0000   1.0000   1.0000   1.0000   1.0000   1.0000   1.0000
     1.0000   1.0000   1.0000   1.0000   1.0000   1.0000   1.0000   1.0000
     1.0000   1.0000   1.0000   1.0000   1.0000   1.0000   1.0000   1.0000
     1.0000   1.0000   1.0000   1.0000   1.0000   1.0000   1.0000   1.0000
     1.0000   1.0000   1.0000   1.0000   1.0000   1.0000   1.0000   1.0000
     1.0000   1.0000   1.0000   1.0000   1.0000   1.0000   1.0000   1.0000
     1.0000   1.0000   1.0000   1.0000   1.0000   1.0000   1.0000   1.0000
     1.0000   1.0000   1.0000   1.0000   1.0000   1.0000   1.0000   1.0000
     1.0000   1.0000   1.0000   1.0000   1.0000   1.0000   1.0000   1.0000
     1.0000   1.0000   1.0000   1.0000

          k = 0.0000 0.0000-0.1985 ( 11556 PWs)   bands (ev):

   -10.8177 -10.8177 -10.5435 -10.5435 -10.2546 -10.2546 -10.1445 -10.1445
   -10.0547 -10.0547  -9.9736  -9.9736   1.1353   1.1353   1.2409   1.2409
     1.3377   1.3377   1.3546   1.3546   1.4326   1.4326   1.5108   1.5108
     1.5111   1.5111   1.5206   1.5206   1.5721   1.5721   1.5723   1.5723
     1.6587   1.6587   1.6588   1.6588   1.8084   1.8084   1.9957   1.9957
     2.1274   2.1274   2.1725   2.1725   2.1942   2.1942   2.2280   2.2280
     2.7334   2.7334   2.7334   2.7334   2.8042   2.8042   2.8229   2.8229
     2.8229   2.8229   2.8882   2.8882   2.8905   2.8905   2.8905   2.8905
     2.9061   2.9061   2.9426   2.9426   2.9806   2.9806   3.0328   3.0328
     3.4117   3.4117   3.4188   3.4188   3.4769   3.4769   3.5686   3.5686
     4.6683   4.6683   4.8686   4.8686   5.1952   5.1952   5.7285   5.7285
     5.7598   5.7598   5.9552   5.9553   6.2797   6.2797   6.4894   6.4894
     6.5975   6.5975   6.5979   6.5979   6.9001   6.9001   6.9005   6.9005
     7.1992   7.1992   7.1997   7.1997

     occupation numbers 
     1.0000   1.0000   1.0000   1.0000   1.0000   1.0000   1.0000   1.0000
     1.0000   1.0000   1.0000   1.0000   1.0000   1.0000   1.0000   1.0000
     1.0000   1.0000   1.0000   1.0000   1.0000   1.0000   1.0000   1.0000
     1.0000   1.0000   1.0000   1.0000   1.0000   1.0000   1.0000   1.0000
     1.0000   1.0000   1.0000   1.0000   1.0000   1.0000   1.0000   1.0000
     1.0000   1.0000   1.0000   1.0000   1.0000   1.0000   1.0000   1.0000
     1.0000   1.0000   1.0000   1.0000   1.0000   1.0000   1.0000   1.0000
     1.0000   1.0000   1.0000   1.0000   1.0000   1.0000   1.0000   1.0000
     1.0000   1.0000   1.0000   1.0000   1.0000   1.0000   1.0000   1.0000
     1.0000   1.0000   1.0000   1.0000   1.0000   1.0000   1.0000   1.0000
     1.0000   1.0000   1.0000   1.0000   1.0000   1.0000   1.0000   1.0000
     1.0000   1.0000   1.0000   1.0000   1.0000   1.0000   1.0000   1.0000
     1.0000   1.0000   1.0000   1.0000   1.0000   1.0000   1.0000   1.0000
     1.0000   1.0000   1.0000   1.0000

          k = 0.0000 0.3849 0.0000 ( 11543 PWs)   bands (ev):

   -10.7074 -10.5682 -10.5682 -10.2809 -10.2809 -10.1673 -10.1328 -10.1109
   -10.1109 -10.0061 -10.0061  -9.9582   1.2685   1.2685   1.2965   1.2965
     1.3296   1.3296   1.3475   1.3806   1.3880   1.3880   1.5906   1.6076
     1.6167   1.6305   1.6305   1.6559   1.6559   1.6899   1.7168   1.7168
     1.7336   1.7336   1.7643   1.7851   1.7987   1.8035   1.8035   1.9660
     1.9660   2.0467   2.1268   2.1268   2.1448   2.1448   2.2594   2.3152
     2.6534   2.6643   2.7150   2.7435   2.7435   2.7596   2.7686   2.7686
     2.7696   2.7696   2.8545   2.8545   2.8664   2.8664   2.8882   2.8882
     2.9079   2.9708   2.9779   2.9779   3.0163   3.1016   3.1016   3.1763
     3.1841   3.3267   3.5162   3.5162   3.8524   3.8525   3.9370   4.1679
     4.1679   4.3907   4.7157   4.8318   4.8318   5.2705   5.2705   5.4264
     5.4264   5.5952   5.6487   5.6488   5.8608   5.9346   5.9346   6.0486
     6.0486   6.0688   6.1192   6.2066   6.4193   6.4193   6.5314   6.5314
     6.8362   6.8362   6.8871   7.0414

     occupation numbers 
     1.0000   1.0000   1.0000   1.0000   1.0000   1.0000   1.0000   1.0000
     1.0000   1.0000   1.0000   1.0000   1.0000   1.0000   1.0000   1.0000
     1.0000   1.0000   1.0000   1.0000   1.0000   1.0000   1.0000   1.0000
     1.0000   1.0000   1.0000   1.0000   1.0000   1.0000   1.0000   1.0000
     1.0000   1.0000   1.0000   1.0000   1.0000   1.0000   1.0000   1.0000
     1.0000   1.0000   1.0000   1.0000   1.0000   1.0000   1.0000   1.0000
     1.0000   1.0000   1.0000   1.0000   1.0000   1.0000   1.0000   1.0000
     1.0000   1.0000   1.0000   1.0000   1.0000   1.0000   1.0000   1.0000
     1.0000   1.0000   1.0000   1.0000   1.0000   1.0000   1.0000   1.0000
     1.0000   1.0000   1.0000   1.0000   1.0000   1.0000   1.0000   1.0000
     1.0000   1.0000   1.0000   1.0000   1.0000   1.0000   1.0000   1.0000
     1.0000   1.0000   1.0000   1.0000   1.0000   1.0000   1.0000   1.0000
     1.0000   1.0000   1.0000   1.0000   1.0000   1.0000   1.0000   1.0000
     1.0000   1.0000   1.0000   1.0000

          k = 0.0000 0.3849 0.0662 ( 11547 PWs)   bands (ev):

   -10.7032 -10.6082 -10.5236 -10.3271 -10.2389 -10.1655 -10.1373 -10.1267
   -10.0936 -10.0219  -9.9921  -9.9596   1.2541   1.2836   1.2869   1.2911
     1.3152   1.3431   1.3447   1.3777   1.3796   1.4400   1.5917   1.5951
     1.6081   1.6183   1.6447   1.6551   1.6600   1.6837   1.7028   1.7150
     1.7305   1.7511   1.7636   1.7840   1.7893   1.7966   1.8240   1.9396
     1.9884   2.0439   2.1112   2.1258   2.1508   2.1688   2.2544   2.3018
     2.6566   2.6632   2.7167   2.7198   2.7386   2.7543   2.7686   2.7725
     2.7860   2.7964   2.8499   2.8522   2.8539   2.8667   2.8787   2.9067
     2.9083   2.9705   2.9722   2.9877   2.9987   3.0732   3.1297   3.1854
     3.2280   3.3289   3.4603   3.5740   3.8017   3.8969   3.9370   3.9426
     4.4017   4.4024   4.7116   4.7333   4.9560   5.1304   5.2580   5.3506
     5.5581   5.6003   5.6268   5.7203   5.8617   5.8919   6.0053   6.0079
     6.0651   6.0652   6.1006   6.2131   6.3589   6.4220   6.4859   6.6330
     6.7710   6.8768   6.8950   7.0352

     occupation numbers 
     1.0000   1.0000   1.0000   1.0000   1.0000   1.0000   1.0000   1.0000
     1.0000   1.0000   1.0000   1.0000   1.0000   1.0000   1.0000   1.0000
     1.0000   1.0000   1.0000   1.0000   1.0000   1.0000   1.0000   1.0000
     1.0000   1.0000   1.0000   1.0000   1.0000   1.0000   1.0000   1.0000
     1.0000   1.0000   1.0000   1.0000   1.0000   1.0000   1.0000   1.0000
     1.0000   1.0000   1.0000   1.0000   1.0000   1.0000   1.0000   1.0000
     1.0000   1.0000   1.0000   1.0000   1.0000   1.0000   1.0000   1.0000
     1.0000   1.0000   1.0000   1.0000   1.0000   1.0000   1.0000   1.0000
     1.0000   1.0000   1.0000   1.0000   1.0000   1.0000   1.0000   1.0000
     1.0000   1.0000   1.0000   1.0000   1.0000   1.0000   1.0000   1.0000
     1.0000   1.0000   1.0000   1.0000   1.0000   1.0000   1.0000   1.0000
     1.0000   1.0000   1.0000   1.0000   1.0000   1.0000   1.0000   1.0000
     1.0000   1.0000   1.0000   1.0000   1.0000   1.0000   1.0000   1.0000
     1.0000   1.0000   1.0000   1.0000

          k = 0.0000 0.3849 0.1324 ( 11537 PWs)   bands (ev):

   -10.6908 -10.6426 -10.4757 -10.3760 -10.2025 -10.1603 -10.1508 -10.1406
   -10.0755 -10.0391  -9.9802  -9.9638   1.2473   1.2648   1.2799   1.3061
     1.3091   1.3358   1.3366   1.3689   1.4385   1.4939   1.5573   1.5829
     1.5949   1.6083   1.6577   1.6606   1.6674   1.6725   1.6893   1.6963
     1.7429   1.7602   1.7669   1.7816   1.7817   1.7902   1.8499   1.9100
     2.0074   2.0358   2.1043   2.1124   2.1826   2.1961   2.2399   2.2678
     2.6658   2.6680   2.6982   2.7092   2.7216   2.7409   2.7941   2.7983
     2.8031   2.8196   2.8367   2.8395   2.8436   2.8483   2.8890   2.9031
     2.9279   2.9695   2.9696   2.9714   3.0024   3.0462   3.1552   3.1848
     3.3401   3.3512   3.4092   3.6324   3.7176   3.7472   3.9311   3.9517
     4.4385   4.6002   4.6339   4.7860   4.9907   5.0662   5.0806   5.3048
     5.6140   5.6253   5.7119   5.7887   5.8585   5.9066   5.9313   6.0484
     6.0586   6.0638   6.0986   6.2324   6.3065   6.3101   6.5565   6.7012
     6.7218   6.8457   6.9456   7.0167

     occupation numbers 
     1.0000   1.0000   1.0000   1.0000   1.0000   1.0000   1.0000   1.0000
     1.0000   1.0000   1.0000   1.0000   1.0000   1.0000   1.0000   1.0000
     1.0000   1.0000   1.0000   1.0000   1.0000   1.0000   1.0000   1.0000
     1.0000   1.0000   1.0000   1.0000   1.0000   1.0000   1.0000   1.0000
     1.0000   1.0000   1.0000   1.0000   1.0000   1.0000   1.0000   1.0000
     1.0000   1.0000   1.0000   1.0000   1.0000   1.0000   1.0000   1.0000
     1.0000   1.0000   1.0000   1.0000   1.0000   1.0000   1.0000   1.0000
     1.0000   1.0000   1.0000   1.0000   1.0000   1.0000   1.0000   1.0000
     1.0000   1.0000   1.0000   1.0000   1.0000   1.0000   1.0000   1.0000
     1.0000   1.0000   1.0000   1.0000   1.0000   1.0000   1.0000   1.0000
     1.0000   1.0000   1.0000   1.0000   1.0000   1.0000   1.0000   1.0000
     1.0000   1.0000   1.0000   1.0000   1.0000   1.0000   1.0000   1.0000
     1.0000   1.0000   1.0000   1.0000   1.0000   1.0000   1.0000   1.0000
     1.0000   1.0000   1.0000   1.0000

          k = 0.0000 0.3849-0.1985 ( 11538 PWs)   bands (ev):

   -10.6704 -10.6704 -10.4260 -10.4260 -10.1728 -10.1728 -10.1519 -10.1519
   -10.0571 -10.0571  -9.9707  -9.9707   1.2503   1.2503   1.2879   1.2879
     1.3233   1.3233   1.3545   1.3545   1.5010   1.5010   1.5435   1.5435
     1.6005   1.6005   1.6635   1.6635   1.6773   1.6773   1.6779   1.6779
     1.7531   1.7531   1.7799   1.7799   1.7802   1.7802   1.8792   1.8792
     2.0234   2.0234   2.1050   2.1050   2.2163   2.2163   2.2278   2.2278
     2.6800   2.6800   2.6843   2.6843   2.7298   2.7298   2.8193   2.8193
     2.8202   2.8202   2.8223   2.8223   2.8369   2.8369   2.8973   2.8973
     2.9481   2.9481   2.9690   2.9690   3.0221   3.0221   3.1749   3.1749
     3.3673   3.3673   3.5187   3.5187   3.6904   3.6904   3.9501   3.9501
     4.5059   4.5059   4.8567   4.8567   4.8729   4.8729   5.2006   5.2006
     5.6298   5.6298   5.8292   5.8292   5.8368   5.8368   5.9744   5.9744
     6.0579   6.0579   6.2009   6.2009   6.2639   6.2639   6.6290   6.6290
     6.7936   6.7936   6.9866   6.9866

     occupation numbers 
     1.0000   1.0000   1.0000   1.0000   1.0000   1.0000   1.0000   1.0000
     1.0000   1.0000   1.0000   1.0000   1.0000   1.0000   1.0000   1.0000
     1.0000   1.0000   1.0000   1.0000   1.0000   1.0000   1.0000   1.0000
     1.0000   1.0000   1.0000   1.0000   1.0000   1.0000   1.0000   1.0000
     1.0000   1.0000   1.0000   1.0000   1.0000   1.0000   1.0000   1.0000
     1.0000   1.0000   1.0000   1.0000   1.0000   1.0000   1.0000   1.0000
     1.0000   1.0000   1.0000   1.0000   1.0000   1.0000   1.0000   1.0000
     1.0000   1.0000   1.0000   1.0000   1.0000   1.0000   1.0000   1.0000
     1.0000   1.0000   1.0000   1.0000   1.0000   1.0000   1.0000   1.0000
     1.0000   1.0000   1.0000   1.0000   1.0000   1.0000   1.0000   1.0000
     1.0000   1.0000   1.0000   1.0000   1.0000   1.0000   1.0000   1.0000
     1.0000   1.0000   1.0000   1.0000   1.0000   1.0000   1.0000   1.0000
     1.0000   1.0000   1.0000   1.0000   1.0000   1.0000   1.0000   1.0000
     1.0000   1.0000   1.0000   1.0000

          k = 0.0000 0.7698 0.0000 ( 11569 PWs)   bands (ev):

   -10.3694 -10.2753 -10.2753 -10.1673 -10.1109 -10.1109 -10.0893 -10.0893
   -10.0062 -10.0061  -9.9980  -9.9582   1.1258   1.1258   1.1877   1.2675
     1.2675   1.2966   1.2966   1.3807   1.3880   1.3880   1.5338   1.6166
     1.7340   1.7851   1.8034   1.8034   1.8093   1.8093   1.9175   1.9175
     1.9625   1.9660   1.9660   1.9868   1.9868   1.9976   1.9976   2.0467
     2.0924   2.1267   2.1267   2.1449   2.1449   2.2270   2.2594   2.3152
     2.6032   2.6644   2.7401   2.7401   2.7596   2.7687   2.7687   2.7888
     2.8200   2.8200   2.8546   2.8546   2.8885   2.8885   2.9292   2.9529
     2.9529   2.9708   2.9779   2.9779   3.1016   3.1016   3.1092   3.1842
     3.3267   3.3502   3.5162   3.5162   3.8525   3.8525   3.9371   3.9381
     3.9381   4.0509   4.3076   4.3076   4.3907   4.7155   4.8317   4.8317
     4.9487   5.1269   5.1269   5.2704   5.2705   5.4958   5.6486   5.6486
     5.7865   5.7865   5.8606   6.0486   6.0486   6.0687   6.1708   6.1708
     6.3345   6.3345   6.3596   6.5996

     occupation numbers 
     1.0000   1.0000   1.0000   1.0000   1.0000   1.0000   1.0000   1.0000
     1.0000   1.0000   1.0000   1.0000   1.0000   1.0000   1.0000   1.0000
     1.0000   1.0000   1.0000   1.0000   1.0000   1.0000   1.0000   1.0000
     1.0000   1.0000   1.0000   1.0000   1.0000   1.0000   1.0000   1.0000
     1.0000   1.0000   1.0000   1.0000   1.0000   1.0000   1.0000   1.0000
     1.0000   1.0000   1.0000   1.0000   1.0000   1.0000   1.0000   1.0000
     1.0000   1.0000   1.0000   1.0000   1.0000   1.0000   1.0000   1.0000
     1.0000   1.0000   1.0000   1.0000   1.0000   1.0000   1.0000   1.0000
     1.0000   1.0000   1.0000   1.0000   1.0000   1.0000   1.0000   1.0000
     1.0000   1.0000   1.0000   1.0000   1.0000   1.0000   1.0000   1.0000
     1.0000   1.0000   1.0000   1.0000   1.0000   1.0000   1.0000   1.0000
     1.0000   1.0000   1.0000   1.0000   1.0000   1.0000   1.0000   1.0000
     1.0000   1.0000   1.0000   1.0000   1.0000   1.0000   1.0000   1.0000
     1.0000   1.0000   1.0000   1.0000

          k = 0.0000 0.7698 0.0662 ( 11574 PWs)   bands (ev):

   -10.3665 -10.3021 -10.2457 -10.1655 -10.1267 -10.1184 -10.0936 -10.0631
   -10.0219 -10.0008  -9.9921  -9.9596   1.1220   1.1362   1.1848   1.2148
     1.2836   1.3153   1.3277   1.3431   1.3778   1.4401   1.5237   1.6080
     1.7362   1.7840   1.7870   1.7892   1.8239   1.8348   1.9179   1.9221
     1.9395   1.9560   1.9597   1.9711   1.9884   2.0156   2.0304   2.0439
     2.0890   2.1112   2.1259   2.1507   2.1689   2.2103   2.2544   2.3017
     2.6081   2.6633   2.7051   2.7387   2.7725   2.7766   2.7896   2.7964
     2.8109   2.8301   2.8499   2.8539   2.8769   2.8995   2.9200   2.9278
     2.9705   2.9722   2.9839   2.9877   3.0732   3.0955   3.1297   3.1855
     3.3289   3.3929   3.4604   3.5741   3.8018   3.8452   3.8970   3.9426
     4.0215   4.0640   4.2819   4.2944   4.4017   4.7115   4.7332   4.9431
     4.9559   4.9971   5.1303   5.3055   5.3505   5.5048   5.6267   5.7050
     5.7202   5.8616   5.8754   6.0053   6.0458   6.0651   6.0652   6.2499
     6.2607   6.3599   6.4106   6.5916

     occupation numbers 
     1.0000   1.0000   1.0000   1.0000   1.0000   1.0000   1.0000   1.0000
     1.0000   1.0000   1.0000   1.0000   1.0000   1.0000   1.0000   1.0000
     1.0000   1.0000   1.0000   1.0000   1.0000   1.0000   1.0000   1.0000
     1.0000   1.0000   1.0000   1.0000   1.0000   1.0000   1.0000   1.0000
     1.0000   1.0000   1.0000   1.0000   1.0000   1.0000   1.0000   1.0000
     1.0000   1.0000   1.0000   1.0000   1.0000   1.0000   1.0000   1.0000
     1.0000   1.0000   1.0000   1.0000   1.0000   1.0000   1.0000   1.0000
     1.0000   1.0000   1.0000   1.0000   1.0000   1.0000   1.0000   1.0000
     1.0000   1.0000   1.0000   1.0000   1.0000   1.0000   1.0000   1.0000
     1.0000   1.0000   1.0000   1.0000   1.0000   1.0000   1.0000   1.0000
     1.0000   1.0000   1.0000   1.0000   1.0000   1.0000   1.0000   1.0000
     1.0000   1.0000   1.0000   1.0000   1.0000   1.0000   1.0000   1.0000
     1.0000   1.0000   1.0000   1.0000   1.0000   1.0000   1.0000   1.0000
     1.0000   1.0000   1.0000   1.0000

          k = 0.0000 0.7698 0.1324 ( 11570 PWs)   bands (ev):

   -10.3580 -10.3253 -10.2142 -10.1603 -10.1495 -10.1406 -10.0755 -10.0406
   -10.0391 -10.0090  -9.9802  -9.9638   1.1274   1.1500   1.1731   1.1766
     1.2799   1.3092   1.3359   1.3690   1.3902   1.4939   1.4943   1.5828
     1.7426   1.7683   1.7816   1.7816   1.8498   1.8629   1.9099   1.9235
     1.9244   1.9307   1.9502   1.9521   2.0075   2.0359   2.0413   2.0706
     2.0789   2.1043   2.1124   2.1684   2.1825   2.1961   2.2399   2.2677
     2.6222   2.6681   2.6726   2.7093   2.7923   2.7983   2.8032   2.8135
     2.8197   2.8395   2.8412   2.8483   2.8649   2.8856   2.9093   2.9238
     2.9696   2.9696   3.0024   3.0134   3.0462   3.0691   3.1553   3.1849
     3.3401   3.4093   3.4947   3.6325   3.7388   3.7472   3.9312   3.9518
     4.0983   4.1031   4.2322   4.2390   4.4385   4.6002   4.7858   4.9296
     4.9325   4.9906   5.0804   5.3046   5.5053   5.5317   5.6337   5.7119
     5.7885   5.8583   5.8882   5.9313   5.9691   6.0586   6.0638   6.1590
     6.3175   6.3581   6.4760   6.5678

     occupation numbers 
     1.0000   1.0000   1.0000   1.0000   1.0000   1.0000   1.0000   1.0000
     1.0000   1.0000   1.0000   1.0000   1.0000   1.0000   1.0000   1.0000
     1.0000   1.0000   1.0000   1.0000   1.0000   1.0000   1.0000   1.0000
     1.0000   1.0000   1.0000   1.0000   1.0000   1.0000   1.0000   1.0000
     1.0000   1.0000   1.0000   1.0000   1.0000   1.0000   1.0000   1.0000
     1.0000   1.0000   1.0000   1.0000   1.0000   1.0000   1.0000   1.0000
     1.0000   1.0000   1.0000   1.0000   1.0000   1.0000   1.0000   1.0000
     1.0000   1.0000   1.0000   1.0000   1.0000   1.0000   1.0000   1.0000
     1.0000   1.0000   1.0000   1.0000   1.0000   1.0000   1.0000   1.0000
     1.0000   1.0000   1.0000   1.0000   1.0000   1.0000   1.0000   1.0000
     1.0000   1.0000   1.0000   1.0000   1.0000   1.0000   1.0000   1.0000
     1.0000   1.0000   1.0000   1.0000   1.0000   1.0000   1.0000   1.0000
     1.0000   1.0000   1.0000   1.0000   1.0000   1.0000   1.0000   1.0000
     1.0000   1.0000   1.0000   1.0000

          k = 0.0000 0.7698-0.1985 ( 11580 PWs)   bands (ev):

   -10.3441 -10.3441 -10.1818 -10.1818 -10.1519 -10.1519 -10.0571 -10.0571
   -10.0224 -10.0224  -9.9707  -9.9707   1.1439   1.1439   1.1644   1.1644
     1.2880   1.2880   1.3546   1.3546   1.4481   1.4481   1.5434   1.5434
     1.7534   1.7534   1.7798   1.7798   1.8791   1.8791   1.8930   1.8930
     1.9343   1.9343   1.9415   1.9415   2.0234   2.0234   2.0627   2.0627
     2.1050   2.1050   2.1180   2.1180   2.2163   2.2163   2.2277   2.2277
     2.6444   2.6444   2.6844   2.6844   2.7969   2.7969   2.8223   2.8223
     2.8370   2.8370   2.8498   2.8498   2.8528   2.8528   2.9175   2.9175
     2.9690   2.9690   3.0221   3.0221   3.0415   3.0415   3.1749   3.1749
     3.3673   3.3673   3.6183   3.6183   3.6905   3.6905   3.9502   3.9502
     4.1657   4.1657   4.1691   4.1691   4.5059   4.5059   4.8727   4.8727
     4.9193   4.9193   5.2004   5.2005   5.5752   5.5752   5.7045   5.7045
     5.8291   5.8291   5.8366   5.8366   6.0578   6.0578   6.0645   6.0645
     6.3471   6.3471   6.5289   6.5289

     occupation numbers 
     1.0000   1.0000   1.0000   1.0000   1.0000   1.0000   1.0000   1.0000
     1.0000   1.0000   1.0000   1.0000   1.0000   1.0000   1.0000   1.0000
     1.0000   1.0000   1.0000   1.0000   1.0000   1.0000   1.0000   1.0000
     1.0000   1.0000   1.0000   1.0000   1.0000   1.0000   1.0000   1.0000
     1.0000   1.0000   1.0000   1.0000   1.0000   1.0000   1.0000   1.0000
     1.0000   1.0000   1.0000   1.0000   1.0000   1.0000   1.0000   1.0000
     1.0000   1.0000   1.0000   1.0000   1.0000   1.0000   1.0000   1.0000
     1.0000   1.0000   1.0000   1.0000   1.0000   1.0000   1.0000   1.0000
     1.0000   1.0000   1.0000   1.0000   1.0000   1.0000   1.0000   1.0000
     1.0000   1.0000   1.0000   1.0000   1.0000   1.0000   1.0000   1.0000
     1.0000   1.0000   1.0000   1.0000   1.0000   1.0000   1.0000   1.0000
     1.0000   1.0000   1.0000   1.0000   1.0000   1.0000   1.0000   1.0000
     1.0000   1.0000   1.0000   1.0000   1.0000   1.0000   1.0000   1.0000
     1.0000   1.0000   1.0000   1.0000

          k = 0.0000-1.1547 0.0000 ( 11612 PWs)   bands (ev):

   -10.1592 -10.1592 -10.1056 -10.1056 -10.1056 -10.1056 -10.0067 -10.0067
   -10.0067 -10.0067  -9.9619  -9.9619   1.1634   1.1634   1.1634   1.1634
     1.2119   1.2119   1.2119   1.2119   1.2805   1.2805   1.4309   1.4309
     1.7822   1.7822   1.8830   1.8830   1.8830   1.8830   2.1230   2.1230
     2.1230   2.1230   2.1426   2.1426   2.1426   2.1426   2.1431   2.1431
     2.1431   2.1431   2.1887   2.1887   2.2371   2.2371   2.2687   2.2687
     2.7445   2.7445   2.8860   2.8860   2.8947   2.8947   2.8947   2.8947
     2.9043   2.9043   2.9043   2.9043   2.9232   2.9232   2.9232   2.9232
     2.9523   2.9523   3.0203   3.0203   3.0203   3.0203   3.0344   3.0344
     3.3914   3.3914   3.3914   3.3914   3.4407   3.4407   3.4876   3.4876
     3.4876   3.4876   3.6082   3.6082   4.4179   4.4179   5.1000   5.1000
     5.2121   5.2121   5.2121   5.2121   5.4421   5.4421   5.4421   5.4421
     5.8934   5.8934   5.9803   5.9803   5.9803   5.9803   6.0628   6.0628
     6.0628   6.0628   6.3579   6.3579

     occupation numbers 
     1.0000   1.0000   1.0000   1.0000   1.0000   1.0000   1.0000   1.0000
     1.0000   1.0000   1.0000   1.0000   1.0000   1.0000   1.0000   1.0000
     1.0000   1.0000   1.0000   1.0000   1.0000   1.0000   1.0000   1.0000
     1.0000   1.0000   1.0000   1.0000   1.0000   1.0000   1.0000   1.0000
     1.0000   1.0000   1.0000   1.0000   1.0000   1.0000   1.0000   1.0000
     1.0000   1.0000   1.0000   1.0000   1.0000   1.0000   1.0000   1.0000
     1.0000   1.0000   1.0000   1.0000   1.0000   1.0000   1.0000   1.0000
     1.0000   1.0000   1.0000   1.0000   1.0000   1.0000   1.0000   1.0000
     1.0000   1.0000   1.0000   1.0000   1.0000   1.0000   1.0000   1.0000
     1.0000   1.0000   1.0000   1.0000   1.0000   1.0000   1.0000   1.0000
     1.0000   1.0000   1.0000   1.0000   1.0000   1.0000   1.0000   1.0000
     1.0000   1.0000   1.0000   1.0000   1.0000   1.0000   1.0000   1.0000
     1.0000   1.0000   1.0000   1.0000   1.0000   1.0000   1.0000   1.0000
     1.0000   1.0000   1.0000   1.0000

          k = 0.0000-1.1547 0.0662 ( 11612 PWs)   bands (ev):

   -10.1575 -10.1575 -10.1206 -10.1206 -10.0892 -10.0892 -10.0215 -10.0215
    -9.9936  -9.9936  -9.9632  -9.9632   1.1445   1.1445   1.1748   1.1748
     1.1882   1.1882   1.2574   1.2574   1.2757   1.2757   1.4215   1.4215
     1.7851   1.7851   1.8530   1.8530   1.9172   1.9172   2.0810   2.0810
     2.1339   2.1339   2.1349   2.1349   2.1520   2.1520   2.1566   2.1566
     2.1627   2.1627   2.1867   2.1867   2.2309   2.2309   2.2640   2.2640
     2.7525   2.7525   2.8720   2.8720   2.8863   2.8863   2.8919   2.8919
     2.8980   2.8980   2.9170   2.9170   2.9297   2.9297   2.9336   2.9336
     2.9511   2.9511   3.0109   3.0109   3.0267   3.0267   3.0343   3.0343
     3.3932   3.3932   3.3951   3.3951   3.4363   3.4363   3.4614   3.4614
     3.5154   3.5154   3.6034   3.6034   4.4484   4.4484   5.0191   5.0191
     5.1109   5.1109   5.3476   5.3476   5.4016   5.4016   5.5445   5.5445
     5.9020   5.9020   5.9331   5.9331   5.9681   5.9681   5.9940   5.9940
     6.1477   6.1477   6.3490   6.3490

     occupation numbers 
     1.0000   1.0000   1.0000   1.0000   1.0000   1.0000   1.0000   1.0000
     1.0000   1.0000   1.0000   1.0000   1.0000   1.0000   1.0000   1.0000
     1.0000   1.0000   1.0000   1.0000   1.0000   1.0000   1.0000   1.0000
     1.0000   1.0000   1.0000   1.0000   1.0000   1.0000   1.0000   1.0000
     1.0000   1.0000   1.0000   1.0000   1.0000   1.0000   1.0000   1.0000
     1.0000   1.0000   1.0000   1.0000   1.0000   1.0000   1.0000   1.0000
     1.0000   1.0000   1.0000   1.0000   1.0000   1.0000   1.0000   1.0000
     1.0000   1.0000   1.0000   1.0000   1.0000   1.0000   1.0000   1.0000
     1.0000   1.0000   1.0000   1.0000   1.0000   1.0000   1.0000   1.0000
     1.0000   1.0000   1.0000   1.0000   1.0000   1.0000   1.0000   1.0000
     1.0000   1.0000   1.0000   1.0000   1.0000   1.0000   1.0000   1.0000
     1.0000   1.0000   1.0000   1.0000   1.0000   1.0000   1.0000   1.0000
     1.0000   1.0000   1.0000   1.0000   1.0000   1.0000   1.0000   1.0000
     1.0000   1.0000   1.0000   1.0000

          k = 0.0000-1.1547 0.1324 ( 11600 PWs)   bands (ev):

   -10.1526 -10.1526 -10.1338 -10.1338 -10.0720 -10.0720 -10.0377 -10.0377
    -9.9825  -9.9825  -9.9672  -9.9672   1.1343   1.1343   1.1489   1.1489
     1.2153   1.2153   1.2620   1.2620   1.3068   1.3068   1.3948   1.3948
     1.7937   1.7937   1.8280   1.8280   1.9551   1.9551   2.0380   2.0380
     2.1289   2.1289   2.1298   2.1298   2.1624   2.1624   2.1740   2.1740
     2.1811   2.1811   2.1983   2.1983   2.2147   2.2147   2.2500   2.2500
     2.7740   2.7740   2.8379   2.8379   2.8870   2.8870   2.8898   2.8898
     2.9019   2.9019   2.9113   2.9113   2.9365   2.9365   2.9476   2.9476
     2.9593   2.9593   2.9979   2.9979   3.0306   3.0306   3.0339   3.0339
     3.4004   3.4004   3.4044   3.4044   3.4250   3.4250   3.4381   3.4381
     3.5432   3.5432   3.5896   3.5896   4.5355   4.5355   4.8338   4.8338
     5.1431   5.1431   5.2641   5.2641   5.5769   5.5769   5.6513   5.6513
     5.8489   5.8489   5.8662   5.8662   5.9250   5.9250   5.9821   5.9821
     6.2205   6.2205   6.3226   6.3226

     occupation numbers 
     1.0000   1.0000   1.0000   1.0000   1.0000   1.0000   1.0000   1.0000
     1.0000   1.0000   1.0000   1.0000   1.0000   1.0000   1.0000   1.0000
     1.0000   1.0000   1.0000   1.0000   1.0000   1.0000   1.0000   1.0000
     1.0000   1.0000   1.0000   1.0000   1.0000   1.0000   1.0000   1.0000
     1.0000   1.0000   1.0000   1.0000   1.0000   1.0000   1.0000   1.0000
     1.0000   1.0000   1.0000   1.0000   1.0000   1.0000   1.0000   1.0000
     1.0000   1.0000   1.0000   1.0000   1.0000   1.0000   1.0000   1.0000
     1.0000   1.0000   1.0000   1.0000   1.0000   1.0000   1.0000   1.0000
     1.0000   1.0000   1.0000   1.0000   1.0000   1.0000   1.0000   1.0000
     1.0000   1.0000   1.0000   1.0000   1.0000   1.0000   1.0000   1.0000
     1.0000   1.0000   1.0000   1.0000   1.0000   1.0000   1.0000   1.0000
     1.0000   1.0000   1.0000   1.0000   1.0000   1.0000   1.0000   1.0000
     1.0000   1.0000   1.0000   1.0000   1.0000   1.0000   1.0000   1.0000
     1.0000   1.0000   1.0000   1.0000

          k = 0.0000-1.1547-0.1985 ( 11600 PWs)   bands (ev):

   -10.1445 -10.1445 -10.1445 -10.1445 -10.0547 -10.0547 -10.0547 -10.0547
    -9.9736  -9.9736  -9.9736  -9.9736   1.1354   1.1354   1.1354   1.1354
     1.2410   1.2410   1.2410   1.2410   1.3547   1.3547   1.3547   1.3547
     1.8082   1.8082   1.8082   1.8082   1.9955   1.9955   1.9955   1.9955
     2.1275   2.1275   2.1275   2.1275   2.1726   2.1726   2.1726   2.1726
     2.1942   2.1942   2.1942   2.1942   2.2279   2.2279   2.2279   2.2279
     2.8042   2.8042   2.8042   2.8042   2.8882   2.8882   2.8882   2.8882
     2.9061   2.9061   2.9061   2.9061   2.9427   2.9427   2.9427   2.9427
     2.9807   2.9807   2.9807   2.9807   3.0329   3.0329   3.0329   3.0329
     3.4118   3.4118   3.4118   3.4118   3.4189   3.4189   3.4189   3.4189
     3.5687   3.5687   3.5687   3.5687   4.6683   4.6683   4.6683   4.6683
     5.1950   5.1950   5.1950   5.1950   5.7286   5.7286   5.7286   5.7286
     5.7596   5.7596   5.7596   5.7596   5.9552   5.9552   5.9552   5.9552
     6.2794   6.2794   6.2794   6.2794

     occupation numbers 
     1.0000   1.0000   1.0000   1.0000   1.0000   1.0000   1.0000   1.0000
     1.0000   1.0000   1.0000   1.0000   1.0000   1.0000   1.0000   1.0000
     1.0000   1.0000   1.0000   1.0000   1.0000   1.0000   1.0000   1.0000
     1.0000   1.0000   1.0000   1.0000   1.0000   1.0000   1.0000   1.0000
     1.0000   1.0000   1.0000   1.0000   1.0000   1.0000   1.0000   1.0000
     1.0000   1.0000   1.0000   1.0000   1.0000   1.0000   1.0000   1.0000
     1.0000   1.0000   1.0000   1.0000   1.0000   1.0000   1.0000   1.0000
     1.0000   1.0000   1.0000   1.0000   1.0000   1.0000   1.0000   1.0000
     1.0000   1.0000   1.0000   1.0000   1.0000   1.0000   1.0000   1.0000
     1.0000   1.0000   1.0000   1.0000   1.0000   1.0000   1.0000   1.0000
     1.0000   1.0000   1.0000   1.0000   1.0000   1.0000   1.0000   1.0000
     1.0000   1.0000   1.0000   1.0000   1.0000   1.0000   1.0000   1.0000
     1.0000   1.0000   1.0000   1.0000   1.0000   1.0000   1.0000   1.0000
     1.0000   1.0000   1.0000   1.0000

          k = 0.1667 0.0962 0.0000 ( 11561 PWs)   bands (ev):

   -10.8191 -10.6678 -10.6678 -10.3524 -10.3524 -10.2220 -10.1880 -10.1545
   -10.1545 -10.0261 -10.0261  -9.9658   1.1348   1.1348   1.2236   1.2376
     1.2376   1.3343   1.3343   1.3759   1.3760   1.4568   1.4796   1.5274
     1.5601   1.5601   1.5708   1.5715   1.5715   1.5878   1.6402   1.6402
     1.6489   1.6489   1.6694   1.7069   1.7713   1.8648   1.8648   2.0639
     2.0639   2.0865   2.0865   2.1090   2.1090   2.1285   2.2199   2.2342
     2.7003   2.7083   2.7146   2.7646   2.7647   2.7710   2.7710   2.8195
     2.8195   2.8541   2.8651   2.8651   2.8696   2.8696   2.8708   2.8708
     2.9014   2.9115   2.9115   2.9272   2.9447   3.0023   3.0023   3.1520
     3.2054   3.3220   3.5181   3.5181   3.7218   3.8017   3.8017   4.1195
     4.1195   4.5361   5.1539   5.1539   5.2111   5.5377   5.5377   5.6397
     5.6397   6.0449   6.0459   6.0459   6.1378   6.1378   6.2827   6.4247
     6.4585   6.4848   6.4848   6.6440   6.6440   6.7457   6.8799   6.8799
     7.0108   7.0108   7.0196   7.1920

     occupation numbers 
     1.0000   1.0000   1.0000   1.0000   1.0000   1.0000   1.0000   1.0000
     1.0000   1.0000   1.0000   1.0000   1.0000   1.0000   1.0000   1.0000
     1.0000   1.0000   1.0000   1.0000   1.0000   1.0000   1.0000   1.0000
     1.0000   1.0000   1.0000   1.0000   1.0000   1.0000   1.0000   1.0000
     1.0000   1.0000   1.0000   1.0000   1.0000   1.0000   1.0000   1.0000
     1.0000   1.0000   1.0000   1.0000   1.0000   1.0000   1.0000   1.0000
     1.0000   1.0000   1.0000   1.0000   1.0000   1.0000   1.0000   1.0000
     1.0000   1.0000   1.0000   1.0000   1.0000   1.0000   1.0000   1.0000
     1.0000   1.0000   1.0000   1.0000   1.0000   1.0000   1.0000   1.0000
     1.0000   1.0000   1.0000   1.0000   1.0000   1.0000   1.0000   1.0000
     1.0000   1.0000   1.0000   1.0000   1.0000   1.0000   1.0000   1.0000
     1.0000   1.0000   1.0000   1.0000   1.0000   1.0000   1.0000   1.0000
     1.0000   1.0000   1.0000   1.0000   1.0000   1.0000   1.0000   1.0000
     1.0000   1.0000   1.0000   1.0000

          k = 0.1667 0.0962 0.0662 ( 11564 PWs)   bands (ev):

[...]
     xc contribution           =    -657.54285808 Ry
     ewald contribution        =   -1304.21164287 Ry

     convergence has been achieved in  33 iterations

     Forces acting on atoms (cartesian axes, Ry/au):

     atom    1 type  1   force =     0.00000553    0.00000319    0.01193530
     atom    2 type  1   force =    -0.00000631   -0.00000364    0.01194097
     atom    3 type  2   force =    -0.00000278   -0.00000160   -0.01193843
     atom    4 type  2   force =     0.00000292    0.00000168   -0.01193545
     atom    5 type  1   force =     0.00000614    0.00000354    0.01193748
     atom    6 type  1   force =    -0.00000666   -0.00000385    0.01193686
     atom    7 type  2   force =    -0.00000272   -0.00000157   -0.01193484
     atom    8 type  2   force =     0.00000280    0.00000162   -0.01193515
     atom    9 type  1   force =     0.00000642    0.00000370    0.01193521
     atom   10 type  1   force =    -0.00000576   -0.00000332    0.01193255
     atom   11 type  2   force =    -0.00000274   -0.00000158   -0.01193524
     atom   12 type  2   force =     0.00000275    0.00000159   -0.01193821
     atom   13 type  1   force =     0.00000635    0.00000367    0.01193513
     atom   14 type  1   force =    -0.00000631   -0.00000365    0.01194032
     atom   15 type  2   force =    -0.00000282   -0.00000163   -0.01193843
     atom   16 type  2   force =     0.00000276    0.00000159   -0.01193545
     atom   17 type  1   force =     0.00000649    0.00000375    0.01193757
     atom   18 type  1   force =    -0.00000585   -0.00000338    0.01193654
     atom   19 type  2   force =    -0.00000271   -0.00000157   -0.01193490
     atom   20 type  2   force =     0.00000280    0.00000161   -0.01193499
     atom   21 type  1   force =     0.00000630    0.00000363    0.01193483
     atom   22 type  1   force =    -0.00000670   -0.00000387    0.01193204
     atom   23 type  2   force =    -0.00000275   -0.00000159   -0.01193543
     atom   24 type  2   force =     0.00000286    0.00000165   -0.01193828
     The non-local contrib.  to forces
     atom    1 type  1   force =    -0.00002233   -0.00001289    0.10646172
     atom    2 type  1   force =     0.00002203    0.00001272    0.10646723
     atom    3 type  2   force =    -0.00018009   -0.00010398    0.10079400
     atom    4 type  2   force =     0.00018061    0.00010427    0.10079691
     atom    5 type  1   force =    -0.00002244   -0.00001295    0.10646477
     atom    6 type  1   force =     0.00002197    0.00001268    0.10645821
     atom    7 type  2   force =    -0.00018028   -0.00010409    0.10079986
     atom    8 type  2   force =     0.00018034    0.00010412    0.10079877
     atom    9 type  1   force =    -0.00002215   -0.00001279    0.10645629
     atom   10 type  1   force =     0.00002249    0.00001298    0.10645876
     atom   11 type  2   force =    -0.00018029   -0.00010409    0.10079840
     atom   12 type  2   force =     0.00018006    0.00010396    0.10079570
     atom   13 type  1   force =    -0.00002211   -0.00001277    0.10646170
     atom   14 type  1   force =     0.00002240    0.00001293    0.10646719
     atom   15 type  2   force =    -0.00018037   -0.00010413    0.10079418
     atom   16 type  2   force =     0.00017994    0.00010389    0.10079697
     atom   17 type  1   force =    -0.00002198   -0.00001269    0.10646471
     atom   18 type  1   force =     0.00002242    0.00001295    0.10645789
     atom   19 type  2   force =    -0.00018012   -0.00010399    0.10079978
     atom   20 type  2   force =     0.00018014    0.00010400    0.10079891
     atom   21 type  1   force =    -0.00002220   -0.00001281    0.10645661
     atom   22 type  1   force =     0.00002196    0.00001268    0.10645855
     atom   23 type  2   force =    -0.00018000   -0.00010392    0.10079786
     atom   24 type  2   force =     0.00018052    0.00010422    0.10079541
     The ionic contribution  to forces
     atom    1 type  1   force =     0.00000001    0.00000001    0.88513270
     atom    2 type  1   force =     0.00000000    0.00000000    0.88513274
     atom    3 type  2   force =     0.00000001    0.00000000   -0.88513272
     atom    4 type  2   force =     0.00000000    0.00000000   -0.88513273
     atom    5 type  1   force =     0.00000001    0.00000001    0.88513274
     atom    6 type  1   force =     0.00000000    0.00000000    0.88513270
     atom    7 type  2   force =     0.00000001    0.00000000   -0.88513273
     atom    8 type  2   force =     0.00000000    0.00000000   -0.88513270
     atom    9 type  1   force =     0.00000001    0.00000001    0.88513270
     atom   10 type  1   force =     0.00000000    0.00000000    0.88513270
     atom   11 type  2   force =     0.00000001    0.00000000   -0.88513270
     atom   12 type  2   force =     0.00000000    0.00000000   -0.88513272
     atom   13 type  1   force =    -0.00000001   -0.00000000    0.88513270
     atom   14 type  1   force =    -0.00000000   -0.00000001    0.88513274
     atom   15 type  2   force =    -0.00000001    0.00000000   -0.88513272
     atom   16 type  2   force =    -0.00000000   -0.00000001   -0.88513272
     atom   17 type  1   force =    -0.00000001   -0.00000000    0.88513274
     atom   18 type  1   force =    -0.00000000   -0.00000001    0.88513270
     atom   19 type  2   force =    -0.00000001    0.00000000   -0.88513273
     atom   20 type  2   force =    -0.00000000   -0.00000001   -0.88513270
     atom   21 type  1   force =    -0.00000001   -0.00000000    0.88513270
     atom   22 type  1   force =    -0.00000000   -0.00000001    0.88513270
     atom   23 type  2   force =    -0.00000001    0.00000000   -0.88513270
     atom   24 type  2   force =    -0.00000000   -0.00000001   -0.88513271
     The local contribution  to forces
     atom    1 type  1   force =     0.00003441    0.00001987   -0.97192756
     atom    2 type  1   force =    -0.00003386   -0.00001955   -0.97192700
     atom    3 type  2   force =     0.00017486    0.00010096    0.77320567
     atom    4 type  2   force =    -0.00017531   -0.00010121    0.77320349
     atom    5 type  1   force =     0.00003424    0.00001977   -0.97192108
     atom    6 type  1   force =    -0.00003318   -0.00001916   -0.97192224
     atom    7 type  2   force =     0.00017500    0.00010104    0.77320302
     atom    8 type  2   force =    -0.00017493   -0.00010099    0.77320643
     atom    9 type  1   force =     0.00003395    0.00001960   -0.97191855
     atom   10 type  1   force =    -0.00003454   -0.00001994   -0.97192194
     atom   11 type  2   force =     0.00017483    0.00010094    0.77320492
     atom   12 type  2   force =    -0.00017520   -0.00010115    0.77320391
     atom   13 type  1   force =     0.00003354    0.00001946   -0.97192765
     atom   14 type  1   force =    -0.00003376   -0.00001949   -0.97192678
     atom   15 type  2   force =     0.00017504    0.00010108    0.77320521
     atom   16 type  2   force =    -0.00017514   -0.00010112    0.77320360
     atom   17 type  1   force =     0.00003343    0.00001940   -0.97192081
     atom   18 type  1   force =    -0.00003446   -0.00001990   -0.97192170
     atom   19 type  2   force =     0.00017537    0.00010127    0.77320340
     atom   20 type  2   force =    -0.00017474   -0.00010089    0.77320647
     atom   21 type  1   force =     0.00003366    0.00001953   -0.97191863
     atom   22 type  1   force =    -0.00003321   -0.00001918   -0.97192128
     atom   23 type  2   force =     0.00017467    0.00010087    0.77320511
     atom   24 type  2   force =    -0.00017518   -0.00010114    0.77320440
     The core correction contribution to forces
     atom    1 type  1   force =    -0.00000594   -0.00000343   -0.00773428
     atom    2 type  1   force =     0.00000595    0.00000344   -0.00773446
     atom    3 type  2   force =     0.00000205    0.00000118   -0.00080596
     atom    4 type  2   force =    -0.00000205   -0.00000119   -0.00080517
     atom    5 type  1   force =    -0.00000594   -0.00000343   -0.00773453
     atom    6 type  1   force =     0.00000593    0.00000342   -0.00773180
     atom    7 type  2   force =     0.00000205    0.00000118   -0.00080522
     atom    8 type  2   force =    -0.00000205   -0.00000118   -0.00080749
     atom    9 type  1   force =    -0.00000595   -0.00000344   -0.00773183
     atom   10 type  1   force =     0.00000594    0.00000343   -0.00773430
     atom   11 type  2   force =     0.00000205    0.00000118   -0.00080749
     atom   12 type  2   force =    -0.00000205   -0.00000118   -0.00080599
     atom   13 type  1   force =    -0.00000594   -0.00000342   -0.00773426
     atom   14 type  1   force =     0.00000593    0.00000342   -0.00773445
     atom   15 type  2   force =     0.00000205    0.00000118   -0.00080597
     atom   16 type  2   force =    -0.00000205   -0.00000118   -0.00080517
     atom   17 type  1   force =    -0.00000594   -0.00000342   -0.00773455
     atom   18 type  1   force =     0.00000595    0.00000343   -0.00773180
     atom   19 type  2   force =     0.00000205    0.00000118   -0.00080522
     atom   20 type  2   force =    -0.00000205   -0.00000118   -0.00080749
     atom   21 type  1   force =    -0.00000594   -0.00000342   -0.00773183
     atom   22 type  1   force =     0.00000593    0.00000343   -0.00773429
     atom   23 type  2   force =     0.00000204    0.00000118   -0.00080748
     atom   24 type  2   force =    -0.00000205   -0.00000119   -0.00080599
     The Hubbard contrib.    to forces
     atom    1 type  1   force =     0.00000000    0.00000000    0.00000000
     atom    2 type  1   force =     0.00000000    0.00000000    0.00000000
     atom    3 type  2   force =     0.00000000    0.00000000    0.00000000
     atom    4 type  2   force =     0.00000000    0.00000000    0.00000000
     atom    5 type  1   force =     0.00000000    0.00000000    0.00000000
     atom    6 type  1   force =     0.00000000    0.00000000    0.00000000
     atom    7 type  2   force =     0.00000000    0.00000000    0.00000000
     atom    8 type  2   force =     0.00000000    0.00000000    0.00000000
     atom    9 type  1   force =     0.00000000    0.00000000    0.00000000
     atom   10 type  1   force =     0.00000000    0.00000000    0.00000000
     atom   11 type  2   force =     0.00000000    0.00000000    0.00000000
     atom   12 type  2   force =     0.00000000    0.00000000    0.00000000
     atom   13 type  1   force =     0.00000000    0.00000000    0.00000000
     atom   14 type  1   force =     0.00000000    0.00000000    0.00000000
     atom   15 type  2   force =     0.00000000    0.00000000    0.00000000
     atom   16 type  2   force =     0.00000000    0.00000000    0.00000000
     atom   17 type  1   force =     0.00000000    0.00000000    0.00000000
     atom   18 type  1   force =     0.00000000    0.00000000    0.00000000
     atom   19 type  2   force =     0.00000000    0.00000000    0.00000000
     atom   20 type  2   force =     0.00000000    0.00000000    0.00000000
     atom   21 type  1   force =     0.00000000    0.00000000    0.00000000
     atom   22 type  1   force =     0.00000000    0.00000000    0.00000000
     atom   23 type  2   force =     0.00000000    0.00000000    0.00000000
     atom   24 type  2   force =     0.00000000    0.00000000    0.00000000
     The SCF correction term to forces
     atom    1 type  1   force =    -0.00000067   -0.00000039    0.00000236
     atom    2 type  1   force =    -0.00000049   -0.00000028    0.00000210
     atom    3 type  2   force =     0.00000035    0.00000020    0.00000023
     atom    4 type  2   force =    -0.00000038   -0.00000022    0.00000169
     atom    5 type  1   force =     0.00000022    0.00000012   -0.00000478
     atom    6 type  1   force =    -0.00000143   -0.00000082   -0.00000036
     atom    7 type  2   force =     0.00000046    0.00000027   -0.00000013
     atom    8 type  2   force =    -0.00000061   -0.00000035   -0.00000051
     atom    9 type  1   force =     0.00000052    0.00000030   -0.00000376
     atom   10 type  1   force =     0.00000030    0.00000017   -0.00000303
     atom   11 type  2   force =     0.00000063    0.00000036    0.00000128
     atom   12 type  2   force =    -0.00000010   -0.00000006    0.00000054
     atom   13 type  1   force =     0.00000078    0.00000045    0.00000228
     atom   14 type  1   force =    -0.00000092   -0.00000053    0.00000126
     atom   15 type  2   force =     0.00000040    0.00000023    0.00000051
     atom   16 type  2   force =    -0.00000004   -0.00000002    0.00000152
     atom   17 type  1   force =     0.00000089    0.00000052   -0.00000489
     atom   18 type  1   force =     0.00000019    0.00000011   -0.00000090
     atom   19 type  2   force =    -0.00000006   -0.00000004   -0.00000049
     atom   20 type  2   force =    -0.00000060   -0.00000034   -0.00000053
     atom   21 type  1   force =     0.00000068    0.00000039   -0.00000437
     atom   22 type  1   force =    -0.00000142   -0.00000082   -0.00000400
     atom   23 type  2   force =     0.00000049    0.00000028    0.00000142
     atom   24 type  2   force =    -0.00000047   -0.00000027    0.00000025

     Total force =     0.058475     Total SCF correction =     0.000012

     init_run     :     25.91s CPU     15.53s WALL (       1 calls)
     electrons    :   2454.39s CPU   1469.67s WALL (       1 calls)
     forces       :     10.43s CPU      5.99s WALL (       1 calls)

     Called by init_run:
     wfcinit      :     19.79s CPU     10.99s WALL (       1 calls)
     wfcinit:atom :      0.11s CPU      0.10s WALL (      10 calls)
     wfcinit:wfcr :     18.83s CPU     10.18s WALL (      10 calls)
     potinit      :      2.21s CPU      1.47s WALL (       1 calls)
     hinit0       :      3.51s CPU      2.73s WALL (       1 calls)

     Called by electrons:
     c_bands      :   2203.31s CPU   1316.23s WALL (      33 calls)
     sum_band     :    227.70s CPU    136.92s WALL (      33 calls)
     v_of_rho     :     11.15s CPU      7.92s WALL (      34 calls)
     v_h          :      0.61s CPU      0.45s WALL (      34 calls)
     v_xc         :     10.79s CPU      7.64s WALL (      35 calls)
     newd         :     10.05s CPU      6.79s WALL (      34 calls)
     mix_rho      :      1.33s CPU      1.05s WALL (      33 calls)

     Called by c_bands:
     init_us_2    :      9.73s CPU      6.69s WALL (     680 calls)
     init_us_2:cp :      9.71s CPU      6.68s WALL (     680 calls)
     cegterg      :   2061.16s CPU   1198.10s WALL (     330 calls)

     Called by sum_band:
     sum_band:wei :      0.03s CPU      0.04s WALL (      33 calls)
     sum_band:loo :    209.90s CPU    122.82s WALL (      33 calls)
     sum_band:buf :      1.31s CPU      0.90s WALL (     330 calls)
     sum_band:ini :      3.86s CPU      2.83s WALL (     330 calls)
     sum_band:cal :     40.46s CPU     21.07s WALL (     330 calls)
     sum_band:bec :      3.50s CPU      2.92s WALL (     330 calls)
     addusdens    :     11.58s CPU      8.49s WALL (      33 calls)
     addusd:skk   :      0.21s CPU      0.16s WALL (      66 calls)
     addusd:dgemm :      1.73s CPU      0.88s WALL (      66 calls)
     addusd:qvan2 :      6.50s CPU      4.70s WALL (      66 calls)

     Called by *egterg:
     cdiaghg      :    119.16s CPU     97.16s WALL (    2363 calls)
     cegterg:over :    157.48s CPU     84.37s WALL (    2033 calls)
     cegterg:upda :    100.32s CPU     57.79s WALL (    2033 calls)
     cegterg:last :    204.07s CPU    111.78s WALL (    1099 calls)
     cdiaghg:chol :      5.67s CPU      4.82s WALL (    2363 calls)
     cdiaghg:inve :      1.90s CPU      1.56s WALL (    2363 calls)
     cdiaghg:para :     20.32s CPU     14.75s WALL (    4726 calls)
     h_psi        :   1308.60s CPU    752.37s WALL (    2373 calls)
     s_psi        :    132.35s CPU     66.87s WALL (    2373 calls)
     g_psi        :      7.85s CPU      6.50s WALL (    2033 calls)

     Called by h_psi:
     h_psi:calbec :    156.24s CPU     81.23s WALL (    2373 calls)
     vloc_psi     :   1013.10s CPU    598.00s WALL (    2373 calls)
     add_vuspsi   :    131.78s CPU     67.27s WALL (    2373 calls)

     General routines
     calbec       :    201.69s CPU    104.95s WALL (    2743 calls)
     fft          :      6.88s CPU      5.57s WALL (     451 calls)
     ffts         :      1.36s CPU      1.23s WALL (      67 calls)
     fftw         :   1018.23s CPU    592.43s WALL (  284574 calls)
     interpolate  :      0.95s CPU      0.79s WALL (      34 calls)

     Parallel routines

     PWSCF        :  41m31.40s CPU  24m51.89s WALL


   This run was terminated on:   1:54: 2   5Sep2025            

=------------------------------------------------------------------------------=
   JOB DONE.
=------------------------------------------------------------------------------=
Note: The following floating-point exceptions are signalling: IEEE_UNDERFLOW_FLAG IEEE_DENORMAL
Note: The following floating-point exceptions are signalling: IEEE_UNDERFLOW_FLAG IEEE_DENORMAL
Note: The following floating-point exceptions are signalling: IEEE_UNDERFLOW_FLAG IEEE_DENORMAL
Note: The following floating-point exceptions are signalling: IEEE_UNDERFLOW_FLAG IEEE_DENORMAL
Note: The following floating-point exceptions are signalling: IEEE_UNDERFLOW_FLAG IEEE_DENORMAL
Note: The following floating-point exceptions are signalling: IEEE_UNDERFLOW_FLAG IEEE_DENORMAL
Note: The following floating-point exceptions are signalling: IEEE_UNDERFLOW_FLAG IEEE_DENORMAL
Note: The following floating-point exceptions are signalling: IEEE_UNDERFLOW_FLAG IEEE_DENORMAL
Note: The following floating-point exceptions are signalling: IEEE_UNDERFLOW_FLAG IEEE_DENORMAL
Note: The following floating-point exceptions are signalling: IEEE_UNDERFLOW_FLAG IEEE_DENORMAL
Note: The following floating-point exceptions are signalling: IEEE_UNDERFLOW_FLAG IEEE_DENORMAL
Note: The following floating-point exceptions are signalling: IEEE_UNDERFLOW_FLAG IEEE_DENORMAL
Note: The following floating-point exceptions are signalling: IEEE_UNDERFLOW_FLAG IEEE_DENORMAL
Note: The following floating-point exceptions are signalling: IEEE_UNDERFLOW_FLAG IEEE_DENORMAL
Note: The following floating-point exceptions are signalling: IEEE_UNDERFLOW_FLAG IEEE_DENORMAL
Note: The following floating-point exceptions are signalling: IEEE_UNDERFLOW_FLAG IEEE_DENORMAL
Note: The following floating-point exceptions are signalling: IEEE_UNDERFLOW_FLAG IEEE_DENORMAL
Note: The following floating-point exceptions are signalling: IEEE_UNDERFLOW_FLAG IEEE_DENORMAL
Note: The following floating-point exceptions are signalling: IEEE_UNDERFLOW_FLAG IEEE_DENORMAL
Note: The following floating-point exceptions are signalling: IEEE_UNDERFLOW_FLAG IEEE_DENORMAL
Note: The following floating-point exceptions are signalling: IEEE_UNDERFLOW_FLAG IEEE_DENORMAL
Note: The following floating-point exceptions are signalling: IEEE_UNDERFLOW_FLAG IEEE_DENORMAL
Note: The following floating-point exceptions are signalling: IEEE_UNDERFLOW_FLAG IEEE_DENORMAL
Note: The following floating-point exceptions are signalling: IEEE_UNDERFLOW_FLAG IEEE_DENORMAL
Note: The following floating-point exceptions are signalling: IEEE_UNDERFLOW_FLAG IEEE_DENORMAL
Note: The following floating-point exceptions are signalling: IEEE_UNDERFLOW_FLAG IEEE_DENORMAL
Note: The following floating-point exceptions are signalling: IEEE_UNDERFLOW_FLAG IEEE_DENORMAL
Note: The following floating-point exceptions are signalling: IEEE_UNDERFLOW_FLAG IEEE_DENORMAL
Note: The following floating-point exceptions are signalling: IEEE_UNDERFLOW_FLAG IEEE_DENORMAL
Note: The following floating-point exceptions are signalling: IEEE_UNDERFLOW_FLAG IEEE_DENORMAL
Note: The following floating-point exceptions are signalling: IEEE_UNDERFLOW_FLAG IEEE_DENORMAL
Note: The following floating-point exceptions are signalling: IEEE_UNDERFLOW_FLAG IEEE_DENORMAL
