
     Program PWSCF v.7.0 starts on  4Sep2025 at 21: 0: 6 

     This program is part of the open-source Quantum ESPRESSO suite
     for quantum simulation of materials; please cite
         "P. Giannozzi et al., J. Phys.:Condens. Matter 21 395502 (2009);
         "P. Giannozzi et al., J. Phys.:Condens. Matter 29 465901 (2017);
         "P. Giannozzi et al., J. Chem. Phys. 152 154105 (2020);
          URL http://www.quantum-espresso.org", 
     in publications or presentations arising from this work. More details at
     http://www.quantum-espresso.org/quote

     Parallel version (MPI & OpenMP), running on      64 processor cores
     Number of MPI processes:                32
     Threads/MPI process:                     2

     MPI processes distributed on     1 nodes
     K-points division:     npool     =       8
     R & G space division:  proc/nbgrp/npool/nimage =       4
     107797 MiB available memory on the printing compute node when the environment starts

     Reading input from /home/jvc/QEspresso7.2/ZnO_database/scripts/cell213.in/ZnO-3.14-1.65-213.in
Warning: card &CELL ignored
Warning: card / ignored
Warning: card &FCP ignored
Warning: card / ignored
Warning: card &RISM ignored
Warning: card / ignored

     Current dimensions of program PWSCF are:
     Max number of different atomic species (ntypx) = 10
     Max number of k-points (npk) =  40000
     Max angular momentum in pseudopotentials (lmaxx) =  4
     file Zn.upf: wavefunction(s)  3D renormalized
     Found identity + (  0.0000  0.0000  0.3333) symmetry
     This is a supercell, fractional translations are disabled
     Message from routine setup:
     using ibrav=0 with symmetry is DISCOURAGED, use correct ibrav instead

     Subspace diagonalization in iterative solution of the eigenvalue problem:
     one sub-group per band group will be used
     scalapack distributed-memory algorithm (size of sub-group:  2*  2 procs)


     Parallelization info
     --------------------
     sticks:   dense  smooth     PW     G-vecs:    dense   smooth      PW
     Min         482     245     74                60274    21339    3700
     Max         483     246     75                60282    21346    3711
     Sum        1929     981    299               241111    85363   14827

     Using Slab Decomposition



     bravais-lattice index     =            0
     lattice parameter (alat)  =      11.8634  a.u.
     unit-cell volume          =    1785.7452 (a.u.)^3
     number of atoms/cell      =           24
     number of atomic types    =            2
     number of electrons       =       216.00
     number of Kohn-Sham states=          108
     kinetic-energy cutoff     =      50.0000  Ry
     charge density cutoff     =     400.0000  Ry
     scf convergence threshold =      1.0E-08
     mixing beta               =       0.3000
     number of iterations used =            8  plain     mixing
     Exchange-correlation= PBE
                           (   1   4   3   4   0   0   0)

     celldm(1)=  11.863400  celldm(2)=   0.000000  celldm(3)=   0.000000
     celldm(4)=   0.000000  celldm(5)=   0.000000  celldm(6)=   0.000000

     crystal axes: (cart. coord. in units of alat)
               a(1) = (   1.000000   0.000000   0.000000 )  
               a(2) = (  -0.250000   0.433013   0.000000 )  
               a(3) = (   0.000000   0.000000   2.469968 )  

     reciprocal axes: (cart. coord. in units 2 pi/alat)
               b(1) = (  1.000000  0.577350 -0.000000 )  
               b(2) = (  0.000000  2.309401  0.000000 )  
               b(3) = (  0.000000 -0.000000  0.404863 )  


     PseudoPot. # 1 for Zn read from file:
     /home/jvc/QEspresso7.2/ZnO_database/pseudos/Zn.upf
     MD5 check sum: 7f56cabf9682ed8c977c2f7d0c5985c5
     Pseudo is Ultrasoft + core correction, Zval = 12.0
     Generated using &quot;atomic&quot; code by A. Dal Corso  v.6.2.2
     Using radial grid of 1201 points,  6 beta functions with: 
                l(1) =   0
                l(2) =   0
                l(3) =   1
                l(4) =   1
                l(5) =   2
                l(6) =   2
     Q(r) pseudized with 0 coefficients 


     PseudoPot. # 2 for O  read from file:
     /home/jvc/QEspresso7.2/ZnO_database/pseudos/O.upf
     MD5 check sum: 91400c9766925bcf19f520983a725ff0
     Pseudo is Ultrasoft + core correction, Zval =  6.0
     Generated using &quot;atomic&quot; code by A. Dal Corso  v.6.3MaX
     Using radial grid of 1095 points,  4 beta functions with: 
                l(1) =   0
                l(2) =   0
                l(3) =   1
                l(4) =   1
     Q(r) pseudized with 0 coefficients 


     atomic species   valence    mass     pseudopotential
        Zn            12.00    65.38000     Zn( 1.00)
        O              6.00    15.99900     O ( 1.00)

      2 Sym. Ops. (no inversion) found


                                    s                        frac. trans.

      isym =  1     identity                                     

 cryst.   s( 1) = (     1          0          0      )
                  (     0          1          0      )
                  (     0          0          1      )

 cart.    s( 1) = (  1.0000000  0.0000000  0.0000000 )
                  (  0.0000000  1.0000000  0.0000000 )
                  (  0.0000000  0.0000000  1.0000000 )


      isym =  2     inv. 180 deg rotation - cryst. axis [0,1,0]  

 cryst.   s( 2) = (     1          2          0      )
                  (     0         -1          0      )
                  (     0          0          1      )

 cart.    s( 2) = (  0.5000000  0.8660254  0.0000000 )
                  (  0.8660254 -0.5000000  0.0000000 )
                  (  0.0000000  0.0000000  1.0000000 )


   Cartesian axes

     site n.     atom                  positions (alat units)
         1           Zn  tau(   1) = (   0.2500000   0.1443376   0.4121830  )
         2           Zn  tau(   2) = (  -0.0000000   0.2886751   0.0005216  )
         3           O   tau(   3) = (   0.2500000   0.1443376   0.7242576  )
         4           O   tau(   4) = (  -0.0000000   0.2886751   0.3125962  )
         5           Zn  tau(   5) = (   0.2500000   0.1443376   1.2355058  )
         6           Zn  tau(   6) = (  -0.0000000   0.2886751   0.8238444  )
         7           O   tau(   7) = (   0.2500000   0.1443376   1.5475804  )
         8           O   tau(   8) = (  -0.0000000   0.2886751   1.1359190  )
         9           Zn  tau(   9) = (   0.2500000   0.1443376   2.0588285  )
        10           Zn  tau(  10) = (  -0.0000000   0.2886751   1.6471672  )
        11           O   tau(  11) = (   0.2500000   0.1443376   2.3709031  )
        12           O   tau(  12) = (  -0.0000000   0.2886751   1.9592418  )
        13           Zn  tau(  13) = (   0.7500000   0.1443376   0.4121830  )
        14           Zn  tau(  14) = (   0.5000000   0.2886751   0.0005216  )
        15           O   tau(  15) = (   0.7500000   0.1443376   0.7242576  )
        16           O   tau(  16) = (   0.5000000   0.2886751   0.3125962  )
        17           Zn  tau(  17) = (   0.7500000   0.1443376   1.2355058  )
        18           Zn  tau(  18) = (   0.5000000   0.2886751   0.8238444  )
        19           O   tau(  19) = (   0.7500000   0.1443376   1.5475804  )
        20           O   tau(  20) = (   0.5000000   0.2886751   1.1359190  )
        21           Zn  tau(  21) = (   0.7500000   0.1443376   2.0588285  )
        22           Zn  tau(  22) = (   0.5000000   0.2886751   1.6471672  )
        23           O   tau(  23) = (   0.7500000   0.1443376   2.3709031  )
        24           O   tau(  24) = (   0.5000000   0.2886751   1.9592418  )

   Crystallographic axes

     site n.     atom                  positions (cryst. coord.)
         1           Zn  tau(   1) = (  0.3333333  0.3333333  0.1668779  )
         2           Zn  tau(   2) = (  0.1666667  0.6666667  0.0002112  )
         3           O   tau(   3) = (  0.3333333  0.3333333  0.2932255  )
         4           O   tau(   4) = (  0.1666667  0.6666667  0.1265588  )
         5           Zn  tau(   5) = (  0.3333333  0.3333333  0.5002112  )
         6           Zn  tau(   6) = (  0.1666667  0.6666667  0.3335445  )
         7           O   tau(   7) = (  0.3333333  0.3333333  0.6265588  )
         8           O   tau(   8) = (  0.1666667  0.6666667  0.4598921  )
         9           Zn  tau(   9) = (  0.3333333  0.3333333  0.8335445  )
        10           Zn  tau(  10) = (  0.1666667  0.6666667  0.6668779  )
        11           O   tau(  11) = (  0.3333333  0.3333333  0.9598921  )
        12           O   tau(  12) = (  0.1666667  0.6666667  0.7932255  )
        13           Zn  tau(  13) = (  0.8333333  0.3333333  0.1668779  )
        14           Zn  tau(  14) = (  0.6666667  0.6666667  0.0002112  )
        15           O   tau(  15) = (  0.8333333  0.3333333  0.2932255  )
        16           O   tau(  16) = (  0.6666667  0.6666667  0.1265588  )
        17           Zn  tau(  17) = (  0.8333333  0.3333333  0.5002112  )
        18           Zn  tau(  18) = (  0.6666667  0.6666667  0.3335445  )
        19           O   tau(  19) = (  0.8333333  0.3333333  0.6265588  )
        20           O   tau(  20) = (  0.6666667  0.6666667  0.4598921  )
        21           Zn  tau(  21) = (  0.8333333  0.3333333  0.8335445  )
        22           Zn  tau(  22) = (  0.6666667  0.6666667  0.6668779  )
        23           O   tau(  23) = (  0.8333333  0.3333333  0.9598921  )
        24           O   tau(  24) = (  0.6666667  0.6666667  0.7932255  )

     number of k points=    80
                       cart. coord. in units 2pi/alat
        k(    1) = (   0.0000000   0.0000000   0.0000000), wk =   0.0092593
        k(    2) = (   0.0000000   0.0000000   0.0674772), wk =   0.0185185
        k(    3) = (   0.0000000   0.0000000   0.1349545), wk =   0.0185185
        k(    4) = (   0.0000000   0.0000000  -0.2024317), wk =   0.0092593
        k(    5) = (   0.0000000   0.3849002   0.0000000), wk =   0.0370370
        k(    6) = (   0.0000000   0.3849002   0.0674772), wk =   0.0370370
        k(    7) = (   0.0000000   0.3849002   0.1349545), wk =   0.0370370
        k(    8) = (   0.0000000   0.3849002  -0.2024317), wk =   0.0370370
        k(    9) = (   0.0000000   0.7698004   0.0000000), wk =   0.0370370
        k(   10) = (   0.0000000   0.7698004   0.0674772), wk =   0.0370370
        k(   11) = (   0.0000000   0.7698004   0.1349545), wk =   0.0370370
        k(   12) = (   0.0000000   0.7698004  -0.2024317), wk =   0.0370370
        k(   13) = (   0.0000000  -1.1547005   0.0000000), wk =   0.0092593
        k(   14) = (   0.0000000  -1.1547005   0.0674772), wk =   0.0185185
        k(   15) = (   0.0000000  -1.1547005   0.1349545), wk =   0.0185185
        k(   16) = (   0.0000000  -1.1547005  -0.2024317), wk =   0.0092593
        k(   17) = (   0.1666667   0.0962250   0.0000000), wk =   0.0185185
        k(   18) = (   0.1666667   0.0962250   0.0674772), wk =   0.0185185
        k(   19) = (   0.1666667   0.0962250   0.1349545), wk =   0.0185185
        k(   20) = (   0.1666667   0.0962250  -0.2024317), wk =   0.0185185
        k(   21) = (   0.1666667   0.4811252   0.0000000), wk =   0.0370370
        k(   22) = (   0.1666667   0.4811252   0.0674772), wk =   0.0370370
        k(   23) = (   0.1666667   0.4811252   0.1349545), wk =   0.0370370
        k(   24) = (   0.1666667   0.4811252  -0.2024317), wk =   0.0370370
        k(   25) = (   0.1666667   0.8660254   0.0000000), wk =   0.0185185
        k(   26) = (   0.1666667   0.8660254   0.0674772), wk =   0.0370370
        k(   27) = (   0.1666667   0.8660254   0.1349545), wk =   0.0370370
        k(   28) = (   0.1666667   0.8660254  -0.2024317), wk =   0.0185185
        k(   29) = (   0.1666667  -1.0584755   0.0000000), wk =   0.0185185
        k(   30) = (   0.1666667  -1.0584755   0.0674772), wk =   0.0185185
        k(   31) = (   0.1666667  -1.0584755   0.1349545), wk =   0.0185185
        k(   32) = (   0.1666667  -1.0584755  -0.2024317), wk =   0.0185185
        k(   33) = (   0.1666667  -0.6735753   0.0000000), wk =   0.0370370
        k(   34) = (   0.1666667  -0.6735753   0.0674772), wk =   0.0370370
        k(   35) = (   0.1666667  -0.6735753   0.1349545), wk =   0.0370370
        k(   36) = (   0.1666667  -0.6735753  -0.2024317), wk =   0.0370370
        k(   37) = (   0.1666667  -0.2886751   0.0000000), wk =   0.0185185
        k(   38) = (   0.1666667  -0.2886751   0.0674772), wk =   0.0370370
        k(   39) = (   0.1666667  -0.2886751   0.1349545), wk =   0.0370370
        k(   40) = (   0.1666667  -0.2886751  -0.2024317), wk =   0.0185185
        k(   41) = (   0.3333333   0.1924501   0.0000000), wk =   0.0185185
        k(   42) = (   0.3333333   0.1924501   0.0674772), wk =   0.0185185
        k(   43) = (   0.3333333   0.1924501   0.1349545), wk =   0.0185185
        k(   44) = (   0.3333333   0.1924501  -0.2024317), wk =   0.0185185
        k(   45) = (   0.3333333   0.5773503   0.0000000), wk =   0.0185185
        k(   46) = (   0.3333333   0.5773503   0.0674772), wk =   0.0370370
        k(   47) = (   0.3333333   0.5773503   0.1349545), wk =   0.0370370
        k(   48) = (   0.3333333   0.5773503  -0.2024317), wk =   0.0185185
        k(   49) = (   0.3333333  -0.9622504   0.0000000), wk =   0.0185185
        k(   50) = (   0.3333333  -0.9622504   0.0674772), wk =   0.0185185
        k(   51) = (   0.3333333  -0.9622504   0.1349545), wk =   0.0185185
        k(   52) = (   0.3333333  -0.9622504  -0.2024317), wk =   0.0185185
        k(   53) = (   0.3333333  -0.5773503   0.0000000), wk =   0.0185185
        k(   54) = (   0.3333333  -0.5773503   0.0674772), wk =   0.0370370
        k(   55) = (   0.3333333  -0.5773503   0.1349545), wk =   0.0370370
        k(   56) = (   0.3333333  -0.5773503  -0.2024317), wk =   0.0185185
        k(   57) = (  -0.5000000  -0.2886751   0.0000000), wk =   0.0092593
        k(   58) = (  -0.5000000  -0.2886751   0.0674772), wk =   0.0185185
        k(   59) = (  -0.5000000  -0.2886751   0.1349545), wk =   0.0185185
        k(   60) = (  -0.5000000  -0.2886751  -0.2024317), wk =   0.0092593
        k(   61) = (  -0.5000000  -1.4433757   0.0000000), wk =   0.0092593
        k(   62) = (  -0.5000000  -1.4433757   0.0674772), wk =   0.0185185
        k(   63) = (  -0.5000000  -1.4433757   0.1349545), wk =   0.0185185
        k(   64) = (  -0.5000000  -1.4433757  -0.2024317), wk =   0.0092593
        k(   65) = (   0.3333333  -0.1924501  -0.0674772), wk =   0.0370370
        k(   66) = (   0.3333333  -0.1924501  -0.1349545), wk =   0.0370370
        k(   67) = (   0.6666667  -0.3849002  -0.0674772), wk =   0.0370370
        k(   68) = (   0.6666667  -0.3849002  -0.1349545), wk =   0.0370370
        k(   69) = (   0.1666667   0.0962250  -0.0674772), wk =   0.0185185
        k(   70) = (   0.1666667   0.0962250  -0.1349545), wk =   0.0185185
        k(   71) = (   0.5000000  -0.0962250  -0.0674772), wk =   0.0370370
        k(   72) = (   0.5000000  -0.0962250  -0.1349545), wk =   0.0370370
        k(   73) = (  -0.8333333   0.6735753  -0.0674772), wk =   0.0185185
        k(   74) = (  -0.8333333   0.6735753  -0.1349545), wk =   0.0185185
        k(   75) = (  -0.5000000   0.4811252  -0.0674772), wk =   0.0370370
        k(   76) = (  -0.5000000   0.4811252  -0.1349545), wk =   0.0370370
        k(   77) = (   0.3333333   0.1924501  -0.0674772), wk =   0.0185185
        k(   78) = (   0.3333333   0.1924501  -0.1349545), wk =   0.0185185
        k(   79) = (  -0.6666667   0.7698004  -0.0674772), wk =   0.0185185
        k(   80) = (  -0.6666667   0.7698004  -0.1349545), wk =   0.0185185

                       cryst. coord.
        k(    1) = (   0.0000000   0.0000000   0.0000000), wk =   0.0092593
        k(    2) = (   0.0000000   0.0000000   0.1666667), wk =   0.0185185
        k(    3) = (   0.0000000   0.0000000   0.3333333), wk =   0.0185185
        k(    4) = (   0.0000000   0.0000000  -0.5000000), wk =   0.0092593
        k(    5) = (   0.0000000   0.1666667   0.0000000), wk =   0.0370370
        k(    6) = (   0.0000000   0.1666667   0.1666667), wk =   0.0370370
        k(    7) = (   0.0000000   0.1666667   0.3333333), wk =   0.0370370
        k(    8) = (   0.0000000   0.1666667  -0.5000000), wk =   0.0370370
        k(    9) = (   0.0000000   0.3333333   0.0000000), wk =   0.0370370
        k(   10) = (   0.0000000   0.3333333   0.1666667), wk =   0.0370370
        k(   11) = (   0.0000000   0.3333333   0.3333333), wk =   0.0370370
        k(   12) = (   0.0000000   0.3333333  -0.5000000), wk =   0.0370370
        k(   13) = (   0.0000000  -0.5000000   0.0000000), wk =   0.0092593
        k(   14) = (   0.0000000  -0.5000000   0.1666667), wk =   0.0185185
        k(   15) = (   0.0000000  -0.5000000   0.3333333), wk =   0.0185185
        k(   16) = (   0.0000000  -0.5000000  -0.5000000), wk =   0.0092593
        k(   17) = (   0.1666667   0.0000000   0.0000000), wk =   0.0185185
        k(   18) = (   0.1666667   0.0000000   0.1666667), wk =   0.0185185
        k(   19) = (   0.1666667   0.0000000   0.3333333), wk =   0.0185185
        k(   20) = (   0.1666667   0.0000000  -0.5000000), wk =   0.0185185
        k(   21) = (   0.1666667   0.1666667   0.0000000), wk =   0.0370370
        k(   22) = (   0.1666667   0.1666667   0.1666667), wk =   0.0370370
        k(   23) = (   0.1666667   0.1666667   0.3333333), wk =   0.0370370
        k(   24) = (   0.1666667   0.1666667  -0.5000000), wk =   0.0370370
        k(   25) = (   0.1666667   0.3333333   0.0000000), wk =   0.0185185
        k(   26) = (   0.1666667   0.3333333   0.1666667), wk =   0.0370370
        k(   27) = (   0.1666667   0.3333333   0.3333333), wk =   0.0370370
        k(   28) = (   0.1666667   0.3333333  -0.5000000), wk =   0.0185185
        k(   29) = (   0.1666667  -0.5000000   0.0000000), wk =   0.0185185
        k(   30) = (   0.1666667  -0.5000000   0.1666667), wk =   0.0185185
        k(   31) = (   0.1666667  -0.5000000   0.3333333), wk =   0.0185185
        k(   32) = (   0.1666667  -0.5000000  -0.5000000), wk =   0.0185185
        k(   33) = (   0.1666667  -0.3333333   0.0000000), wk =   0.0370370
        k(   34) = (   0.1666667  -0.3333333   0.1666667), wk =   0.0370370
        k(   35) = (   0.1666667  -0.3333333   0.3333333), wk =   0.0370370
        k(   36) = (   0.1666667  -0.3333333  -0.5000000), wk =   0.0370370
        k(   37) = (   0.1666667  -0.1666667   0.0000000), wk =   0.0185185
        k(   38) = (   0.1666667  -0.1666667   0.1666667), wk =   0.0370370
        k(   39) = (   0.1666667  -0.1666667   0.3333333), wk =   0.0370370
        k(   40) = (   0.1666667  -0.1666667  -0.5000000), wk =   0.0185185
        k(   41) = (   0.3333333   0.0000000   0.0000000), wk =   0.0185185
        k(   42) = (   0.3333333   0.0000000   0.1666667), wk =   0.0185185
        k(   43) = (   0.3333333   0.0000000   0.3333333), wk =   0.0185185
        k(   44) = (   0.3333333   0.0000000  -0.5000000), wk =   0.0185185
        k(   45) = (   0.3333333   0.1666667   0.0000000), wk =   0.0185185
        k(   46) = (   0.3333333   0.1666667   0.1666667), wk =   0.0370370
        k(   47) = (   0.3333333   0.1666667   0.3333333), wk =   0.0370370
        k(   48) = (   0.3333333   0.1666667  -0.5000000), wk =   0.0185185
        k(   49) = (   0.3333333  -0.5000000   0.0000000), wk =   0.0185185
        k(   50) = (   0.3333333  -0.5000000   0.1666667), wk =   0.0185185
        k(   51) = (   0.3333333  -0.5000000   0.3333333), wk =   0.0185185
        k(   52) = (   0.3333333  -0.5000000  -0.5000000), wk =   0.0185185
        k(   53) = (   0.3333333  -0.3333333   0.0000000), wk =   0.0185185
        k(   54) = (   0.3333333  -0.3333333   0.1666667), wk =   0.0370370
        k(   55) = (   0.3333333  -0.3333333   0.3333333), wk =   0.0370370
        k(   56) = (   0.3333333  -0.3333333  -0.5000000), wk =   0.0185185
        k(   57) = (  -0.5000000   0.0000000   0.0000000), wk =   0.0092593
        k(   58) = (  -0.5000000   0.0000000   0.1666667), wk =   0.0185185
        k(   59) = (  -0.5000000   0.0000000   0.3333333), wk =   0.0185185
        k(   60) = (  -0.5000000   0.0000000  -0.5000000), wk =   0.0092593
        k(   61) = (  -0.5000000  -0.5000000   0.0000000), wk =   0.0092593
        k(   62) = (  -0.5000000  -0.5000000   0.1666667), wk =   0.0185185
        k(   63) = (  -0.5000000  -0.5000000   0.3333333), wk =   0.0185185
        k(   64) = (  -0.5000000  -0.5000000  -0.5000000), wk =   0.0092593
        k(   65) = (   0.3333333  -0.1666667  -0.1666667), wk =   0.0370370
        k(   66) = (   0.3333333  -0.1666667  -0.3333333), wk =   0.0370370
        k(   67) = (   0.6666667  -0.3333333  -0.1666667), wk =   0.0370370
        k(   68) = (   0.6666667  -0.3333333  -0.3333333), wk =   0.0370370
        k(   69) = (   0.1666667   0.0000000  -0.1666667), wk =   0.0185185
        k(   70) = (   0.1666667   0.0000000  -0.3333333), wk =   0.0185185
        k(   71) = (   0.5000000  -0.1666667  -0.1666667), wk =   0.0370370
        k(   72) = (   0.5000000  -0.1666667  -0.3333333), wk =   0.0370370
        k(   73) = (  -0.8333333   0.5000000  -0.1666667), wk =   0.0185185
        k(   74) = (  -0.8333333   0.5000000  -0.3333333), wk =   0.0185185
        k(   75) = (  -0.5000000   0.3333333  -0.1666667), wk =   0.0370370
        k(   76) = (  -0.5000000   0.3333333  -0.3333333), wk =   0.0370370
        k(   77) = (   0.3333333   0.0000000  -0.1666667), wk =   0.0185185
        k(   78) = (   0.3333333   0.0000000  -0.3333333), wk =   0.0185185
        k(   79) = (  -0.6666667   0.5000000  -0.1666667), wk =   0.0185185
        k(   80) = (  -0.6666667   0.5000000  -0.3333333), wk =   0.0185185

     Dense  grid:   241111 G-vectors     FFT dimensions: (  75,  40, 192)

     Smooth grid:    85363 G-vectors     FFT dimensions: (  54,  27, 135)

     Dynamical RAM for                 wfc:       4.39 MB

     Dynamical RAM for     wfc (w. buffer):      48.31 MB

     Dynamical RAM for           str. fact:       1.84 MB

     Dynamical RAM for           local pot:       0.00 MB

     Dynamical RAM for          nlocal pot:      12.69 MB

     Dynamical RAM for                qrad:       3.21 MB

     Dynamical RAM for          rho,v,vnew:       6.06 MB

     Dynamical RAM for               rhoin:       2.02 MB

     Dynamical RAM for            rho*nmix:      14.72 MB

     Dynamical RAM for           G-vectors:       3.61 MB

     Dynamical RAM for          h,s,v(r/c):       0.53 MB

     Dynamical RAM for          <psi|beta>:       0.51 MB

     Dynamical RAM for                 psi:       8.78 MB

     Dynamical RAM for                hpsi:       8.78 MB

     Dynamical RAM for                spsi:       8.78 MB

     Dynamical RAM for      wfcinit/wfcrot:      13.25 MB

     Dynamical RAM for           addusdens:      23.57 MB

     Dynamical RAM for          addusforce:      25.80 MB

     Estimated static dynamical RAM per process >      85.98 MB

     Estimated max dynamical RAM per process >     128.10 MB

     Estimated total dynamical RAM >       3.60 GB

     Check: negative core charge=   -0.000002

     Initial potential from superposition of free atoms

     starting charge     215.9553, renormalised to     216.0000
     Starting wfcs are  156 randomized atomic wfcs

     total cpu time spent up to now is       14.6 secs

     per-process dynamical memory:   117.5 Mb

     Self-consistent Calculation

     iteration #  1     ecut=    50.00 Ry     beta= 0.30
     Davidson diagonalization with overlap

---- Real-time Memory Report at c_bands before calling an iterative solver
           144 MiB given to the printing process from OS
           114 MiB allocation reported by mallinfo(arena+hblkhd)
        104158 MiB available memory on the node where the printing process lives
------------------
     ethr =  1.00E-02,  avg # of iterations =  2.0

     total cpu time spent up to now is       38.3 secs

     total energy              =   -2168.82156212 Ry
     estimated scf accuracy    <       4.03440451 Ry

     iteration #  2     ecut=    50.00 Ry     beta= 0.30
     Davidson diagonalization with overlap

---- Real-time Memory Report at c_bands before calling an iterative solver
           165 MiB given to the printing process from OS
           138 MiB allocation reported by mallinfo(arena+hblkhd)
        103575 MiB available memory on the node where the printing process lives
------------------
     ethr =  1.87E-03,  avg # of iterations =  2.0

     total cpu time spent up to now is       66.3 secs

     total energy              =   -2169.26423402 Ry
     estimated scf accuracy    <       0.63824180 Ry

     iteration #  3     ecut=    50.00 Ry     beta= 0.30
     Davidson diagonalization with overlap

---- Real-time Memory Report at c_bands before calling an iterative solver
           168 MiB given to the printing process from OS
           141 MiB allocation reported by mallinfo(arena+hblkhd)
        103558 MiB available memory on the node where the printing process lives
------------------
     ethr =  2.95E-04,  avg # of iterations =  6.8

     total cpu time spent up to now is      119.3 secs

     total energy              =   -2169.51411800 Ry
     estimated scf accuracy    <       0.41484300 Ry

     iteration #  4     ecut=    50.00 Ry     beta= 0.30
     Davidson diagonalization with overlap

---- Real-time Memory Report at c_bands before calling an iterative solver
           169 MiB given to the printing process from OS
           142 MiB allocation reported by mallinfo(arena+hblkhd)
        103554 MiB available memory on the node where the printing process lives
------------------
     ethr =  1.92E-04,  avg # of iterations =  7.3

     total cpu time spent up to now is      175.5 secs

     total energy              =   -2169.84839328 Ry
     estimated scf accuracy    <       0.63460050 Ry

     iteration #  5     ecut=    50.00 Ry     beta= 0.30
     Davidson diagonalization with overlap

---- Real-time Memory Report at c_bands before calling an iterative solver
           170 MiB given to the printing process from OS
           143 MiB allocation reported by mallinfo(arena+hblkhd)
        103545 MiB available memory on the node where the printing process lives
------------------
     ethr =  1.92E-04,  avg # of iterations =  1.1

     total cpu time spent up to now is      196.7 secs

     total energy              =   -2169.57049773 Ry
     estimated scf accuracy    <       0.57687198 Ry

     iteration #  6     ecut=    50.00 Ry     beta= 0.30
     Davidson diagonalization with overlap

---- Real-time Memory Report at c_bands before calling an iterative solver
           170 MiB given to the printing process from OS
           143 MiB allocation reported by mallinfo(arena+hblkhd)
        103545 MiB available memory on the node where the printing process lives
------------------
     ethr =  1.92E-04,  avg # of iterations =  2.6

     total cpu time spent up to now is      224.5 secs

     total energy              =   -2169.62501055 Ry
     estimated scf accuracy    <       0.09949597 Ry

     iteration #  7     ecut=    50.00 Ry     beta= 0.30
     Davidson diagonalization with overlap

---- Real-time Memory Report at c_bands before calling an iterative solver
           170 MiB given to the printing process from OS
           143 MiB allocation reported by mallinfo(arena+hblkhd)
        103530 MiB available memory on the node where the printing process lives
------------------
     ethr =  4.61E-05,  avg # of iterations =  6.2

     total cpu time spent up to now is      271.3 secs

     total energy              =   -2169.70376122 Ry
     estimated scf accuracy    <       0.00102303 Ry

     iteration #  8     ecut=    50.00 Ry     beta= 0.30
     Davidson diagonalization with overlap

---- Real-time Memory Report at c_bands before calling an iterative solver
           173 MiB given to the printing process from OS
           145 MiB allocation reported by mallinfo(arena+hblkhd)
        103534 MiB available memory on the node where the printing process lives
------------------
     c_bands:  2 eigenvalues not converged
     c_bands:  1 eigenvalues not converged
     ethr =  4.74E-07,  avg # of iterations = 14.6

     total cpu time spent up to now is      372.0 secs

     total energy              =   -2169.73362981 Ry
     estimated scf accuracy    <       0.10143075 Ry

     iteration #  9     ecut=    50.00 Ry     beta= 0.30
     Davidson diagonalization with overlap

---- Real-time Memory Report at c_bands before calling an iterative solver
           173 MiB given to the printing process from OS
           146 MiB allocation reported by mallinfo(arena+hblkhd)
        103532 MiB available memory on the node where the printing process lives
------------------
     ethr =  4.74E-07,  avg # of iterations =  6.3

     total cpu time spent up to now is      421.6 secs

     total energy              =   -2169.72211765 Ry
     estimated scf accuracy    <       0.14183577 Ry

     iteration # 10     ecut=    50.00 Ry     beta= 0.30
     Davidson diagonalization with overlap

---- Real-time Memory Report at c_bands before calling an iterative solver
           173 MiB given to the printing process from OS
           146 MiB allocation reported by mallinfo(arena+hblkhd)
        103532 MiB available memory on the node where the printing process lives
------------------
     ethr =  4.74E-07,  avg # of iterations =  5.3

     total cpu time spent up to now is      466.6 secs

     total energy              =   -2169.72398770 Ry
     estimated scf accuracy    <       0.10351249 Ry

     iteration # 11     ecut=    50.00 Ry     beta= 0.30
     Davidson diagonalization with overlap

---- Real-time Memory Report at c_bands before calling an iterative solver
           174 MiB given to the printing process from OS
           147 MiB allocation reported by mallinfo(arena+hblkhd)
        103530 MiB available memory on the node where the printing process lives
------------------
     ethr =  4.74E-07,  avg # of iterations =  1.2

     total cpu time spent up to now is      488.6 secs

     total energy              =   -2169.72210570 Ry
     estimated scf accuracy    <       0.10555279 Ry

     iteration # 12     ecut=    50.00 Ry     beta= 0.30
     Davidson diagonalization with overlap

---- Real-time Memory Report at c_bands before calling an iterative solver
           174 MiB given to the printing process from OS
           147 MiB allocation reported by mallinfo(arena+hblkhd)
        103531 MiB available memory on the node where the printing process lives
------------------
     ethr =  4.74E-07,  avg # of iterations =  1.5

     total cpu time spent up to now is      511.4 secs

     total energy              =   -2169.72252855 Ry
     estimated scf accuracy    <       0.10150026 Ry

     iteration # 13     ecut=    50.00 Ry     beta= 0.30
     Davidson diagonalization with overlap

---- Real-time Memory Report at c_bands before calling an iterative solver
           174 MiB given to the printing process from OS
           147 MiB allocation reported by mallinfo(arena+hblkhd)
        103531 MiB available memory on the node where the printing process lives
------------------
     ethr =  4.74E-07,  avg # of iterations =  1.0

     total cpu time spent up to now is      532.0 secs

     total energy              =   -2169.72259312 Ry
     estimated scf accuracy    <       0.10189621 Ry

     iteration # 14     ecut=    50.00 Ry     beta= 0.30
     Davidson diagonalization with overlap

---- Real-time Memory Report at c_bands before calling an iterative solver
           174 MiB given to the printing process from OS
           147 MiB allocation reported by mallinfo(arena+hblkhd)
        103531 MiB available memory on the node where the printing process lives
------------------
     ethr =  4.74E-07,  avg # of iterations =  1.0

     total cpu time spent up to now is      552.6 secs

     total energy              =   -2169.72239517 Ry
     estimated scf accuracy    <       0.10156837 Ry

     iteration # 15     ecut=    50.00 Ry     beta= 0.30
     Davidson diagonalization with overlap

---- Real-time Memory Report at c_bands before calling an iterative solver
           174 MiB given to the printing process from OS
           147 MiB allocation reported by mallinfo(arena+hblkhd)
        103531 MiB available memory on the node where the printing process lives
------------------
     ethr =  4.74E-07,  avg # of iterations =  1.0

     total cpu time spent up to now is      573.2 secs

     total energy              =   -2169.71564748 Ry
     estimated scf accuracy    <       0.10082863 Ry

     iteration # 16     ecut=    50.00 Ry     beta= 0.30
     Davidson diagonalization with overlap

---- Real-time Memory Report at c_bands before calling an iterative solver
           174 MiB given to the printing process from OS
           147 MiB allocation reported by mallinfo(arena+hblkhd)
        103531 MiB available memory on the node where the printing process lives
------------------
     ethr =  4.74E-07,  avg # of iterations =  3.8

     total cpu time spent up to now is      604.6 secs

     total energy              =   -2169.67648625 Ry
     estimated scf accuracy    <       0.08687859 Ry

     iteration # 17     ecut=    50.00 Ry     beta= 0.30
     Davidson diagonalization with overlap

---- Real-time Memory Report at c_bands before calling an iterative solver
           174 MiB given to the printing process from OS
           147 MiB allocation reported by mallinfo(arena+hblkhd)
        103531 MiB available memory on the node where the printing process lives
------------------
     c_bands:  1 eigenvalues not converged
     c_bands:  1 eigenvalues not converged
     c_bands:  1 eigenvalues not converged
     ethr =  4.74E-07,  avg # of iterations = 14.3

     total cpu time spent up to now is      703.3 secs

     total energy              =   -2169.69570053 Ry
     estimated scf accuracy    <       0.00055913 Ry

     iteration # 18     ecut=    50.00 Ry     beta= 0.30
     Davidson diagonalization with overlap

---- Real-time Memory Report at c_bands before calling an iterative solver
           175 MiB given to the printing process from OS
           147 MiB allocation reported by mallinfo(arena+hblkhd)
        103530 MiB available memory on the node where the printing process lives
------------------
     ethr =  2.59E-07,  avg # of iterations =  5.6

     total cpu time spent up to now is      744.4 secs

     total energy              =   -2169.69595377 Ry
     estimated scf accuracy    <       0.00005016 Ry

     iteration # 19     ecut=    50.00 Ry     beta= 0.30
     Davidson diagonalization with overlap

---- Real-time Memory Report at c_bands before calling an iterative solver
           175 MiB given to the printing process from OS
           147 MiB allocation reported by mallinfo(arena+hblkhd)
        103530 MiB available memory on the node where the printing process lives
------------------
     ethr =  2.32E-08,  avg # of iterations =  8.1

     total cpu time spent up to now is      800.4 secs

     total energy              =   -2169.69588001 Ry
     estimated scf accuracy    <       0.00031445 Ry

     iteration # 20     ecut=    50.00 Ry     beta= 0.30
     Davidson diagonalization with overlap

---- Real-time Memory Report at c_bands before calling an iterative solver
           175 MiB given to the printing process from OS
           147 MiB allocation reported by mallinfo(arena+hblkhd)
        103530 MiB available memory on the node where the printing process lives
------------------
     ethr =  2.32E-08,  avg # of iterations =  7.8

     total cpu time spent up to now is      858.4 secs

     total energy              =   -2169.69593580 Ry
     estimated scf accuracy    <       0.00000216 Ry

     iteration # 21     ecut=    50.00 Ry     beta= 0.30
     Davidson diagonalization with overlap

---- Real-time Memory Report at c_bands before calling an iterative solver
           175 MiB given to the printing process from OS
           147 MiB allocation reported by mallinfo(arena+hblkhd)
        103530 MiB available memory on the node where the printing process lives
------------------
     ethr =  9.99E-10,  avg # of iterations =  6.7

     total cpu time spent up to now is      910.7 secs

     total energy              =   -2169.69593081 Ry
     estimated scf accuracy    <       0.00001297 Ry

     iteration # 22     ecut=    50.00 Ry     beta= 0.30
     Davidson diagonalization with overlap

---- Real-time Memory Report at c_bands before calling an iterative solver
           175 MiB given to the printing process from OS
           147 MiB allocation reported by mallinfo(arena+hblkhd)
        103529 MiB available memory on the node where the printing process lives
------------------
     ethr =  9.99E-10,  avg # of iterations =  9.2

     total cpu time spent up to now is      975.2 secs

     total energy              =   -2169.69593401 Ry
     estimated scf accuracy    <       0.00000163 Ry

     iteration # 23     ecut=    50.00 Ry     beta= 0.30
     Davidson diagonalization with overlap

---- Real-time Memory Report at c_bands before calling an iterative solver
           175 MiB given to the printing process from OS
           147 MiB allocation reported by mallinfo(arena+hblkhd)
        103529 MiB available memory on the node where the printing process lives
------------------
     ethr =  7.54E-10,  avg # of iterations =  2.0

     total cpu time spent up to now is      999.0 secs

     total energy              =   -2169.69593396 Ry
     estimated scf accuracy    <       0.00000049 Ry

     iteration # 24     ecut=    50.00 Ry     beta= 0.30
     Davidson diagonalization with overlap

---- Real-time Memory Report at c_bands before calling an iterative solver
           175 MiB given to the printing process from OS
           147 MiB allocation reported by mallinfo(arena+hblkhd)
        103527 MiB available memory on the node where the printing process lives
------------------
     ethr =  2.28E-10,  avg # of iterations =  8.0

     total cpu time spent up to now is     1059.5 secs

     total energy              =   -2169.69593404 Ry
     estimated scf accuracy    <       0.00000114 Ry

     iteration # 25     ecut=    50.00 Ry     beta= 0.30
     Davidson diagonalization with overlap

---- Real-time Memory Report at c_bands before calling an iterative solver
           175 MiB given to the printing process from OS
           147 MiB allocation reported by mallinfo(arena+hblkhd)
        103527 MiB available memory on the node where the printing process lives
------------------
     ethr =  2.28E-10,  avg # of iterations =  5.5

     total cpu time spent up to now is     1101.2 secs

     total energy              =   -2169.69593422 Ry
     estimated scf accuracy    <       0.00000002 Ry

     iteration # 26     ecut=    50.00 Ry     beta= 0.30
     Davidson diagonalization with overlap

---- Real-time Memory Report at c_bands before calling an iterative solver
           175 MiB given to the printing process from OS
           147 MiB allocation reported by mallinfo(arena+hblkhd)
        103527 MiB available memory on the node where the printing process lives
------------------
     c_bands:  1 eigenvalues not converged
     ethr =  9.15E-12,  avg # of iterations = 10.4

     total cpu time spent up to now is     1170.5 secs

     total energy              =   -2169.69593424 Ry
     estimated scf accuracy    <       0.00000014 Ry

     iteration # 27     ecut=    50.00 Ry     beta= 0.30
     Davidson diagonalization with overlap

---- Real-time Memory Report at c_bands before calling an iterative solver
           175 MiB given to the printing process from OS
           148 MiB allocation reported by mallinfo(arena+hblkhd)
        103527 MiB available memory on the node where the printing process lives
------------------
     ethr =  9.15E-12,  avg # of iterations =  7.7

     total cpu time spent up to now is     1229.1 secs

     End of self-consistent calculation

          k = 0.0000 0.0000 0.0000 ( 10711 PWs)   bands (ev):

   -10.2687 -10.0770 -10.0770  -9.6739  -9.6739  -9.4615  -9.4529  -9.3846
    -9.3846  -9.2613  -9.2613  -9.2073   1.8632   1.8632   1.8871   1.8871
     2.0338   2.0377   2.0377   2.1464   2.1619   2.2157   2.2157   2.3607
     2.3609   2.3947   2.3947   2.3949   2.3949   2.4232   2.4970   2.4970
     2.4972   2.4972   2.5676   2.5678   2.6666   2.7837   2.7838   2.9738
     2.9738   3.0298   3.0298   3.0408   3.0708   3.0708   3.1216   3.2527
     3.8173   3.8173   3.8390   3.8916   3.8916   3.8917   3.8917   4.0103
     4.0103   4.0103   4.0103   4.0206   4.0325   4.0325   4.0377   4.0377
     4.0533   4.0533   4.0711   4.0711   4.1126   4.1839   4.1839   4.2016
     4.3764   4.5556   4.5556   4.5821   4.5821   4.6390   4.6489   5.3127
     5.3127   5.4438   6.0458   6.3315   6.3315   6.4625   6.4625   6.9729
     6.9729   7.0507   7.1658   7.1658   7.1949   7.1949   7.5383   7.6768
     7.6771   7.8865   7.8865   7.8868   7.8868   8.3031   8.3031   8.3034
     8.3034   8.3360   8.5090   8.5093

     occupation numbers 
     1.0000   1.0000   1.0000   1.0000   1.0000   1.0000   1.0000   1.0000
     1.0000   1.0000   1.0000   1.0000   1.0000   1.0000   1.0000   1.0000
     1.0000   1.0000   1.0000   1.0000   1.0000   1.0000   1.0000   1.0000
     1.0000   1.0000   1.0000   1.0000   1.0000   1.0000   1.0000   1.0000
     1.0000   1.0000   1.0000   1.0000   1.0000   1.0000   1.0000   1.0000
     1.0000   1.0000   1.0000   1.0000   1.0000   1.0000   1.0000   1.0000
     1.0000   1.0000   1.0000   1.0000   1.0000   1.0000   1.0000   1.0000
     1.0000   1.0000   1.0000   1.0000   1.0000   1.0000   1.0000   1.0000
     1.0000   1.0000   1.0000   1.0000   1.0000   1.0000   1.0000   1.0000
     1.0000   1.0000   1.0000   1.0000   1.0000   1.0000   1.0000   1.0000
     1.0000   1.0000   1.0000   1.0000   1.0000   1.0000   1.0000   1.0000
     1.0000   1.0000   1.0000   1.0000   1.0000   1.0000   1.0000   1.0000
     1.0000   1.0000   1.0000   1.0000   1.0000   1.0000   1.0000   1.0000
     1.0000   1.0000   1.0000   1.0000

          k = 0.0000 0.0000 0.0675 ( 10718 PWs)   bands (ev):

   -10.2629 -10.1324 -10.0152  -9.7395  -9.6140  -9.4681  -9.4507  -9.4036
    -9.3639  -9.2795  -9.2454  -9.2088   1.8332   1.8463   1.9004   1.9391
     2.0269   2.0384   2.0500   2.1350   2.1538   2.1644   2.2679   2.3615
     2.3617   2.3839   2.3841   2.4077   2.4079   2.4158   2.4776   2.4778
     2.5157   2.5159   2.5650   2.5652   2.6700   2.7488   2.8238   2.9728
     2.9799   3.0116   3.0195   3.0356   3.0500   3.1177   3.1195   3.2468
     3.8196   3.8196   3.8488   3.8714   3.8714   3.9132   3.9132   3.9944
     3.9944   3.9977   4.0209   4.0240   4.0240   4.0288   4.0369   4.0522
     4.0522   4.0625   4.0740   4.0801   4.1109   4.1715   4.1922   4.2016
     4.4087   4.5504   4.5659   4.5702   4.5951   4.6367   4.6415   5.0647
     5.4789   5.5767   6.0594   6.1178   6.3487   6.5407   6.5848   6.6933
     7.0607   7.0843   7.1184   7.1758   7.2501   7.2939   7.5280   7.6831
     7.6834   7.8267   7.8270   7.9527   7.9530   8.2377   8.2380   8.2472
     8.3621   8.3624   8.5028   8.5031

     occupation numbers 
     1.0000   1.0000   1.0000   1.0000   1.0000   1.0000   1.0000   1.0000
     1.0000   1.0000   1.0000   1.0000   1.0000   1.0000   1.0000   1.0000
     1.0000   1.0000   1.0000   1.0000   1.0000   1.0000   1.0000   1.0000
     1.0000   1.0000   1.0000   1.0000   1.0000   1.0000   1.0000   1.0000
     1.0000   1.0000   1.0000   1.0000   1.0000   1.0000   1.0000   1.0000
     1.0000   1.0000   1.0000   1.0000   1.0000   1.0000   1.0000   1.0000
     1.0000   1.0000   1.0000   1.0000   1.0000   1.0000   1.0000   1.0000
     1.0000   1.0000   1.0000   1.0000   1.0000   1.0000   1.0000   1.0000
     1.0000   1.0000   1.0000   1.0000   1.0000   1.0000   1.0000   1.0000
     1.0000   1.0000   1.0000   1.0000   1.0000   1.0000   1.0000   1.0000
     1.0000   1.0000   1.0000   1.0000   1.0000   1.0000   1.0000   1.0000
     1.0000   1.0000   1.0000   1.0000   1.0000   1.0000   1.0000   1.0000
     1.0000   1.0000   1.0000   1.0000   1.0000   1.0000   1.0000   1.0000
     1.0000   1.0000   1.0000   1.0000

          k = 0.0000 0.0000 0.1350 ( 10676 PWs)   bands (ev):

   -10.2459 -10.1798  -9.9485  -9.8085  -9.5619  -9.4876  -9.4444  -9.4204
    -9.3423  -9.2994  -9.2319  -9.2135   1.8142   1.8198   1.9399   1.9970
     2.0073   2.0530   2.0732   2.1025   2.1180   2.1319   2.3177   2.3641
     2.3643   2.3752   2.3754   2.3946   2.4230   2.4232   2.4584   2.4586
     2.5327   2.5329   2.5581   2.5583   2.6801   2.7198   2.8685   2.9677
     2.9765   2.9909   2.9964   3.0223   3.0707   3.1067   3.1638   3.2292
     3.8266   3.8266   3.8533   3.8534   3.8758   3.9349   3.9349   3.9553
     3.9765   3.9765   4.0222   4.0260   4.0349   4.0349   4.0421   4.0488
     4.0488   4.0550   4.0897   4.1059   4.1061   4.1547   4.1974   4.2012
     4.5028   4.5498   4.5604   4.5815   4.6083   4.6233   4.6303   4.8411
     5.5781   5.8509   5.9121   6.0993   6.2476   6.4119   6.7117   6.7335
     6.9648   7.0294   7.0879   7.1578   7.3787   7.4974   7.5238   7.7020
     7.7023   7.7750   7.7753   8.0231   8.0234   8.0416   8.1678   8.1681
     8.4129   8.4132   8.4842   8.4846

     occupation numbers 
     1.0000   1.0000   1.0000   1.0000   1.0000   1.0000   1.0000   1.0000
     1.0000   1.0000   1.0000   1.0000   1.0000   1.0000   1.0000   1.0000
     1.0000   1.0000   1.0000   1.0000   1.0000   1.0000   1.0000   1.0000
     1.0000   1.0000   1.0000   1.0000   1.0000   1.0000   1.0000   1.0000
     1.0000   1.0000   1.0000   1.0000   1.0000   1.0000   1.0000   1.0000
     1.0000   1.0000   1.0000   1.0000   1.0000   1.0000   1.0000   1.0000
     1.0000   1.0000   1.0000   1.0000   1.0000   1.0000   1.0000   1.0000
     1.0000   1.0000   1.0000   1.0000   1.0000   1.0000   1.0000   1.0000
     1.0000   1.0000   1.0000   1.0000   1.0000   1.0000   1.0000   1.0000
     1.0000   1.0000   1.0000   1.0000   1.0000   1.0000   1.0000   1.0000
     1.0000   1.0000   1.0000   1.0000   1.0000   1.0000   1.0000   1.0000
     1.0000   1.0000   1.0000   1.0000   1.0000   1.0000   1.0000   1.0000
     1.0000   1.0000   1.0000   1.0000   1.0000   1.0000   1.0000   1.0000
     1.0000   1.0000   1.0000   1.0000

          k = 0.0000 0.0000-0.2024 ( 10678 PWs)   bands (ev):

   -10.2179 -10.2179  -9.8789  -9.8789  -9.5192  -9.5192  -9.4342  -9.4341
    -9.3206  -9.3206  -9.2212  -9.2212   1.8092   1.8092   1.9770   1.9771
     2.0541   2.0541   2.0802   2.0802   2.1026   2.1026   2.3611   2.3612
     2.3687   2.3687   2.3689   2.3689   2.4399   2.4399   2.4401   2.4401
     2.5471   2.5471   2.5472   2.5473   2.6966   2.6967   2.9168   2.9168
     2.9844   2.9844   3.0059   3.0059   3.0902   3.0902   3.2009   3.2009
     3.8380   3.8380   3.8380   3.8380   3.9132   3.9132   3.9563   3.9563
     3.9563   3.9563   4.0238   4.0238   4.0432   4.0432   4.0432   4.0432
     4.0481   4.0481   4.0985   4.0985   4.1328   4.1328   4.2000   4.2001
     4.5533   4.5533   4.6014   4.6014   4.6204   4.6204   4.6505   4.6505
     5.7275   5.7275   6.1305   6.1305   6.1631   6.1631   6.8395   6.8395
     6.8993   6.8993   7.1241   7.1241   7.4471   7.4471   7.7330   7.7330
     7.7333   7.7333   7.7909   7.7909   8.0955   8.0955   8.0958   8.0958
     8.4540   8.4540   8.4543   8.4544

     occupation numbers 
     1.0000   1.0000   1.0000   1.0000   1.0000   1.0000   1.0000   1.0000
     1.0000   1.0000   1.0000   1.0000   1.0000   1.0000   1.0000   1.0000
     1.0000   1.0000   1.0000   1.0000   1.0000   1.0000   1.0000   1.0000
     1.0000   1.0000   1.0000   1.0000   1.0000   1.0000   1.0000   1.0000
     1.0000   1.0000   1.0000   1.0000   1.0000   1.0000   1.0000   1.0000
     1.0000   1.0000   1.0000   1.0000   1.0000   1.0000   1.0000   1.0000
     1.0000   1.0000   1.0000   1.0000   1.0000   1.0000   1.0000   1.0000
     1.0000   1.0000   1.0000   1.0000   1.0000   1.0000   1.0000   1.0000
     1.0000   1.0000   1.0000   1.0000   1.0000   1.0000   1.0000   1.0000
     1.0000   1.0000   1.0000   1.0000   1.0000   1.0000   1.0000   1.0000
     1.0000   1.0000   1.0000   1.0000   1.0000   1.0000   1.0000   1.0000
     1.0000   1.0000   1.0000   1.0000   1.0000   1.0000   1.0000   1.0000
     1.0000   1.0000   1.0000   1.0000   1.0000   1.0000   1.0000   1.0000
     1.0000   1.0000   1.0000   1.0000

          k = 0.0000 0.3849 0.0000 ( 10671 PWs)   bands (ev):

   -10.0943  -9.9219  -9.9219  -9.5647  -9.5647  -9.4632  -9.3914  -9.3914
    -9.3801  -9.2605  -9.2605  -9.2023   2.0074   2.0074   2.0143   2.0143
     2.0745   2.0746   2.0936   2.0936   2.1452   2.1502   2.3837   2.4251
     2.4562   2.4859   2.5014   2.5014   2.5099   2.5099   2.5778   2.5778
     2.5955   2.6246   2.6246   2.6432   2.6587   2.6587   2.7058   2.8074
     2.8074   2.8948   3.0480   3.0480   3.0784   3.0784   3.2021   3.2676
     3.7398   3.7510   3.8139   3.8525   3.8566   3.8566   3.8799   3.8799
     3.8863   3.8863   3.9859   3.9859   4.0125   4.0125   4.0373   4.0373
     4.0656   4.1279   4.1319   4.1319   4.1509   4.2779   4.2779   4.2922
     4.3406   4.4554   4.6242   4.6242   5.0025   5.0025   5.0602   5.3731
     5.3731   5.3762   5.7537   5.8539   5.8539   6.3636   6.3636   6.6851
     6.6851   6.6996   6.7769   6.7769   7.0016   7.0736   7.0736   7.2263
     7.2263   7.2416   7.2944   7.3892   7.5488   7.5488   7.7582   7.7582
     8.0455   8.0455   8.1415   8.2889

     occupation numbers 
     1.0000   1.0000   1.0000   1.0000   1.0000   1.0000   1.0000   1.0000
     1.0000   1.0000   1.0000   1.0000   1.0000   1.0000   1.0000   1.0000
     1.0000   1.0000   1.0000   1.0000   1.0000   1.0000   1.0000   1.0000
     1.0000   1.0000   1.0000   1.0000   1.0000   1.0000   1.0000   1.0000
     1.0000   1.0000   1.0000   1.0000   1.0000   1.0000   1.0000   1.0000
     1.0000   1.0000   1.0000   1.0000   1.0000   1.0000   1.0000   1.0000
     1.0000   1.0000   1.0000   1.0000   1.0000   1.0000   1.0000   1.0000
     1.0000   1.0000   1.0000   1.0000   1.0000   1.0000   1.0000   1.0000
     1.0000   1.0000   1.0000   1.0000   1.0000   1.0000   1.0000   1.0000
     1.0000   1.0000   1.0000   1.0000   1.0000   1.0000   1.0000   1.0000
     1.0000   1.0000   1.0000   1.0000   1.0000   1.0000   1.0000   1.0000
     1.0000   1.0000   1.0000   1.0000   1.0000   1.0000   1.0000   1.0000
     1.0000   1.0000   1.0000   1.0000   1.0000   1.0000   1.0000   1.0000
     1.0000   1.0000   1.0000   1.0000

          k = 0.0000 0.3849 0.0675 ( 10681 PWs)   bands (ev):

   -10.0891  -9.9715  -9.8665  -9.6222  -9.5124  -9.4609  -9.4115  -9.3857
    -9.3695  -9.2799  -9.2434  -9.2040   1.9850   1.9919   2.0345   2.0377
     2.0403   2.0458   2.1245   2.1401   2.1457   2.1574   2.3724   2.3914
     2.4574   2.4874   2.4987   2.5081   2.5152   2.5178   2.5634   2.5903
     2.5980   2.6019   2.6415   2.6440   2.6462   2.6795   2.7031   2.7852
     2.8273   2.8907   3.0323   3.0509   3.0705   3.1126   3.1934   3.2549
     3.7440   3.7493   3.8162   3.8260   3.8433   3.8662   3.8720   3.8885
     3.9079   3.9135   3.9808   3.9845   3.9943   4.0116   4.0283   4.0604
     4.0640   4.1255   4.1271   4.1397   4.1433   4.2444   4.3025   4.3109
     4.3864   4.4499   4.5544   4.6938   4.9485   5.0490   5.0710   5.1235
     5.3852   5.6265   5.7180   5.7719   5.9942   6.2080   6.4470   6.5236
     6.7067   6.7580   6.7828   6.8560   7.0041   7.0558   7.1501   7.1820
     7.2368   7.2401   7.3022   7.3685   7.4766   7.6283   7.6308   7.8746
     7.9679   8.1153   8.1322   8.2816

     occupation numbers 
     1.0000   1.0000   1.0000   1.0000   1.0000   1.0000   1.0000   1.0000
     1.0000   1.0000   1.0000   1.0000   1.0000   1.0000   1.0000   1.0000
     1.0000   1.0000   1.0000   1.0000   1.0000   1.0000   1.0000   1.0000
     1.0000   1.0000   1.0000   1.0000   1.0000   1.0000   1.0000   1.0000
     1.0000   1.0000   1.0000   1.0000   1.0000   1.0000   1.0000   1.0000
     1.0000   1.0000   1.0000   1.0000   1.0000   1.0000   1.0000   1.0000
     1.0000   1.0000   1.0000   1.0000   1.0000   1.0000   1.0000   1.0000
     1.0000   1.0000   1.0000   1.0000   1.0000   1.0000   1.0000   1.0000
     1.0000   1.0000   1.0000   1.0000   1.0000   1.0000   1.0000   1.0000
     1.0000   1.0000   1.0000   1.0000   1.0000   1.0000   1.0000   1.0000
     1.0000   1.0000   1.0000   1.0000   1.0000   1.0000   1.0000   1.0000
     1.0000   1.0000   1.0000   1.0000   1.0000   1.0000   1.0000   1.0000
     1.0000   1.0000   1.0000   1.0000   1.0000   1.0000   1.0000   1.0000
     1.0000   1.0000   1.0000   1.0000

          k = 0.0000 0.3849 0.1350 ( 10688 PWs)   bands (ev):

   -10.0737 -10.0141  -9.8071  -9.6831  -9.4670  -9.4543  -9.4291  -9.4025
    -9.3467  -9.3012  -9.2289  -9.2091   1.9748   1.9824   2.0017   2.0048
     2.0705   2.0796   2.1250   2.1320   2.1847   2.2251   2.3266   2.3398
     2.4612   2.4761   2.5088   2.5089   2.5239   2.5365   2.5489   2.5791
     2.5994   2.6024   2.6362   2.6377   2.6658   2.6951   2.7048   2.7599
     2.8460   2.8796   3.0240   3.0325   3.0996   3.1503   3.1685   3.2246
     3.7557   3.7558   3.7980   3.8073   3.8230   3.8485   3.9104   3.9211
     3.9303   3.9416   3.9677   3.9741   3.9770   3.9833   4.0415   4.0596
     4.0812   4.1200   4.1231   4.1252   4.1607   4.2125   4.3296   4.3395
     4.4387   4.4892   4.5057   4.7617   4.8879   4.8898   5.0836   5.0918
     5.4186   5.5925   5.8276   5.8749   6.0523   6.1349   6.3290   6.3896
     6.7271   6.7891   6.8583   6.9321   7.0043   7.1024   7.1240   7.2276
     7.2345   7.2531   7.3099   7.3254   7.4140   7.4996   7.7125   7.8849
     7.9735   8.1026   8.1754   8.2597

     occupation numbers 
     1.0000   1.0000   1.0000   1.0000   1.0000   1.0000   1.0000   1.0000
     1.0000   1.0000   1.0000   1.0000   1.0000   1.0000   1.0000   1.0000
     1.0000   1.0000   1.0000   1.0000   1.0000   1.0000   1.0000   1.0000
     1.0000   1.0000   1.0000   1.0000   1.0000   1.0000   1.0000   1.0000
     1.0000   1.0000   1.0000   1.0000   1.0000   1.0000   1.0000   1.0000
     1.0000   1.0000   1.0000   1.0000   1.0000   1.0000   1.0000   1.0000
     1.0000   1.0000   1.0000   1.0000   1.0000   1.0000   1.0000   1.0000
     1.0000   1.0000   1.0000   1.0000   1.0000   1.0000   1.0000   1.0000
     1.0000   1.0000   1.0000   1.0000   1.0000   1.0000   1.0000   1.0000
     1.0000   1.0000   1.0000   1.0000   1.0000   1.0000   1.0000   1.0000
     1.0000   1.0000   1.0000   1.0000   1.0000   1.0000   1.0000   1.0000
     1.0000   1.0000   1.0000   1.0000   1.0000   1.0000   1.0000   1.0000
     1.0000   1.0000   1.0000   1.0000   1.0000   1.0000   1.0000   1.0000
     1.0000   1.0000   1.0000   1.0000

          k = 0.0000 0.3849-0.2024 ( 10686 PWs)   bands (ev):

   -10.0485 -10.0485  -9.7453  -9.7453  -9.4436  -9.4435  -9.4299  -9.4299
    -9.3237  -9.3236  -9.2174  -9.2174   1.9798   1.9798   1.9869   1.9869
     2.1010   2.1010   2.1096   2.1096   2.2541   2.2541   2.2886   2.2886
     2.4673   2.4674   2.5104   2.5104   2.5354   2.5354   2.5571   2.5571
     2.6036   2.6036   2.6348   2.6349   2.6825   2.6825   2.7324   2.7324
     2.8638   2.8638   3.0237   3.0237   3.1341   3.1341   3.1884   3.1884
     3.7742   3.7742   3.7764   3.7764   3.8339   3.8339   3.9446   3.9446
     3.9525   3.9525   3.9528   3.9528   3.9628   3.9628   4.0522   4.0522
     4.1006   4.1006   4.1234   4.1234   4.1841   4.1841   4.3514   4.3514
     4.4435   4.4435   4.6777   4.6777   4.8272   4.8272   5.0995   5.0995
     5.4882   5.4882   5.9220   5.9220   6.1110   6.1110   6.2707   6.2707
     6.7579   6.7579   6.9840   6.9840   6.9898   6.9898   7.2228   7.2229
     7.2258   7.2259   7.3630   7.3631   7.3717   7.3717   7.7989   7.7989
     8.0501   8.0501   8.2240   8.2240

     occupation numbers 
     1.0000   1.0000   1.0000   1.0000   1.0000   1.0000   1.0000   1.0000
     1.0000   1.0000   1.0000   1.0000   1.0000   1.0000   1.0000   1.0000
     1.0000   1.0000   1.0000   1.0000   1.0000   1.0000   1.0000   1.0000
     1.0000   1.0000   1.0000   1.0000   1.0000   1.0000   1.0000   1.0000
     1.0000   1.0000   1.0000   1.0000   1.0000   1.0000   1.0000   1.0000
     1.0000   1.0000   1.0000   1.0000   1.0000   1.0000   1.0000   1.0000
     1.0000   1.0000   1.0000   1.0000   1.0000   1.0000   1.0000   1.0000
     1.0000   1.0000   1.0000   1.0000   1.0000   1.0000   1.0000   1.0000
     1.0000   1.0000   1.0000   1.0000   1.0000   1.0000   1.0000   1.0000
     1.0000   1.0000   1.0000   1.0000   1.0000   1.0000   1.0000   1.0000
     1.0000   1.0000   1.0000   1.0000   1.0000   1.0000   1.0000   1.0000
     1.0000   1.0000   1.0000   1.0000   1.0000   1.0000   1.0000   1.0000
     1.0000   1.0000   1.0000   1.0000   1.0000   1.0000   1.0000   1.0000
     1.0000   1.0000   1.0000   1.0000

          k = 0.0000 0.7698 0.0000 ( 10638 PWs)   bands (ev):

    -9.7015  -9.5834  -9.5834  -9.4632  -9.3914  -9.3914  -9.3513  -9.3513
    -9.2605  -9.2605  -9.2384  -9.2023   1.8362   1.8362   1.9329   1.9811
     1.9811   2.0075   2.0075   2.0937   2.0937   2.1453   2.3379   2.3836
     2.6137   2.6432   2.6586   2.6586   2.7004   2.7004   2.7696   2.7696
     2.8074   2.8074   2.8113   2.8725   2.8725   2.8948   2.9112   2.9112
     3.0414   3.0479   3.0479   3.0784   3.0784   3.0888   3.2021   3.2675
     3.6730   3.7511   3.8514   3.8514   3.8525   3.8799   3.8799   3.9029
     3.9450   3.9450   3.9859   3.9859   4.0357   4.0357   4.0898   4.1074
     4.1074   4.1279   4.1319   4.1319   4.1803   4.2779   4.2779   4.2922
     4.4554   4.5063   4.6242   4.6242   5.0025   5.0025   5.0603   5.0916
     5.0916   5.1282   5.3762   5.4738   5.4738   5.7536   5.8538   5.8538
     6.1433   6.2530   6.2530   6.3635   6.3635   6.4990   6.7768   6.7768
     6.8486   6.8486   7.0015   7.2263   7.2263   7.2415   7.3823   7.3823
     7.4961   7.4961   7.5480   7.8062

     occupation numbers 
     1.0000   1.0000   1.0000   1.0000   1.0000   1.0000   1.0000   1.0000
     1.0000   1.0000   1.0000   1.0000   1.0000   1.0000   1.0000   1.0000
     1.0000   1.0000   1.0000   1.0000   1.0000   1.0000   1.0000   1.0000
     1.0000   1.0000   1.0000   1.0000   1.0000   1.0000   1.0000   1.0000
     1.0000   1.0000   1.0000   1.0000   1.0000   1.0000   1.0000   1.0000
     1.0000   1.0000   1.0000   1.0000   1.0000   1.0000   1.0000   1.0000
     1.0000   1.0000   1.0000   1.0000   1.0000   1.0000   1.0000   1.0000
     1.0000   1.0000   1.0000   1.0000   1.0000   1.0000   1.0000   1.0000
     1.0000   1.0000   1.0000   1.0000   1.0000   1.0000   1.0000   1.0000
     1.0000   1.0000   1.0000   1.0000   1.0000   1.0000   1.0000   1.0000
     1.0000   1.0000   1.0000   1.0000   1.0000   1.0000   1.0000   1.0000
     1.0000   1.0000   1.0000   1.0000   1.0000   1.0000   1.0000   1.0000
     1.0000   1.0000   1.0000   1.0000   1.0000   1.0000   1.0000   1.0000
     1.0000   1.0000   1.0000   1.0000

          k = 0.0000 0.7698 0.0675 ( 10642 PWs)   bands (ev):

    -9.6979  -9.6170  -9.5463  -9.4609  -9.4115  -9.3874  -9.3695  -9.3188
    -9.2799  -9.2434  -9.2418  -9.2040   1.8256   1.8546   1.9190   1.9288
     1.9851   2.0377   2.0404   2.0551   2.1402   2.1574   2.3227   2.3724
     2.6162   2.6415   2.6439   2.6746   2.6794   2.7301   2.7712   2.7736
     2.7851   2.8079   2.8273   2.8430   2.8740   2.8907   2.9067   2.9464
     3.0323   3.0371   3.0509   3.0705   3.0734   3.1125   3.1934   3.2548
     3.6800   3.7494   3.8073   3.8434   3.8720   3.8968   3.9042   3.9135
     3.9330   3.9586   3.9808   3.9845   4.0202   4.0503   4.0703   4.0880
     4.1255   4.1271   4.1401   4.1434   4.1855   4.2444   4.3026   4.3110
     4.4500   4.5354   4.5545   4.6939   4.9486   4.9898   5.0491   5.0710
     5.1425   5.1823   5.3852   5.4372   5.4571   5.7179   5.7718   5.9941
     6.1300   6.1352   6.2080   6.4417   6.4469   6.5100   6.7512   6.7579
     6.8559   6.9545   7.0040   7.1820   7.2368   7.2401   7.2502   7.3967
     7.4737   7.5504   7.5853   7.7969

     occupation numbers 
     1.0000   1.0000   1.0000   1.0000   1.0000   1.0000   1.0000   1.0000
     1.0000   1.0000   1.0000   1.0000   1.0000   1.0000   1.0000   1.0000
     1.0000   1.0000   1.0000   1.0000   1.0000   1.0000   1.0000   1.0000
     1.0000   1.0000   1.0000   1.0000   1.0000   1.0000   1.0000   1.0000
     1.0000   1.0000   1.0000   1.0000   1.0000   1.0000   1.0000   1.0000
     1.0000   1.0000   1.0000   1.0000   1.0000   1.0000   1.0000   1.0000
     1.0000   1.0000   1.0000   1.0000   1.0000   1.0000   1.0000   1.0000
     1.0000   1.0000   1.0000   1.0000   1.0000   1.0000   1.0000   1.0000
     1.0000   1.0000   1.0000   1.0000   1.0000   1.0000   1.0000   1.0000
     1.0000   1.0000   1.0000   1.0000   1.0000   1.0000   1.0000   1.0000
     1.0000   1.0000   1.0000   1.0000   1.0000   1.0000   1.0000   1.0000
     1.0000   1.0000   1.0000   1.0000   1.0000   1.0000   1.0000   1.0000
     1.0000   1.0000   1.0000   1.0000   1.0000   1.0000   1.0000   1.0000
     1.0000   1.0000   1.0000   1.0000

          k = 0.0000 0.7698 0.1350 ( 10627 PWs)   bands (ev):

    -9.6872  -9.6461  -9.5069  -9.4543  -9.4291  -9.4262  -9.3467  -9.3012
    -9.2909  -9.2519  -9.2289  -9.2091   1.8264   1.8721   1.8767   1.9168
     1.9749   2.0018   2.0706   2.1251   2.1353   2.2251   2.2792   2.3398
     2.6237   2.6361   2.6376   2.6530   2.7047   2.7598   2.7631   2.7778
     2.7832   2.7991   2.8182   2.8361   2.8460   2.8796   2.9459   2.9781
     3.0239   3.0247   3.0325   3.0355   3.0996   3.1502   3.1686   3.2245
     3.6999   3.7559   3.7660   3.8074   3.9081   3.9104   3.9226   3.9417
     3.9424   3.9678   3.9732   3.9770   4.0044   4.0300   4.0636   4.0828
     4.1231   4.1252   4.1607   4.1667   4.1910   4.2125   4.3297   4.3396
     4.4387   4.4892   4.6202   4.7618   4.8724   4.8898   5.0837   5.0919
     5.1857   5.2654   5.3521   5.4078   5.4186   5.5924   5.8275   6.0523
     6.0855   6.1143   6.1348   6.3895   6.5426   6.6601   6.6657   6.8582
     6.9320   7.0042   7.0656   7.0801   7.1024   7.2276   7.2345   7.2898
     7.5272   7.5542   7.6618   7.7691

     occupation numbers 
     1.0000   1.0000   1.0000   1.0000   1.0000   1.0000   1.0000   1.0000
     1.0000   1.0000   1.0000   1.0000   1.0000   1.0000   1.0000   1.0000
     1.0000   1.0000   1.0000   1.0000   1.0000   1.0000   1.0000   1.0000
     1.0000   1.0000   1.0000   1.0000   1.0000   1.0000   1.0000   1.0000
     1.0000   1.0000   1.0000   1.0000   1.0000   1.0000   1.0000   1.0000
     1.0000   1.0000   1.0000   1.0000   1.0000   1.0000   1.0000   1.0000
     1.0000   1.0000   1.0000   1.0000   1.0000   1.0000   1.0000   1.0000
     1.0000   1.0000   1.0000   1.0000   1.0000   1.0000   1.0000   1.0000
     1.0000   1.0000   1.0000   1.0000   1.0000   1.0000   1.0000   1.0000
     1.0000   1.0000   1.0000   1.0000   1.0000   1.0000   1.0000   1.0000
     1.0000   1.0000   1.0000   1.0000   1.0000   1.0000   1.0000   1.0000
     1.0000   1.0000   1.0000   1.0000   1.0000   1.0000   1.0000   1.0000
     1.0000   1.0000   1.0000   1.0000   1.0000   1.0000   1.0000   1.0000
     1.0000   1.0000   1.0000   1.0000

          k = 0.0000 0.7698-0.2024 ( 10634 PWs)   bands (ev):

    -9.6698  -9.6697  -9.4664  -9.4664  -9.4436  -9.4435  -9.3237  -9.3237
    -9.2684  -9.2684  -9.2174  -9.2174   1.8414   1.8414   1.8985   1.8986
     1.9799   1.9799   2.1011   2.1011   2.2134   2.2135   2.2886   2.2887
     2.6348   2.6348   2.6359   2.6360   2.7323   2.7323   2.7879   2.7879
     2.7982   2.7982   2.7988   2.7988   2.8638   2.8638   2.9898   2.9898
     3.0046   3.0046   3.0237   3.0237   3.1341   3.1341   3.1883   3.1883
     3.7293   3.7294   3.7765   3.7765   3.9141   3.9141   3.9446   3.9446
     3.9629   3.9629   3.9871   3.9871   3.9887   3.9887   4.0744   4.0744
     4.1234   4.1234   4.1841   4.1841   4.1847   4.1847   4.3515   4.3515
     4.4435   4.4436   4.7425   4.7425   4.8273   4.8273   5.0996   5.0996
     5.2581   5.2581   5.3415   5.3415   5.4882   5.4882   5.9219   5.9219
     6.0911   6.0911   6.2706   6.2706   6.5952   6.5952   6.8792   6.8792
     6.9838   6.9839   6.9898   6.9898   7.1784   7.1784   7.2258   7.2258
     7.5504   7.5504   7.7236   7.7237

     occupation numbers 
     1.0000   1.0000   1.0000   1.0000   1.0000   1.0000   1.0000   1.0000
     1.0000   1.0000   1.0000   1.0000   1.0000   1.0000   1.0000   1.0000
     1.0000   1.0000   1.0000   1.0000   1.0000   1.0000   1.0000   1.0000
     1.0000   1.0000   1.0000   1.0000   1.0000   1.0000   1.0000   1.0000
     1.0000   1.0000   1.0000   1.0000   1.0000   1.0000   1.0000   1.0000
     1.0000   1.0000   1.0000   1.0000   1.0000   1.0000   1.0000   1.0000
     1.0000   1.0000   1.0000   1.0000   1.0000   1.0000   1.0000   1.0000
     1.0000   1.0000   1.0000   1.0000   1.0000   1.0000   1.0000   1.0000
     1.0000   1.0000   1.0000   1.0000   1.0000   1.0000   1.0000   1.0000
     1.0000   1.0000   1.0000   1.0000   1.0000   1.0000   1.0000   1.0000
     1.0000   1.0000   1.0000   1.0000   1.0000   1.0000   1.0000   1.0000
     1.0000   1.0000   1.0000   1.0000   1.0000   1.0000   1.0000   1.0000
     1.0000   1.0000   1.0000   1.0000   1.0000   1.0000   1.0000   1.0000
     1.0000   1.0000   1.0000   1.0000

          k = 0.0000-1.1547 0.0000 ( 10684 PWs)   bands (ev):

    -9.4529  -9.4529  -9.3846  -9.3846  -9.3846  -9.3846  -9.2613  -9.2613
    -9.2613  -9.2613  -9.2073  -9.2073   1.8633   1.8633   1.8633   1.8633
     1.8872   1.8872   1.8872   1.8872   2.0338   2.0338   2.1466   2.1466
     2.6664   2.6664   2.7836   2.7836   2.7836   2.7836   2.9738   2.9738
     2.9738   2.9738   3.0299   3.0299   3.0299   3.0299   3.0409   3.0409
     3.0707   3.0707   3.0707   3.0707   3.1217   3.1217   3.2525   3.2525
     3.8390   3.8390   4.0206   4.0206   4.0326   4.0326   4.0326   4.0326
     4.0377   4.0377   4.0377   4.0377   4.0711   4.0711   4.0711   4.0711
     4.1126   4.1126   4.1840   4.1840   4.1840   4.1840   4.2017   4.2017
     4.5557   4.5557   4.5557   4.5557   4.5821   4.5821   4.5821   4.5821
     4.6391   4.6391   4.6490   4.6490   5.4438   5.4438   6.0456   6.0456
     6.3315   6.3315   6.3315   6.3315   6.4623   6.4623   6.4623   6.4623
     7.0507   7.0507   7.1658   7.1658   7.1658   7.1658   7.1947   7.1947
     7.1947   7.1947   7.5381   7.5381

     occupation numbers 
     1.0000   1.0000   1.0000   1.0000   1.0000   1.0000   1.0000   1.0000
     1.0000   1.0000   1.0000   1.0000   1.0000   1.0000   1.0000   1.0000
     1.0000   1.0000   1.0000   1.0000   1.0000   1.0000   1.0000   1.0000
     1.0000   1.0000   1.0000   1.0000   1.0000   1.0000   1.0000   1.0000
     1.0000   1.0000   1.0000   1.0000   1.0000   1.0000   1.0000   1.0000
     1.0000   1.0000   1.0000   1.0000   1.0000   1.0000   1.0000   1.0000
     1.0000   1.0000   1.0000   1.0000   1.0000   1.0000   1.0000   1.0000
     1.0000   1.0000   1.0000   1.0000   1.0000   1.0000   1.0000   1.0000
     1.0000   1.0000   1.0000   1.0000   1.0000   1.0000   1.0000   1.0000
     1.0000   1.0000   1.0000   1.0000   1.0000   1.0000   1.0000   1.0000
     1.0000   1.0000   1.0000   1.0000   1.0000   1.0000   1.0000   1.0000
     1.0000   1.0000   1.0000   1.0000   1.0000   1.0000   1.0000   1.0000
     1.0000   1.0000   1.0000   1.0000   1.0000   1.0000   1.0000   1.0000
     1.0000   1.0000   1.0000   1.0000

          k = 0.0000-1.1547 0.0675 ( 10684 PWs)   bands (ev):

    -9.4507  -9.4507  -9.4036  -9.4036  -9.3639  -9.3639  -9.2795  -9.2795
    -9.2454  -9.2454  -9.2088  -9.2088   1.8333   1.8333   1.8464   1.8464
     1.9004   1.9004   1.9392   1.9392   2.0270   2.0270   2.1351   2.1351
     2.6698   2.6698   2.7486   2.7486   2.8236   2.8236   2.9728   2.9728
     2.9800   2.9800   3.0116   3.0116   3.0194   3.0194   3.0356   3.0356
     3.0500   3.0500   3.1178   3.1178   3.1193   3.1193   3.2466   3.2466
     3.8488   3.8488   3.9977   3.9977   4.0210   4.0210   4.0289   4.0289
     4.0369   4.0369   4.0626   4.0626   4.0741   4.0741   4.0801   4.0801
     4.1110   4.1110   4.1716   4.1716   4.1923   4.1923   4.2016   4.2016
     4.5505   4.5505   4.5660   4.5660   4.5702   4.5702   4.5952   4.5952
     4.6367   4.6367   4.6416   4.6416   5.4789   5.4789   6.0592   6.0592
     6.1178   6.1178   6.3485   6.3485   6.5407   6.5407   6.5846   6.5846
     7.0607   7.0607   7.0840   7.0840   7.1184   7.1184   7.1758   7.1758
     7.2937   7.2937   7.5278   7.5278

     occupation numbers 
     1.0000   1.0000   1.0000   1.0000   1.0000   1.0000   1.0000   1.0000
     1.0000   1.0000   1.0000   1.0000   1.0000   1.0000   1.0000   1.0000
     1.0000   1.0000   1.0000   1.0000   1.0000   1.0000   1.0000   1.0000
     1.0000   1.0000   1.0000   1.0000   1.0000   1.0000   1.0000   1.0000
     1.0000   1.0000   1.0000   1.0000   1.0000   1.0000   1.0000   1.0000
     1.0000   1.0000   1.0000   1.0000   1.0000   1.0000   1.0000   1.0000
     1.0000   1.0000   1.0000   1.0000   1.0000   1.0000   1.0000   1.0000
     1.0000   1.0000   1.0000   1.0000   1.0000   1.0000   1.0000   1.0000
     1.0000   1.0000   1.0000   1.0000   1.0000   1.0000   1.0000   1.0000
     1.0000   1.0000   1.0000   1.0000   1.0000   1.0000   1.0000   1.0000
     1.0000   1.0000   1.0000   1.0000   1.0000   1.0000   1.0000   1.0000
     1.0000   1.0000   1.0000   1.0000   1.0000   1.0000   1.0000   1.0000
     1.0000   1.0000   1.0000   1.0000   1.0000   1.0000   1.0000   1.0000
     1.0000   1.0000   1.0000   1.0000

          k = 0.0000-1.1547 0.1350 ( 10624 PWs)   bands (ev):

    -9.4444  -9.4444  -9.4204  -9.4204  -9.3423  -9.3423  -9.2994  -9.2994
    -9.2319  -9.2319  -9.2135  -9.2135   1.8143   1.8143   1.8199   1.8199
     1.9400   1.9400   1.9972   1.9972   2.0074   2.0074   2.1027   2.1027
     2.6799   2.6799   2.7197   2.7197   2.8684   2.8684   2.9675   2.9675
     2.9765   2.9765   2.9909   2.9909   2.9964   2.9964   3.0224   3.0224
     3.0707   3.0707   3.1068   3.1068   3.1636   3.1636   3.2290   3.2290
     3.8758   3.8758   3.9554   3.9554   4.0223   4.0223   4.0260   4.0260
     4.0422   4.0422   4.0550   4.0550   4.0897   4.0897   4.1060   4.1060
     4.1061   4.1061   4.1547   4.1547   4.1974   4.1974   4.2013   4.2013
     4.5499   4.5499   4.5604   4.5604   4.5816   4.5816   4.6084   4.6084
     4.6234   4.6234   4.6304   4.6304   5.5781   5.5781   5.9121   5.9121
     6.0991   6.0991   6.2474   6.2474   6.7114   6.7114   6.7336   6.7336
     6.9646   6.9646   7.0294   7.0294   7.0879   7.0879   7.1578   7.1578
     7.3785   7.3785   7.4971   7.4971

     occupation numbers 
     1.0000   1.0000   1.0000   1.0000   1.0000   1.0000   1.0000   1.0000
     1.0000   1.0000   1.0000   1.0000   1.0000   1.0000   1.0000   1.0000
     1.0000   1.0000   1.0000   1.0000   1.0000   1.0000   1.0000   1.0000
     1.0000   1.0000   1.0000   1.0000   1.0000   1.0000   1.0000   1.0000
     1.0000   1.0000   1.0000   1.0000   1.0000   1.0000   1.0000   1.0000
     1.0000   1.0000   1.0000   1.0000   1.0000   1.0000   1.0000   1.0000
     1.0000   1.0000   1.0000   1.0000   1.0000   1.0000   1.0000   1.0000
     1.0000   1.0000   1.0000   1.0000   1.0000   1.0000   1.0000   1.0000
     1.0000   1.0000   1.0000   1.0000   1.0000   1.0000   1.0000   1.0000
     1.0000   1.0000   1.0000   1.0000   1.0000   1.0000   1.0000   1.0000
     1.0000   1.0000   1.0000   1.0000   1.0000   1.0000   1.0000   1.0000
     1.0000   1.0000   1.0000   1.0000   1.0000   1.0000   1.0000   1.0000
     1.0000   1.0000   1.0000   1.0000   1.0000   1.0000   1.0000   1.0000
     1.0000   1.0000   1.0000   1.0000

          k = 0.0000-1.1547-0.2024 ( 10640 PWs)   bands (ev):

    -9.4342  -9.4342  -9.4341  -9.4341  -9.3206  -9.3206  -9.3206  -9.3206
    -9.2212  -9.2212  -9.2212  -9.2212   1.8093   1.8093   1.8093   1.8093
     1.9771   1.9771   1.9771   1.9771   2.0542   2.0542   2.0542   2.0542
     2.6965   2.6965   2.6965   2.6965   2.9167   2.9167   2.9167   2.9167
     2.9845   2.9845   2.9845   2.9845   3.0060   3.0060   3.0060   3.0060
     3.0902   3.0903   3.0903   3.0903   3.2008   3.2008   3.2008   3.2008
     3.9132   3.9132   3.9133   3.9133   4.0238   4.0238   4.0238   4.0238
     4.0481   4.0481   4.0481   4.0481   4.0985   4.0985   4.0986   4.0986
     4.1329   4.1329   4.1329   4.1329   4.2001   4.2001   4.2001   4.2001
     4.5534   4.5534   4.5534   4.5534   4.6015   4.6015   4.6015   4.6015
     4.6205   4.6205   4.6205   4.6205   5.7275   5.7275   5.7275   5.7275
     6.1629   6.1629   6.1629   6.1629   6.8392   6.8392   6.8393   6.8393
     6.8993   6.8993   6.8993   6.8993   7.1241   7.1241   7.1241   7.1241
     7.4469   7.4469   7.4469   7.4469

     occupation numbers 
     1.0000   1.0000   1.0000   1.0000   1.0000   1.0000   1.0000   1.0000
     1.0000   1.0000   1.0000   1.0000   1.0000   1.0000   1.0000   1.0000
     1.0000   1.0000   1.0000   1.0000   1.0000   1.0000   1.0000   1.0000
     1.0000   1.0000   1.0000   1.0000   1.0000   1.0000   1.0000   1.0000
     1.0000   1.0000   1.0000   1.0000   1.0000   1.0000   1.0000   1.0000
     1.0000   1.0000   1.0000   1.0000   1.0000   1.0000   1.0000   1.0000
     1.0000   1.0000   1.0000   1.0000   1.0000   1.0000   1.0000   1.0000
     1.0000   1.0000   1.0000   1.0000   1.0000   1.0000   1.0000   1.0000
     1.0000   1.0000   1.0000   1.0000   1.0000   1.0000   1.0000   1.0000
     1.0000   1.0000   1.0000   1.0000   1.0000   1.0000   1.0000   1.0000
     1.0000   1.0000   1.0000   1.0000   1.0000   1.0000   1.0000   1.0000
     1.0000   1.0000   1.0000   1.0000   1.0000   1.0000   1.0000   1.0000
     1.0000   1.0000   1.0000   1.0000   1.0000   1.0000   1.0000   1.0000
     1.0000   1.0000   1.0000   1.0000

          k = 0.1667 0.0962 0.0000 ( 10703 PWs)   bands (ev):

   -10.2230 -10.0362 -10.0362  -9.6447  -9.6447  -9.5277  -9.4422  -9.4422
    -9.4394  -9.2820  -9.2820  -9.2083   1.8292   1.8292   1.9326   1.9326
     1.9588   2.0410   2.0410   2.1668   2.1668   2.2196   2.2396   2.3150
     2.3869   2.4236   2.4236   2.4277   2.4277   2.4501   2.5117   2.5117
     2.5305   2.5305   2.5580   2.6032   2.6544   2.7630   2.7630   2.9062
     2.9062   2.9647   2.9930   2.9930   3.0273   3.0273   3.1451   3.1927
     3.7961   3.8007   3.8136   3.8810   3.8810   3.8884   3.8884   3.9428
     3.9429   3.9817   4.0031   4.0031   4.0108   4.0108   4.0173   4.0173
     4.0568   4.0594   4.0594   4.0792   4.1053   4.1610   4.1610   4.2977
     4.3652   4.3777   4.6444   4.6444   4.8476   4.9505   4.9505   5.3310
     5.3310   5.6362   6.1742   6.2747   6.2747   6.5701   6.5701   6.9291
     6.9291   7.2085   7.2396   7.2396   7.2781   7.2781   7.4016   7.5744
     7.6124   7.6368   7.6368   7.7964   7.7964   8.0344   8.1090   8.1090
     8.2353   8.2353   8.2917   8.4517

     occupation numbers 
     1.0000   1.0000   1.0000   1.0000   1.0000   1.0000   1.0000   1.0000
     1.0000   1.0000   1.0000   1.0000   1.0000   1.0000   1.0000   1.0000
     1.0000   1.0000   1.0000   1.0000   1.0000   1.0000   1.0000   1.0000
     1.0000   1.0000   1.0000   1.0000   1.0000   1.0000   1.0000   1.0000
     1.0000   1.0000   1.0000   1.0000   1.0000   1.0000   1.0000   1.0000
     1.0000   1.0000   1.0000   1.0000   1.0000   1.0000   1.0000   1.0000
     1.0000   1.0000   1.0000   1.0000   1.0000   1.0000   1.0000   1.0000
     1.0000   1.0000   1.0000   1.0000   1.0000   1.0000   1.0000   1.0000
     1.0000   1.0000   1.0000   1.0000   1.0000   1.0000   1.0000   1.0000
     1.0000   1.0000   1.0000   1.0000   1.0000   1.0000   1.0000   1.0000
     1.0000   1.0000   1.0000   1.0000   1.0000   1.0000   1.0000   1.0000
     1.0000   1.0000   1.0000   1.0000   1.0000   1.0000   1.0000   1.0000
     1.0000   1.0000   1.0000   1.0000   1.0000   1.0000   1.0000   1.0000
     1.0000   1.0000   1.0000   1.0000

          k = 0.1667 0.0962 0.0675 ( 10701 PWs)   bands (ev):

   -10.2174 -10.0901  -9.9759  -9.7082  -9.5867  -9.5250  -9.4663  -9.4457
    -9.4158  -9.3062  -9.2605  -9.2105   1.8115   1.8551   1.8786   1.9533
     1.9970   2.0317   2.0642   2.1238   2.2089   2.2100   2.2265   2.3111
     2.3879   2.4121   2.4233   2.4362   2.4375   2.4470   2.4951   2.5104
     2.5271   2.5498   2.5576   2.6008   2.6575   2.7305   2.8001   2.9078
     2.9104   2.9602   2.9672   2.9803   3.0221   3.0718   3.1368   3.1872
     3.7989   3.8054   3.8160   3.8582   3.8680   3.9056   3.9063   3.9103
     3.9805   3.9823   3.9941   3.9965   3.9986   4.0104   4.0251   4.0337
     4.0484   4.0557   4.0704   4.0762   4.1034   4.1268   4.1940   4.2935
     4.3887   4.4005   4.5856   4.7026   4.8648   4.9127   4.9740   5.0809
     5.5949   5.6464   6.0688   6.1870   6.4613   6.4907   6.6725   6.6875
     7.1635   7.1706   7.1748   7.2166   7.2759   7.3744   7.4080   7.5739
     7.5811   7.6024   7.7091   7.7331   7.8662   7.9764   8.0330   8.1665
     8.1770   8.2973   8.2978   8.4451

     occupation numbers 
     1.0000   1.0000   1.0000   1.0000   1.0000   1.0000   1.0000   1.0000
     1.0000   1.0000   1.0000   1.0000   1.0000   1.0000   1.0000   1.0000
     1.0000   1.0000   1.0000   1.0000   1.0000   1.0000   1.0000   1.0000
     1.0000   1.0000   1.0000   1.0000   1.0000   1.0000   1.0000   1.0000
     1.0000   1.0000   1.0000   1.0000   1.0000   1.0000   1.0000   1.0000
     1.0000   1.0000   1.0000   1.0000   1.0000   1.0000   1.0000   1.0000
     1.0000   1.0000   1.0000   1.0000   1.0000   1.0000   1.0000   1.0000
     1.0000   1.0000   1.0000   1.0000   1.0000   1.0000   1.0000   1.0000
     1.0000   1.0000   1.0000   1.0000   1.0000   1.0000   1.0000   1.0000
     1.0000   1.0000   1.0000   1.0000   1.0000   1.0000   1.0000   1.0000
     1.0000   1.0000   1.0000   1.0000   1.0000   1.0000   1.0000   1.0000
     1.0000   1.0000   1.0000   1.0000   1.0000   1.0000   1.0000   1.0000
     1.0000   1.0000   1.0000   1.0000   1.0000   1.0000   1.0000   1.0000
     1.0000   1.0000   1.0000   1.0000

          k = 0.1667 0.0962 0.1350 ( 10695 PWs)   bands (ev):

   -10.2007 -10.1363  -9.9111  -9.7751  -9.5363  -9.5172  -9.4873  -9.4645
    -9.3882  -9.3325  -9.2422  -9.2169   1.8056   1.8386   1.8846   1.9376
     2.0369   2.0664   2.0854   2.0988   2.1797   2.1893   2.2487   2.2994
     2.3908   2.4028   2.4240   2.4391   2.4481   2.4533   2.4783   2.4903
     2.5401   2.5553   2.5675   2.5937   2.6668   2.7036   2.8413   2.9151
     2.9200   2.9326   2.9453   2.9485   3.0533   3.1119   3.1149   3.1712
     3.8072   3.8197   3.8231   3.8375   3.8497   3.8723   3.9303   3.9324
     3.9751   3.9776   3.9841   3.9913   4.0182   4.0187   4.0367   4.0378
     4.0475   4.0521   4.0688   4.0811   4.0917   4.0984   4.2255   4.2786
     4.4222   4.5011   4.5272   4.7596   4.8525   4.8663   4.9071   4.9762
     5.6834   5.8656   5.8920   6.2245   6.3649   6.4079   6.6999   6.8098
     7.0455   7.0547   7.2376   7.2799   7.3962   7.4267   7.4569   7.5324
     7.5725   7.6012   7.6785   7.7874   7.8340   7.9404   7.9521   8.0929
     8.2336   8.2968   8.3507   8.4257

     occupation numbers 
     1.0000   1.0000   1.0000   1.0000   1.0000   1.0000   1.0000   1.0000
     1.0000   1.0000   1.0000   1.0000   1.0000   1.0000   1.0000   1.0000
     1.0000   1.0000   1.0000   1.0000   1.0000   1.0000   1.0000   1.0000
     1.0000   1.0000   1.0000   1.0000   1.0000   1.0000   1.0000   1.0000
     1.0000   1.0000   1.0000   1.0000   1.0000   1.0000   1.0000   1.0000
[...]
     xc contribution           =    -658.60872536 Ry
     ewald contribution        =   -1340.25387519 Ry

     convergence has been achieved in  27 iterations

     Forces acting on atoms (cartesian axes, Ry/au):

     atom    1 type  1   force =     0.00000838    0.00000484    0.01041984
     atom    2 type  1   force =    -0.00000870   -0.00000502    0.01041890
     atom    3 type  2   force =    -0.00000171   -0.00000099   -0.01041588
     atom    4 type  2   force =     0.00000115    0.00000066   -0.01041462
     atom    5 type  1   force =     0.00000694    0.00000400    0.01041360
     atom    6 type  1   force =    -0.00000681   -0.00000393    0.01041748
     atom    7 type  2   force =    -0.00000179   -0.00000104   -0.01041673
     atom    8 type  2   force =     0.00000111    0.00000064   -0.01041490
     atom    9 type  1   force =     0.00000776    0.00000448    0.01041130
     atom   10 type  1   force =    -0.00000804   -0.00000464    0.01041281
     atom   11 type  2   force =    -0.00000121   -0.00000070   -0.01041480
     atom   12 type  2   force =     0.00000129    0.00000074   -0.01041362
     atom   13 type  1   force =     0.00000911    0.00000526    0.01041747
     atom   14 type  1   force =    -0.00000781   -0.00000451    0.01042092
     atom   15 type  2   force =    -0.00000097   -0.00000056   -0.01041524
     atom   16 type  2   force =     0.00000118    0.00000068   -0.01041433
     atom   17 type  1   force =     0.00001098    0.00000634    0.01041077
     atom   18 type  1   force =    -0.00000993   -0.00000574    0.01041510
     atom   19 type  2   force =    -0.00000129   -0.00000075   -0.01041636
     atom   20 type  2   force =     0.00000141    0.00000082   -0.01041493
     atom   21 type  1   force =     0.00000992    0.00000573    0.01040939
     atom   22 type  1   force =    -0.00001070   -0.00000618    0.01041227
     atom   23 type  2   force =    -0.00000158   -0.00000091   -0.01041451
     atom   24 type  2   force =     0.00000133    0.00000077   -0.01041392
     The non-local contrib.  to forces
     atom    1 type  1   force =    -0.00002631   -0.00001519    0.05377382
     atom    2 type  1   force =     0.00002486    0.00001435    0.05377178
     atom    3 type  2   force =    -0.00016956   -0.00009790    0.05056154
     atom    4 type  2   force =     0.00016946    0.00009784    0.05056071
     atom    5 type  1   force =    -0.00002590   -0.00001495    0.05377137
     atom    6 type  1   force =     0.00002560    0.00001478    0.05377392
     atom    7 type  2   force =    -0.00017050   -0.00009844    0.05056346
     atom    8 type  2   force =     0.00017003    0.00009817    0.05056292
     atom    9 type  1   force =    -0.00002647   -0.00001528    0.05376811
     atom   10 type  1   force =     0.00002556    0.00001476    0.05377043
     atom   11 type  2   force =    -0.00016935   -0.00009777    0.05056336
     atom   12 type  2   force =     0.00017035    0.00009835    0.05056493
     atom   13 type  1   force =    -0.00002541   -0.00001467    0.05377277
     atom   14 type  1   force =     0.00002689    0.00001553    0.05377285
     atom   15 type  2   force =    -0.00017032   -0.00009834    0.05056222
     atom   16 type  2   force =     0.00017041    0.00009838    0.05056234
     atom   17 type  1   force =    -0.00002570   -0.00001484    0.05377212
     atom   18 type  1   force =     0.00002620    0.00001513    0.05377285
     atom   19 type  2   force =    -0.00017070   -0.00009855    0.05056437
     atom   20 type  2   force =     0.00017032    0.00009833    0.05056220
     atom   21 type  1   force =    -0.00002515   -0.00001452    0.05376829
     atom   22 type  1   force =     0.00002567    0.00001482    0.05377010
     atom   23 type  2   force =    -0.00017036   -0.00009836    0.05056304
     atom   24 type  2   force =     0.00017000    0.00009815    0.05056403
     The ionic contribution  to forces
     atom    1 type  1   force =     0.00000001    0.00000001    0.50460101
     atom    2 type  1   force =     0.00000002    0.00000001    0.50460106
     atom    3 type  2   force =     0.00000001    0.00000001   -0.50460103
     atom    4 type  2   force =     0.00000001    0.00000000   -0.50460104
     atom    5 type  1   force =     0.00000001    0.00000001    0.50460106
     atom    6 type  1   force =     0.00000002    0.00000001    0.50460102
     atom    7 type  2   force =     0.00000001    0.00000001   -0.50460104
     atom    8 type  2   force =     0.00000001    0.00000000   -0.50460102
     atom    9 type  1   force =     0.00000001    0.00000001    0.50460101
     atom   10 type  1   force =     0.00000002    0.00000001    0.50460102
     atom   11 type  2   force =     0.00000001    0.00000001   -0.50460101
     atom   12 type  2   force =     0.00000001    0.00000000   -0.50460103
     atom   13 type  1   force =    -0.00000002   -0.00000001    0.50460102
     atom   14 type  1   force =    -0.00000001   -0.00000001    0.50460106
     atom   15 type  2   force =    -0.00000001   -0.00000000   -0.50460103
     atom   16 type  2   force =    -0.00000001   -0.00000001   -0.50460104
     atom   17 type  1   force =    -0.00000002   -0.00000001    0.50460106
     atom   18 type  1   force =    -0.00000001   -0.00000001    0.50460101
     atom   19 type  2   force =    -0.00000001   -0.00000000   -0.50460104
     atom   20 type  2   force =    -0.00000001   -0.00000001   -0.50460101
     atom   21 type  1   force =    -0.00000002   -0.00000001    0.50460102
     atom   22 type  1   force =    -0.00000001   -0.00000001    0.50460101
     atom   23 type  2   force =    -0.00000001   -0.00000000   -0.50460102
     atom   24 type  2   force =    -0.00000001   -0.00000001   -0.50460103
     The local contribution  to forces
     atom    1 type  1   force =     0.00004126    0.00002382   -0.54387291
     atom    2 type  1   force =    -0.00003864   -0.00002240   -0.54386913
     atom    3 type  2   force =     0.00016852    0.00009730    0.44400217
     atom    4 type  2   force =    -0.00016583   -0.00009577    0.44400143
     atom    5 type  1   force =     0.00004199    0.00002425   -0.54386481
     atom    6 type  1   force =    -0.00004078   -0.00002364   -0.54387220
     atom    7 type  2   force =     0.00016701    0.00009642    0.44400838
     atom    8 type  2   force =    -0.00016765   -0.00009682    0.44400553
     atom    9 type  1   force =     0.00004219    0.00002436   -0.54385915
     atom   10 type  1   force =    -0.00004007   -0.00002323   -0.54386243
     atom   11 type  2   force =     0.00016778    0.00009687    0.44400187
     atom   12 type  2   force =    -0.00016700   -0.00009644    0.44401044
     atom   13 type  1   force =     0.00004018    0.00002329   -0.54387073
     atom   14 type  1   force =    -0.00004292   -0.00002478   -0.54387165
     atom   15 type  2   force =     0.00016843    0.00009727    0.44400301
     atom   16 type  2   force =    -0.00017126   -0.00009888    0.44400184
     atom   17 type  1   force =     0.00003918    0.00002271   -0.54386542
     atom   18 type  1   force =    -0.00004105   -0.00002370   -0.54386919
     atom   19 type  2   force =     0.00016788    0.00009695    0.44400951
     atom   20 type  2   force =    -0.00016919   -0.00009768    0.44400299
     atom   21 type  1   force =     0.00003897    0.00002259   -0.54385942
     atom   22 type  1   force =    -0.00004012   -0.00002316   -0.54386149
     atom   23 type  2   force =     0.00016753    0.00009675    0.44400242
     atom   24 type  2   force =    -0.00016897   -0.00009756    0.44401124
     The core correction contribution to forces
     atom    1 type  1   force =    -0.00000517   -0.00000303   -0.00409260
     atom    2 type  1   force =     0.00000491    0.00000278   -0.00409257
     atom    3 type  2   force =     0.00000194    0.00000113   -0.00038359
     atom    4 type  2   force =    -0.00000192   -0.00000111   -0.00038358
     atom    5 type  1   force =    -0.00000520   -0.00000304   -0.00409270
     atom    6 type  1   force =     0.00000490    0.00000278   -0.00409251
     atom    7 type  2   force =     0.00000195    0.00000113   -0.00038361
     atom    8 type  2   force =    -0.00000193   -0.00000112   -0.00038359
     atom    9 type  1   force =    -0.00000520   -0.00000305   -0.00409269
     atom   10 type  1   force =     0.00000492    0.00000279   -0.00409265
     atom   11 type  2   force =     0.00000193    0.00000112   -0.00038362
     atom   12 type  2   force =    -0.00000194   -0.00000112   -0.00038361
     atom   13 type  1   force =    -0.00000496   -0.00000282   -0.00409253
     atom   14 type  1   force =     0.00000522    0.00000306   -0.00409263
     atom   15 type  2   force =     0.00000194    0.00000112   -0.00038359
     atom   16 type  2   force =    -0.00000196   -0.00000114   -0.00038360
     atom   17 type  1   force =    -0.00000495   -0.00000281   -0.00409258
     atom   18 type  1   force =     0.00000524    0.00000307   -0.00409256
     atom   19 type  2   force =     0.00000194    0.00000112   -0.00038361
     atom   20 type  2   force =    -0.00000195   -0.00000113   -0.00038360
     atom   21 type  1   force =    -0.00000495   -0.00000281   -0.00409257
     atom   22 type  1   force =     0.00000525    0.00000307   -0.00409271
     atom   23 type  2   force =     0.00000194    0.00000112   -0.00038361
     atom   24 type  2   force =    -0.00000195   -0.00000113   -0.00038360
     The Hubbard contrib.    to forces
     atom    1 type  1   force =     0.00000000    0.00000000    0.00000000
     atom    2 type  1   force =     0.00000000    0.00000000    0.00000000
     atom    3 type  2   force =     0.00000000    0.00000000    0.00000000
     atom    4 type  2   force =     0.00000000    0.00000000    0.00000000
     atom    5 type  1   force =     0.00000000    0.00000000    0.00000000
     atom    6 type  1   force =     0.00000000    0.00000000    0.00000000
     atom    7 type  2   force =     0.00000000    0.00000000    0.00000000
     atom    8 type  2   force =     0.00000000    0.00000000    0.00000000
     atom    9 type  1   force =     0.00000000    0.00000000    0.00000000
     atom   10 type  1   force =     0.00000000    0.00000000    0.00000000
     atom   11 type  2   force =     0.00000000    0.00000000    0.00000000
     atom   12 type  2   force =     0.00000000    0.00000000    0.00000000
     atom   13 type  1   force =     0.00000000    0.00000000    0.00000000
     atom   14 type  1   force =     0.00000000    0.00000000    0.00000000
     atom   15 type  2   force =     0.00000000    0.00000000    0.00000000
     atom   16 type  2   force =     0.00000000    0.00000000    0.00000000
     atom   17 type  1   force =     0.00000000    0.00000000    0.00000000
     atom   18 type  1   force =     0.00000000    0.00000000    0.00000000
     atom   19 type  2   force =     0.00000000    0.00000000    0.00000000
     atom   20 type  2   force =     0.00000000    0.00000000    0.00000000
     atom   21 type  1   force =     0.00000000    0.00000000    0.00000000
     atom   22 type  1   force =     0.00000000    0.00000000    0.00000000
     atom   23 type  2   force =     0.00000000    0.00000000    0.00000000
     atom   24 type  2   force =     0.00000000    0.00000000    0.00000000
     The SCF correction term to forces
     atom    1 type  1   force =    -0.00000136   -0.00000078    0.00000912
     atom    2 type  1   force =     0.00000025    0.00000014    0.00000637
     atom    3 type  2   force =    -0.00000259   -0.00000149    0.00000363
     atom    4 type  2   force =    -0.00000052   -0.00000030    0.00000646
     atom    5 type  1   force =    -0.00000392   -0.00000226   -0.00000272
     atom    6 type  1   force =     0.00000355    0.00000205    0.00000586
     atom    7 type  2   force =    -0.00000022   -0.00000013   -0.00000531
     atom    8 type  2   force =     0.00000071    0.00000041   -0.00000013
     atom    9 type  1   force =    -0.00000270   -0.00000156   -0.00000737
     atom   10 type  1   force =     0.00000164    0.00000094   -0.00000496
     atom   11 type  2   force =    -0.00000155   -0.00000089    0.00000321
     atom   12 type  2   force =    -0.00000008   -0.00000005   -0.00000574
     atom   13 type  1   force =    -0.00000069   -0.00000040    0.00000555
     atom   14 type  1   force =     0.00000304    0.00000176    0.00000989
     atom   15 type  2   force =    -0.00000098   -0.00000057    0.00000276
     atom   16 type  2   force =     0.00000404    0.00000233    0.00000472
     atom   17 type  1   force =     0.00000245    0.00000141   -0.00000580
     atom   18 type  1   force =    -0.00000029   -0.00000016    0.00000159
     atom   19 type  2   force =    -0.00000038   -0.00000022   -0.00000697
     atom   20 type  2   force =     0.00000229    0.00000132    0.00000310
     atom   21 type  1   force =     0.00000104    0.00000060   -0.00000932
     atom   22 type  1   force =    -0.00000147   -0.00000085   -0.00000604
     atom   23 type  2   force =    -0.00000065   -0.00000038    0.00000326
     atom   24 type  2   force =     0.00000230    0.00000133   -0.00000596

     Total force =     0.051023     Total SCF correction =     0.000030

     init_run     :     23.50s CPU     14.13s WALL (       1 calls)
     electrons    :   2027.47s CPU   1214.57s WALL (       1 calls)
     forces       :     10.35s CPU      6.22s WALL (       1 calls)

     Called by init_run:
     wfcinit      :     18.00s CPU     10.07s WALL (       1 calls)
     wfcinit:atom :      0.10s CPU      0.09s WALL (      10 calls)
     wfcinit:wfcr :     17.15s CPU      9.34s WALL (      10 calls)
     potinit      :      1.86s CPU      1.20s WALL (       1 calls)
     hinit0       :      3.27s CPU      2.54s WALL (       1 calls)

     Called by electrons:
     c_bands      :   1836.79s CPU   1097.58s WALL (      27 calls)
     sum_band     :    173.27s CPU    104.76s WALL (      27 calls)
     v_of_rho     :      8.23s CPU      5.76s WALL (      28 calls)
     v_h          :      0.45s CPU      0.32s WALL (      28 calls)
     v_xc         :      8.03s CPU      5.61s WALL (      29 calls)
     newd         :      7.69s CPU      5.27s WALL (      28 calls)
     mix_rho      :      0.91s CPU      0.72s WALL (      27 calls)

     Called by c_bands:
     init_us_2    :      7.57s CPU      5.14s WALL (     560 calls)
     init_us_2:cp :      7.56s CPU      5.14s WALL (     560 calls)
     cegterg      :   1733.46s CPU   1012.21s WALL (     270 calls)

     Called by sum_band:
     sum_band:wei :      0.03s CPU      0.03s WALL (      27 calls)
     sum_band:loo :    158.82s CPU     93.31s WALL (      27 calls)
     sum_band:buf :      1.07s CPU      0.72s WALL (     270 calls)
     sum_band:ini :      2.90s CPU      2.10s WALL (     270 calls)
     sum_band:cal :     30.67s CPU     16.05s WALL (     270 calls)
     sum_band:bec :      2.65s CPU      2.23s WALL (     270 calls)
     addusdens    :      9.25s CPU      6.79s WALL (      27 calls)
     addusd:skk   :      0.15s CPU      0.11s WALL (      54 calls)
     addusd:dgemm :      1.23s CPU      0.64s WALL (      54 calls)
     addusd:qvan2 :      5.31s CPU      3.80s WALL (      54 calls)

     Called by *egterg:
     cdiaghg      :    103.69s CPU     84.87s WALL (    1979 calls)
     cegterg:over :    136.62s CPU     73.37s WALL (    1709 calls)
     cegterg:upda :     86.27s CPU     49.68s WALL (    1709 calls)
     cegterg:last :    178.22s CPU     97.91s WALL (    1003 calls)
     cdiaghg:chol :      4.90s CPU      4.22s WALL (    1979 calls)
     cdiaghg:inve :      1.65s CPU      1.36s WALL (    1979 calls)
     cdiaghg:para :     17.79s CPU     12.91s WALL (    3958 calls)
     h_psi        :   1088.49s CPU    628.87s WALL (    1989 calls)
     s_psi        :    110.85s CPU     56.10s WALL (    1989 calls)
     g_psi        :      6.87s CPU      5.70s WALL (    1709 calls)

     Called by h_psi:
     h_psi:calbec :    130.50s CPU     68.01s WALL (    1989 calls)
     vloc_psi     :    841.56s CPU    499.53s WALL (    1989 calls)
     add_vuspsi   :    110.00s CPU     56.21s WALL (    1989 calls)

     General routines
     calbec       :    165.66s CPU     86.48s WALL (    2299 calls)
     fft          :      5.15s CPU      4.10s WALL (     373 calls)
     ffts         :      0.86s CPU      0.73s WALL (      55 calls)
     fftw         :    834.10s CPU    487.60s WALL (  257334 calls)
     interpolate  :      0.64s CPU      0.50s WALL (      28 calls)

     Parallel routines

     PWSCF        :  34m21.80s CPU  20m35.42s WALL


   This run was terminated on:  21:20:42   4Sep2025            

=------------------------------------------------------------------------------=
   JOB DONE.
=------------------------------------------------------------------------------=
Note: The following floating-point exceptions are signalling: IEEE_UNDERFLOW_FLAG IEEE_DENORMAL
Note: The following floating-point exceptions are signalling: IEEE_UNDERFLOW_FLAG IEEE_DENORMAL
Note: The following floating-point exceptions are signalling: IEEE_UNDERFLOW_FLAG IEEE_DENORMAL
Note: The following floating-point exceptions are signalling: IEEE_UNDERFLOW_FLAG IEEE_DENORMAL
Note: The following floating-point exceptions are signalling: IEEE_UNDERFLOW_FLAG IEEE_DENORMAL
Note: The following floating-point exceptions are signalling: IEEE_UNDERFLOW_FLAG IEEE_DENORMAL
Note: The following floating-point exceptions are signalling: IEEE_UNDERFLOW_FLAG IEEE_DENORMAL
Note: The following floating-point exceptions are signalling: IEEE_UNDERFLOW_FLAG IEEE_DENORMAL
Note: The following floating-point exceptions are signalling: IEEE_UNDERFLOW_FLAG IEEE_DENORMAL
Note: The following floating-point exceptions are signalling: IEEE_UNDERFLOW_FLAG IEEE_DENORMAL
Note: The following floating-point exceptions are signalling: IEEE_UNDERFLOW_FLAG IEEE_DENORMAL
Note: The following floating-point exceptions are signalling: IEEE_UNDERFLOW_FLAG IEEE_DENORMAL
Note: The following floating-point exceptions are signalling: IEEE_UNDERFLOW_FLAG IEEE_DENORMAL
Note: The following floating-point exceptions are signalling: IEEE_UNDERFLOW_FLAG IEEE_DENORMAL
Note: The following floating-point exceptions are signalling: IEEE_UNDERFLOW_FLAG IEEE_DENORMAL
Note: The following floating-point exceptions are signalling: IEEE_UNDERFLOW_FLAG IEEE_DENORMAL
Note: The following floating-point exceptions are signalling: IEEE_UNDERFLOW_FLAG IEEE_DENORMAL
Note: The following floating-point exceptions are signalling: IEEE_UNDERFLOW_FLAG IEEE_DENORMAL
Note: The following floating-point exceptions are signalling: IEEE_UNDERFLOW_FLAG IEEE_DENORMAL
Note: The following floating-point exceptions are signalling: IEEE_UNDERFLOW_FLAG IEEE_DENORMAL
Note: The following floating-point exceptions are signalling: IEEE_UNDERFLOW_FLAG IEEE_DENORMAL
Note: The following floating-point exceptions are signalling: IEEE_UNDERFLOW_FLAG IEEE_DENORMAL
Note: The following floating-point exceptions are signalling: IEEE_UNDERFLOW_FLAG IEEE_DENORMAL
Note: The following floating-point exceptions are signalling: IEEE_UNDERFLOW_FLAG IEEE_DENORMAL
Note: The following floating-point exceptions are signalling: IEEE_UNDERFLOW_FLAG IEEE_DENORMAL
Note: The following floating-point exceptions are signalling: IEEE_UNDERFLOW_FLAG IEEE_DENORMAL
Note: The following floating-point exceptions are signalling: IEEE_UNDERFLOW_FLAG IEEE_DENORMAL
Note: The following floating-point exceptions are signalling: IEEE_UNDERFLOW_FLAG IEEE_DENORMAL
Note: The following floating-point exceptions are signalling: IEEE_UNDERFLOW_FLAG IEEE_DENORMAL
Note: The following floating-point exceptions are signalling: IEEE_UNDERFLOW_FLAG IEEE_DENORMAL
Note: The following floating-point exceptions are signalling: IEEE_UNDERFLOW_FLAG IEEE_DENORMAL
Note: The following floating-point exceptions are signalling: IEEE_UNDERFLOW_FLAG IEEE_DENORMAL
