
     Program PWSCF v.7.0 starts on  5Sep2025 at 22:41:59 

     This program is part of the open-source Quantum ESPRESSO suite
     for quantum simulation of materials; please cite
         "P. Giannozzi et al., J. Phys.:Condens. Matter 21 395502 (2009);
         "P. Giannozzi et al., J. Phys.:Condens. Matter 29 465901 (2017);
         "P. Giannozzi et al., J. Chem. Phys. 152 154105 (2020);
          URL http://www.quantum-espresso.org", 
     in publications or presentations arising from this work. More details at
     http://www.quantum-espresso.org/quote

     Parallel version (MPI & OpenMP), running on      64 processor cores
     Number of MPI processes:                32
     Threads/MPI process:                     2

     MPI processes distributed on     1 nodes
     K-points division:     npool     =       8
     R & G space division:  proc/nbgrp/npool/nimage =       4
     107774 MiB available memory on the printing compute node when the environment starts

     Reading input from /home/jvc/QEspresso7.2/ZnO_database/scripts/cell213.in/ZnO-3.53-1.45-213.in
Warning: card &CELL ignored
Warning: card / ignored
Warning: card &FCP ignored
Warning: card / ignored
Warning: card &RISM ignored
Warning: card / ignored

     Current dimensions of program PWSCF are:
     Max number of different atomic species (ntypx) = 10
     Max number of k-points (npk) =  40000
     Max angular momentum in pseudopotentials (lmaxx) =  4
     file Zn.upf: wavefunction(s)  3D renormalized
     Found identity + (  0.0000  0.0000  0.3333) symmetry
     This is a supercell, fractional translations are disabled
     Message from routine setup:
     using ibrav=0 with symmetry is DISCOURAGED, use correct ibrav instead

     Subspace diagonalization in iterative solution of the eigenvalue problem:
     one sub-group per band group will be used
     scalapack distributed-memory algorithm (size of sub-group:  2*  2 procs)


     Parallelization info
     --------------------
     sticks:   dense  smooth     PW     G-vecs:    dense   smooth      PW
     Min         616     306     93                75772    26736    4483
     Max         617     307     94                75781    26739    4492
     Sum        2467    1227    373               303111   106949   17941

     Using Slab Decomposition



     bravais-lattice index     =            0
     lattice parameter (alat)  =      13.3463  a.u.
     unit-cell volume          =    2243.4655 (a.u.)^3
     number of atoms/cell      =           24
     number of atomic types    =            2
     number of electrons       =       216.00
     number of Kohn-Sham states=          108
     kinetic-energy cutoff     =      50.0000  Ry
     charge density cutoff     =     400.0000  Ry
     scf convergence threshold =      1.0E-08
     mixing beta               =       0.3000
     number of iterations used =            8  plain     mixing
     Exchange-correlation= PBE
                           (   1   4   3   4   0   0   0)

     celldm(1)=  13.346325  celldm(2)=   0.000000  celldm(3)=   0.000000
     celldm(4)=   0.000000  celldm(5)=   0.000000  celldm(6)=   0.000000

     crystal axes: (cart. coord. in units of alat)
               a(1) = (   1.000000   0.000000   0.000000 )  
               a(2) = (  -0.250000   0.433013   0.000000 )  
               a(3) = (   0.000000   0.000000   2.179384 )  

     reciprocal axes: (cart. coord. in units 2 pi/alat)
               b(1) = (  1.000000  0.577350 -0.000000 )  
               b(2) = (  0.000000  2.309401  0.000000 )  
               b(3) = (  0.000000 -0.000000  0.458845 )  


     PseudoPot. # 1 for Zn read from file:
     /home/jvc/QEspresso7.2/ZnO_database/pseudos/Zn.upf
     MD5 check sum: 7f56cabf9682ed8c977c2f7d0c5985c5
     Pseudo is Ultrasoft + core correction, Zval = 12.0
     Generated using &quot;atomic&quot; code by A. Dal Corso  v.6.2.2
     Using radial grid of 1201 points,  6 beta functions with: 
                l(1) =   0
                l(2) =   0
                l(3) =   1
                l(4) =   1
                l(5) =   2
                l(6) =   2
     Q(r) pseudized with 0 coefficients 


     PseudoPot. # 2 for O  read from file:
     /home/jvc/QEspresso7.2/ZnO_database/pseudos/O.upf
     MD5 check sum: 91400c9766925bcf19f520983a725ff0
     Pseudo is Ultrasoft + core correction, Zval =  6.0
     Generated using &quot;atomic&quot; code by A. Dal Corso  v.6.3MaX
     Using radial grid of 1095 points,  4 beta functions with: 
                l(1) =   0
                l(2) =   0
                l(3) =   1
                l(4) =   1
     Q(r) pseudized with 0 coefficients 


     atomic species   valence    mass     pseudopotential
        Zn            12.00    65.38000     Zn( 1.00)
        O              6.00    15.99900     O ( 1.00)

      2 Sym. Ops. (no inversion) found


                                    s                        frac. trans.

      isym =  1     identity                                     

 cryst.   s( 1) = (     1          0          0      )
                  (     0          1          0      )
                  (     0          0          1      )

 cart.    s( 1) = (  1.0000000  0.0000000  0.0000000 )
                  (  0.0000000  1.0000000  0.0000000 )
                  (  0.0000000  0.0000000  1.0000000 )


      isym =  2     inv. 180 deg rotation - cryst. axis [0,1,0]  

 cryst.   s( 2) = (     1          2          0      )
                  (     0         -1          0      )
                  (     0          0          1      )

 cart.    s( 2) = (  0.5000000  0.8660254  0.0000000 )
                  (  0.8660254 -0.5000000  0.0000000 )
                  (  0.0000000  0.0000000  1.0000000 )


   Cartesian axes

     site n.     atom                  positions (alat units)
         1           Zn  tau(   1) = (   0.2500000   0.1443376   0.3636909  )
         2           Zn  tau(   2) = (  -0.0000000   0.2886751   0.0004603  )
         3           O   tau(   3) = (   0.2500000   0.1443376   0.6390508  )
         4           O   tau(   4) = (  -0.0000000   0.2886751   0.2758202  )
         5           Zn  tau(   5) = (   0.2500000   0.1443376   1.0901522  )
         6           Zn  tau(   6) = (  -0.0000000   0.2886751   0.7269215  )
         7           O   tau(   7) = (   0.2500000   0.1443376   1.3655121  )
         8           O   tau(   8) = (  -0.0000000   0.2886751   1.0022815  )
         9           Zn  tau(   9) = (   0.2500000   0.1443376   1.8166134  )
        10           Zn  tau(  10) = (  -0.0000000   0.2886751   1.4533828  )
        11           O   tau(  11) = (   0.2500000   0.1443376   2.0919734  )
        12           O   tau(  12) = (  -0.0000000   0.2886751   1.7287427  )
        13           Zn  tau(  13) = (   0.7500000   0.1443376   0.3636909  )
        14           Zn  tau(  14) = (   0.5000000   0.2886751   0.0004603  )
        15           O   tau(  15) = (   0.7500000   0.1443376   0.6390508  )
        16           O   tau(  16) = (   0.5000000   0.2886751   0.2758202  )
        17           Zn  tau(  17) = (   0.7500000   0.1443376   1.0901522  )
        18           Zn  tau(  18) = (   0.5000000   0.2886751   0.7269215  )
        19           O   tau(  19) = (   0.7500000   0.1443376   1.3655121  )
        20           O   tau(  20) = (   0.5000000   0.2886751   1.0022815  )
        21           Zn  tau(  21) = (   0.7500000   0.1443376   1.8166134  )
        22           Zn  tau(  22) = (   0.5000000   0.2886751   1.4533828  )
        23           O   tau(  23) = (   0.7500000   0.1443376   2.0919734  )
        24           O   tau(  24) = (   0.5000000   0.2886751   1.7287427  )

   Crystallographic axes

     site n.     atom                  positions (cryst. coord.)
         1           Zn  tau(   1) = (  0.3333333  0.3333333  0.1668779  )
         2           Zn  tau(   2) = (  0.1666667  0.6666667  0.0002112  )
         3           O   tau(   3) = (  0.3333333  0.3333333  0.2932255  )
         4           O   tau(   4) = (  0.1666667  0.6666667  0.1265588  )
         5           Zn  tau(   5) = (  0.3333333  0.3333333  0.5002112  )
         6           Zn  tau(   6) = (  0.1666667  0.6666667  0.3335445  )
         7           O   tau(   7) = (  0.3333333  0.3333333  0.6265588  )
         8           O   tau(   8) = (  0.1666667  0.6666667  0.4598921  )
         9           Zn  tau(   9) = (  0.3333333  0.3333333  0.8335445  )
        10           Zn  tau(  10) = (  0.1666667  0.6666667  0.6668779  )
        11           O   tau(  11) = (  0.3333333  0.3333333  0.9598921  )
        12           O   tau(  12) = (  0.1666667  0.6666667  0.7932255  )
        13           Zn  tau(  13) = (  0.8333333  0.3333333  0.1668779  )
        14           Zn  tau(  14) = (  0.6666667  0.6666667  0.0002112  )
        15           O   tau(  15) = (  0.8333333  0.3333333  0.2932255  )
        16           O   tau(  16) = (  0.6666667  0.6666667  0.1265588  )
        17           Zn  tau(  17) = (  0.8333333  0.3333333  0.5002112  )
        18           Zn  tau(  18) = (  0.6666667  0.6666667  0.3335445  )
        19           O   tau(  19) = (  0.8333333  0.3333333  0.6265588  )
        20           O   tau(  20) = (  0.6666667  0.6666667  0.4598921  )
        21           Zn  tau(  21) = (  0.8333333  0.3333333  0.8335445  )
        22           Zn  tau(  22) = (  0.6666667  0.6666667  0.6668779  )
        23           O   tau(  23) = (  0.8333333  0.3333333  0.9598921  )
        24           O   tau(  24) = (  0.6666667  0.6666667  0.7932255  )

     number of k points=    80
                       cart. coord. in units 2pi/alat
        k(    1) = (   0.0000000   0.0000000   0.0000000), wk =   0.0092593
        k(    2) = (   0.0000000   0.0000000   0.0764742), wk =   0.0185185
        k(    3) = (   0.0000000   0.0000000   0.1529484), wk =   0.0185185
        k(    4) = (   0.0000000   0.0000000  -0.2294226), wk =   0.0092593
        k(    5) = (   0.0000000   0.3849002   0.0000000), wk =   0.0370370
        k(    6) = (   0.0000000   0.3849002   0.0764742), wk =   0.0370370
        k(    7) = (   0.0000000   0.3849002   0.1529484), wk =   0.0370370
        k(    8) = (   0.0000000   0.3849002  -0.2294226), wk =   0.0370370
        k(    9) = (   0.0000000   0.7698004   0.0000000), wk =   0.0370370
        k(   10) = (   0.0000000   0.7698004   0.0764742), wk =   0.0370370
        k(   11) = (   0.0000000   0.7698004   0.1529484), wk =   0.0370370
        k(   12) = (   0.0000000   0.7698004  -0.2294226), wk =   0.0370370
        k(   13) = (   0.0000000  -1.1547005   0.0000000), wk =   0.0092593
        k(   14) = (   0.0000000  -1.1547005   0.0764742), wk =   0.0185185
        k(   15) = (   0.0000000  -1.1547005   0.1529484), wk =   0.0185185
        k(   16) = (   0.0000000  -1.1547005  -0.2294226), wk =   0.0092593
        k(   17) = (   0.1666667   0.0962250   0.0000000), wk =   0.0185185
        k(   18) = (   0.1666667   0.0962250   0.0764742), wk =   0.0185185
        k(   19) = (   0.1666667   0.0962250   0.1529484), wk =   0.0185185
        k(   20) = (   0.1666667   0.0962250  -0.2294226), wk =   0.0185185
        k(   21) = (   0.1666667   0.4811252   0.0000000), wk =   0.0370370
        k(   22) = (   0.1666667   0.4811252   0.0764742), wk =   0.0370370
        k(   23) = (   0.1666667   0.4811252   0.1529484), wk =   0.0370370
        k(   24) = (   0.1666667   0.4811252  -0.2294226), wk =   0.0370370
        k(   25) = (   0.1666667   0.8660254   0.0000000), wk =   0.0185185
        k(   26) = (   0.1666667   0.8660254   0.0764742), wk =   0.0370370
        k(   27) = (   0.1666667   0.8660254   0.1529484), wk =   0.0370370
        k(   28) = (   0.1666667   0.8660254  -0.2294226), wk =   0.0185185
        k(   29) = (   0.1666667  -1.0584755   0.0000000), wk =   0.0185185
        k(   30) = (   0.1666667  -1.0584755   0.0764742), wk =   0.0185185
        k(   31) = (   0.1666667  -1.0584755   0.1529484), wk =   0.0185185
        k(   32) = (   0.1666667  -1.0584755  -0.2294226), wk =   0.0185185
        k(   33) = (   0.1666667  -0.6735753   0.0000000), wk =   0.0370370
        k(   34) = (   0.1666667  -0.6735753   0.0764742), wk =   0.0370370
        k(   35) = (   0.1666667  -0.6735753   0.1529484), wk =   0.0370370
        k(   36) = (   0.1666667  -0.6735753  -0.2294226), wk =   0.0370370
        k(   37) = (   0.1666667  -0.2886751   0.0000000), wk =   0.0185185
        k(   38) = (   0.1666667  -0.2886751   0.0764742), wk =   0.0370370
        k(   39) = (   0.1666667  -0.2886751   0.1529484), wk =   0.0370370
        k(   40) = (   0.1666667  -0.2886751  -0.2294226), wk =   0.0185185
        k(   41) = (   0.3333333   0.1924501   0.0000000), wk =   0.0185185
        k(   42) = (   0.3333333   0.1924501   0.0764742), wk =   0.0185185
        k(   43) = (   0.3333333   0.1924501   0.1529484), wk =   0.0185185
        k(   44) = (   0.3333333   0.1924501  -0.2294226), wk =   0.0185185
        k(   45) = (   0.3333333   0.5773503   0.0000000), wk =   0.0185185
        k(   46) = (   0.3333333   0.5773503   0.0764742), wk =   0.0370370
        k(   47) = (   0.3333333   0.5773503   0.1529484), wk =   0.0370370
        k(   48) = (   0.3333333   0.5773503  -0.2294226), wk =   0.0185185
        k(   49) = (   0.3333333  -0.9622504   0.0000000), wk =   0.0185185
        k(   50) = (   0.3333333  -0.9622504   0.0764742), wk =   0.0185185
        k(   51) = (   0.3333333  -0.9622504   0.1529484), wk =   0.0185185
        k(   52) = (   0.3333333  -0.9622504  -0.2294226), wk =   0.0185185
        k(   53) = (   0.3333333  -0.5773503   0.0000000), wk =   0.0185185
        k(   54) = (   0.3333333  -0.5773503   0.0764742), wk =   0.0370370
        k(   55) = (   0.3333333  -0.5773503   0.1529484), wk =   0.0370370
        k(   56) = (   0.3333333  -0.5773503  -0.2294226), wk =   0.0185185
        k(   57) = (  -0.5000000  -0.2886751   0.0000000), wk =   0.0092593
        k(   58) = (  -0.5000000  -0.2886751   0.0764742), wk =   0.0185185
        k(   59) = (  -0.5000000  -0.2886751   0.1529484), wk =   0.0185185
        k(   60) = (  -0.5000000  -0.2886751  -0.2294226), wk =   0.0092593
        k(   61) = (  -0.5000000  -1.4433757   0.0000000), wk =   0.0092593
        k(   62) = (  -0.5000000  -1.4433757   0.0764742), wk =   0.0185185
        k(   63) = (  -0.5000000  -1.4433757   0.1529484), wk =   0.0185185
        k(   64) = (  -0.5000000  -1.4433757  -0.2294226), wk =   0.0092593
        k(   65) = (   0.3333333  -0.1924501  -0.0764742), wk =   0.0370370
        k(   66) = (   0.3333333  -0.1924501  -0.1529484), wk =   0.0370370
        k(   67) = (   0.6666667  -0.3849002  -0.0764742), wk =   0.0370370
        k(   68) = (   0.6666667  -0.3849002  -0.1529484), wk =   0.0370370
        k(   69) = (   0.1666667   0.0962250  -0.0764742), wk =   0.0185185
        k(   70) = (   0.1666667   0.0962250  -0.1529484), wk =   0.0185185
        k(   71) = (   0.5000000  -0.0962250  -0.0764742), wk =   0.0370370
        k(   72) = (   0.5000000  -0.0962250  -0.1529484), wk =   0.0370370
        k(   73) = (  -0.8333333   0.6735753  -0.0764742), wk =   0.0185185
        k(   74) = (  -0.8333333   0.6735753  -0.1529484), wk =   0.0185185
        k(   75) = (  -0.5000000   0.4811252  -0.0764742), wk =   0.0370370
        k(   76) = (  -0.5000000   0.4811252  -0.1529484), wk =   0.0370370
        k(   77) = (   0.3333333   0.1924501  -0.0764742), wk =   0.0185185
        k(   78) = (   0.3333333   0.1924501  -0.1529484), wk =   0.0185185
        k(   79) = (  -0.6666667   0.7698004  -0.0764742), wk =   0.0185185
        k(   80) = (  -0.6666667   0.7698004  -0.1529484), wk =   0.0185185

                       cryst. coord.
        k(    1) = (   0.0000000   0.0000000   0.0000000), wk =   0.0092593
        k(    2) = (   0.0000000   0.0000000   0.1666667), wk =   0.0185185
        k(    3) = (   0.0000000   0.0000000   0.3333333), wk =   0.0185185
        k(    4) = (   0.0000000   0.0000000  -0.5000000), wk =   0.0092593
        k(    5) = (   0.0000000   0.1666667   0.0000000), wk =   0.0370370
        k(    6) = (   0.0000000   0.1666667   0.1666667), wk =   0.0370370
        k(    7) = (   0.0000000   0.1666667   0.3333333), wk =   0.0370370
        k(    8) = (   0.0000000   0.1666667  -0.5000000), wk =   0.0370370
        k(    9) = (   0.0000000   0.3333333   0.0000000), wk =   0.0370370
        k(   10) = (   0.0000000   0.3333333   0.1666667), wk =   0.0370370
        k(   11) = (   0.0000000   0.3333333   0.3333333), wk =   0.0370370
        k(   12) = (   0.0000000   0.3333333  -0.5000000), wk =   0.0370370
        k(   13) = (   0.0000000  -0.5000000   0.0000000), wk =   0.0092593
        k(   14) = (   0.0000000  -0.5000000   0.1666667), wk =   0.0185185
        k(   15) = (   0.0000000  -0.5000000   0.3333333), wk =   0.0185185
        k(   16) = (   0.0000000  -0.5000000  -0.5000000), wk =   0.0092593
        k(   17) = (   0.1666667   0.0000000   0.0000000), wk =   0.0185185
        k(   18) = (   0.1666667   0.0000000   0.1666667), wk =   0.0185185
        k(   19) = (   0.1666667   0.0000000   0.3333333), wk =   0.0185185
        k(   20) = (   0.1666667   0.0000000  -0.5000000), wk =   0.0185185
        k(   21) = (   0.1666667   0.1666667   0.0000000), wk =   0.0370370
        k(   22) = (   0.1666667   0.1666667   0.1666667), wk =   0.0370370
        k(   23) = (   0.1666667   0.1666667   0.3333333), wk =   0.0370370
        k(   24) = (   0.1666667   0.1666667  -0.5000000), wk =   0.0370370
        k(   25) = (   0.1666667   0.3333333   0.0000000), wk =   0.0185185
        k(   26) = (   0.1666667   0.3333333   0.1666667), wk =   0.0370370
        k(   27) = (   0.1666667   0.3333333   0.3333333), wk =   0.0370370
        k(   28) = (   0.1666667   0.3333333  -0.5000000), wk =   0.0185185
        k(   29) = (   0.1666667  -0.5000000   0.0000000), wk =   0.0185185
        k(   30) = (   0.1666667  -0.5000000   0.1666667), wk =   0.0185185
        k(   31) = (   0.1666667  -0.5000000   0.3333333), wk =   0.0185185
        k(   32) = (   0.1666667  -0.5000000  -0.5000000), wk =   0.0185185
        k(   33) = (   0.1666667  -0.3333333   0.0000000), wk =   0.0370370
        k(   34) = (   0.1666667  -0.3333333   0.1666667), wk =   0.0370370
        k(   35) = (   0.1666667  -0.3333333   0.3333333), wk =   0.0370370
        k(   36) = (   0.1666667  -0.3333333  -0.5000000), wk =   0.0370370
        k(   37) = (   0.1666667  -0.1666667   0.0000000), wk =   0.0185185
        k(   38) = (   0.1666667  -0.1666667   0.1666667), wk =   0.0370370
        k(   39) = (   0.1666667  -0.1666667   0.3333333), wk =   0.0370370
        k(   40) = (   0.1666667  -0.1666667  -0.5000000), wk =   0.0185185
        k(   41) = (   0.3333333   0.0000000   0.0000000), wk =   0.0185185
        k(   42) = (   0.3333333   0.0000000   0.1666667), wk =   0.0185185
        k(   43) = (   0.3333333   0.0000000   0.3333333), wk =   0.0185185
        k(   44) = (   0.3333333   0.0000000  -0.5000000), wk =   0.0185185
        k(   45) = (   0.3333333   0.1666667   0.0000000), wk =   0.0185185
        k(   46) = (   0.3333333   0.1666667   0.1666667), wk =   0.0370370
        k(   47) = (   0.3333333   0.1666667   0.3333333), wk =   0.0370370
        k(   48) = (   0.3333333   0.1666667  -0.5000000), wk =   0.0185185
        k(   49) = (   0.3333333  -0.5000000   0.0000000), wk =   0.0185185
        k(   50) = (   0.3333333  -0.5000000   0.1666667), wk =   0.0185185
        k(   51) = (   0.3333333  -0.5000000   0.3333333), wk =   0.0185185
        k(   52) = (   0.3333333  -0.5000000  -0.5000000), wk =   0.0185185
        k(   53) = (   0.3333333  -0.3333333   0.0000000), wk =   0.0185185
        k(   54) = (   0.3333333  -0.3333333   0.1666667), wk =   0.0370370
        k(   55) = (   0.3333333  -0.3333333   0.3333333), wk =   0.0370370
        k(   56) = (   0.3333333  -0.3333333  -0.5000000), wk =   0.0185185
        k(   57) = (  -0.5000000   0.0000000   0.0000000), wk =   0.0092593
        k(   58) = (  -0.5000000   0.0000000   0.1666667), wk =   0.0185185
        k(   59) = (  -0.5000000   0.0000000   0.3333333), wk =   0.0185185
        k(   60) = (  -0.5000000   0.0000000  -0.5000000), wk =   0.0092593
        k(   61) = (  -0.5000000  -0.5000000   0.0000000), wk =   0.0092593
        k(   62) = (  -0.5000000  -0.5000000   0.1666667), wk =   0.0185185
        k(   63) = (  -0.5000000  -0.5000000   0.3333333), wk =   0.0185185
        k(   64) = (  -0.5000000  -0.5000000  -0.5000000), wk =   0.0092593
        k(   65) = (   0.3333333  -0.1666667  -0.1666667), wk =   0.0370370
        k(   66) = (   0.3333333  -0.1666667  -0.3333333), wk =   0.0370370
        k(   67) = (   0.6666667  -0.3333333  -0.1666667), wk =   0.0370370
        k(   68) = (   0.6666667  -0.3333333  -0.3333333), wk =   0.0370370
        k(   69) = (   0.1666667   0.0000000  -0.1666667), wk =   0.0185185
        k(   70) = (   0.1666667   0.0000000  -0.3333333), wk =   0.0185185
        k(   71) = (   0.5000000  -0.1666667  -0.1666667), wk =   0.0370370
        k(   72) = (   0.5000000  -0.1666667  -0.3333333), wk =   0.0370370
        k(   73) = (  -0.8333333   0.5000000  -0.1666667), wk =   0.0185185
        k(   74) = (  -0.8333333   0.5000000  -0.3333333), wk =   0.0185185
        k(   75) = (  -0.5000000   0.3333333  -0.1666667), wk =   0.0370370
        k(   76) = (  -0.5000000   0.3333333  -0.3333333), wk =   0.0370370
        k(   77) = (   0.3333333   0.0000000  -0.1666667), wk =   0.0185185
        k(   78) = (   0.3333333   0.0000000  -0.3333333), wk =   0.0185185
        k(   79) = (  -0.6666667   0.5000000  -0.1666667), wk =   0.0185185
        k(   80) = (  -0.6666667   0.5000000  -0.3333333), wk =   0.0185185

     Dense  grid:   303111 G-vectors     FFT dimensions: (  90,  45, 192)

     Smooth grid:   106949 G-vectors     FFT dimensions: (  64,  32, 135)

     Dynamical RAM for                 wfc:       5.52 MB

     Dynamical RAM for     wfc (w. buffer):      60.69 MB

     Dynamical RAM for           str. fact:       2.31 MB

     Dynamical RAM for           local pot:       0.00 MB

     Dynamical RAM for          nlocal pot:      15.94 MB

     Dynamical RAM for                qrad:       3.21 MB

     Dynamical RAM for          rho,v,vnew:       7.92 MB

     Dynamical RAM for               rhoin:       2.64 MB

     Dynamical RAM for            rho*nmix:      18.50 MB

     Dynamical RAM for           G-vectors:       4.54 MB

     Dynamical RAM for          h,s,v(r/c):       0.53 MB

     Dynamical RAM for          <psi|beta>:       0.51 MB

     Dynamical RAM for                 psi:      11.03 MB

     Dynamical RAM for                hpsi:      11.03 MB

     Dynamical RAM for                spsi:      11.03 MB

     Dynamical RAM for      wfcinit/wfcrot:      16.50 MB

     Dynamical RAM for           addusdens:      29.63 MB

     Dynamical RAM for          addusforce:      32.42 MB

     Estimated static dynamical RAM per process >     108.14 MB

     Estimated max dynamical RAM per process >     160.79 MB

     Estimated total dynamical RAM >       4.52 GB

     Check: negative core charge=   -0.000002

     Initial potential from superposition of free atoms

     starting charge     215.9553, renormalised to     216.0000
     Starting wfcs are  156 randomized atomic wfcs

     total cpu time spent up to now is       17.5 secs

     per-process dynamical memory:   139.5 Mb

     Self-consistent Calculation

     iteration #  1     ecut=    50.00 Ry     beta= 0.30
     Davidson diagonalization with overlap

---- Real-time Memory Report at c_bands before calling an iterative solver
           161 MiB given to the printing process from OS
           136 MiB allocation reported by mallinfo(arena+hblkhd)
        103375 MiB available memory on the node where the printing process lives
------------------
     ethr =  1.00E-02,  avg # of iterations =  1.8

     total cpu time spent up to now is       44.9 secs

     total energy              =   -2168.56248917 Ry
     estimated scf accuracy    <       4.55159477 Ry

     iteration #  2     ecut=    50.00 Ry     beta= 0.30
     Davidson diagonalization with overlap

---- Real-time Memory Report at c_bands before calling an iterative solver
           189 MiB given to the printing process from OS
           164 MiB allocation reported by mallinfo(arena+hblkhd)
        102607 MiB available memory on the node where the printing process lives
------------------
     ethr =  2.11E-03,  avg # of iterations =  2.2

     total cpu time spent up to now is       80.2 secs

     total energy              =   -2169.28426829 Ry
     estimated scf accuracy    <       0.50411764 Ry

     iteration #  3     ecut=    50.00 Ry     beta= 0.30
     Davidson diagonalization with overlap

---- Real-time Memory Report at c_bands before calling an iterative solver
           198 MiB given to the printing process from OS
           170 MiB allocation reported by mallinfo(arena+hblkhd)
        102569 MiB available memory on the node where the printing process lives
------------------
     ethr =  2.33E-04,  avg # of iterations =  7.6

     total cpu time spent up to now is      141.7 secs

     total energy              =   -2169.40386022 Ry
     estimated scf accuracy    <       0.47942813 Ry

     iteration #  4     ecut=    50.00 Ry     beta= 0.30
     Davidson diagonalization with overlap

---- Real-time Memory Report at c_bands before calling an iterative solver
           198 MiB given to the printing process from OS
           170 MiB allocation reported by mallinfo(arena+hblkhd)
        102569 MiB available memory on the node where the printing process lives
------------------
     ethr =  2.22E-04,  avg # of iterations =  9.5

     total cpu time spent up to now is      219.2 secs

     total energy              =   -2169.70599317 Ry
     estimated scf accuracy    <       1.41967781 Ry

     iteration #  5     ecut=    50.00 Ry     beta= 0.30
     Davidson diagonalization with overlap

---- Real-time Memory Report at c_bands before calling an iterative solver
           211 MiB given to the printing process from OS
           184 MiB allocation reported by mallinfo(arena+hblkhd)
        102554 MiB available memory on the node where the printing process lives
------------------
     ethr =  2.22E-04,  avg # of iterations =  1.4

     total cpu time spent up to now is      245.9 secs

     total energy              =   -2169.07958999 Ry
     estimated scf accuracy    <       0.82190534 Ry

     iteration #  6     ecut=    50.00 Ry     beta= 0.30
     Davidson diagonalization with overlap

---- Real-time Memory Report at c_bands before calling an iterative solver
           211 MiB given to the printing process from OS
           184 MiB allocation reported by mallinfo(arena+hblkhd)
        102540 MiB available memory on the node where the printing process lives
------------------
     c_bands:  1 eigenvalues not converged
     ethr =  2.22E-04,  avg # of iterations =  9.5

     total cpu time spent up to now is      318.0 secs

     total energy              =   -2169.45867021 Ry
     estimated scf accuracy    <       2.58645218 Ry

     iteration #  7     ecut=    50.00 Ry     beta= 0.30
     Davidson diagonalization with overlap

---- Real-time Memory Report at c_bands before calling an iterative solver
           211 MiB given to the printing process from OS
           184 MiB allocation reported by mallinfo(arena+hblkhd)
        102539 MiB available memory on the node where the printing process lives
------------------
     ethr =  2.22E-04,  avg # of iterations =  5.2

     total cpu time spent up to now is      363.3 secs

     total energy              =   -2169.66539075 Ry
     estimated scf accuracy    <       0.36174560 Ry

     iteration #  8     ecut=    50.00 Ry     beta= 0.30
     Davidson diagonalization with overlap

---- Real-time Memory Report at c_bands before calling an iterative solver
           211 MiB given to the printing process from OS
           184 MiB allocation reported by mallinfo(arena+hblkhd)
        102539 MiB available memory on the node where the printing process lives
------------------
     ethr =  1.67E-04,  avg # of iterations =  1.9

     total cpu time spent up to now is      391.3 secs

     total energy              =   -2169.67452916 Ry
     estimated scf accuracy    <       0.33244470 Ry

     iteration #  9     ecut=    50.00 Ry     beta= 0.30
     Davidson diagonalization with overlap

---- Real-time Memory Report at c_bands before calling an iterative solver
           211 MiB given to the printing process from OS
           184 MiB allocation reported by mallinfo(arena+hblkhd)
        102539 MiB available memory on the node where the printing process lives
------------------
     ethr =  1.54E-04,  avg # of iterations =  1.8

     total cpu time spent up to now is      418.9 secs

     total energy              =   -2169.65645595 Ry
     estimated scf accuracy    <       0.30612298 Ry

     iteration # 10     ecut=    50.00 Ry     beta= 0.30
     Davidson diagonalization with overlap

---- Real-time Memory Report at c_bands before calling an iterative solver
           211 MiB given to the printing process from OS
           184 MiB allocation reported by mallinfo(arena+hblkhd)
        102538 MiB available memory on the node where the printing process lives
------------------
     ethr =  1.42E-04,  avg # of iterations =  1.4

     total cpu time spent up to now is      445.4 secs

     total energy              =   -2169.60542349 Ry
     estimated scf accuracy    <       0.24204416 Ry

     iteration # 11     ecut=    50.00 Ry     beta= 0.30
     Davidson diagonalization with overlap

---- Real-time Memory Report at c_bands before calling an iterative solver
           211 MiB given to the printing process from OS
           184 MiB allocation reported by mallinfo(arena+hblkhd)
        102538 MiB available memory on the node where the printing process lives
------------------
     ethr =  1.12E-04,  avg # of iterations =  3.0

     total cpu time spent up to now is      477.7 secs

     total energy              =   -2169.59793874 Ry
     estimated scf accuracy    <       0.09652509 Ry

     iteration # 12     ecut=    50.00 Ry     beta= 0.30
     Davidson diagonalization with overlap

---- Real-time Memory Report at c_bands before calling an iterative solver
           211 MiB given to the printing process from OS
           184 MiB allocation reported by mallinfo(arena+hblkhd)
        102538 MiB available memory on the node where the printing process lives
------------------
     ethr =  4.47E-05,  avg # of iterations =  5.6

     total cpu time spent up to now is      522.8 secs

     total energy              =   -2169.63477725 Ry
     estimated scf accuracy    <       0.00048575 Ry

     iteration # 13     ecut=    50.00 Ry     beta= 0.30
     Davidson diagonalization with overlap

---- Real-time Memory Report at c_bands before calling an iterative solver
           211 MiB given to the printing process from OS
           184 MiB allocation reported by mallinfo(arena+hblkhd)
        102538 MiB available memory on the node where the printing process lives
------------------
     c_bands:  1 eigenvalues not converged
     ethr =  2.25E-07,  avg # of iterations = 12.2

     total cpu time spent up to now is      611.5 secs

     total energy              =   -2169.63787494 Ry
     estimated scf accuracy    <       0.00473785 Ry

     iteration # 14     ecut=    50.00 Ry     beta= 0.30
     Davidson diagonalization with overlap

---- Real-time Memory Report at c_bands before calling an iterative solver
           211 MiB given to the printing process from OS
           184 MiB allocation reported by mallinfo(arena+hblkhd)
        102537 MiB available memory on the node where the printing process lives
------------------
     ethr =  2.25E-07,  avg # of iterations =  1.0

     total cpu time spent up to now is      636.6 secs

     total energy              =   -2169.63692356 Ry
     estimated scf accuracy    <       0.00455962 Ry

     iteration # 15     ecut=    50.00 Ry     beta= 0.30
     Davidson diagonalization with overlap

---- Real-time Memory Report at c_bands before calling an iterative solver
           211 MiB given to the printing process from OS
           184 MiB allocation reported by mallinfo(arena+hblkhd)
        102537 MiB available memory on the node where the printing process lives
------------------
     ethr =  2.25E-07,  avg # of iterations =  6.2

     total cpu time spent up to now is      681.1 secs

     total energy              =   -2169.63740255 Ry
     estimated scf accuracy    <       0.00182975 Ry

     iteration # 16     ecut=    50.00 Ry     beta= 0.30
     Davidson diagonalization with overlap

---- Real-time Memory Report at c_bands before calling an iterative solver
           211 MiB given to the printing process from OS
           184 MiB allocation reported by mallinfo(arena+hblkhd)
        102537 MiB available memory on the node where the printing process lives
------------------
     ethr =  2.25E-07,  avg # of iterations =  1.1

     total cpu time spent up to now is      706.5 secs

     total energy              =   -2169.63576729 Ry
     estimated scf accuracy    <       0.00241360 Ry

     iteration # 17     ecut=    50.00 Ry     beta= 0.30
     Davidson diagonalization with overlap

---- Real-time Memory Report at c_bands before calling an iterative solver
           211 MiB given to the printing process from OS
           184 MiB allocation reported by mallinfo(arena+hblkhd)
        102537 MiB available memory on the node where the printing process lives
------------------
     c_bands:  1 eigenvalues not converged
     ethr =  2.25E-07,  avg # of iterations = 12.9

     total cpu time spent up to now is      807.1 secs

     total energy              =   -2169.64392384 Ry
     estimated scf accuracy    <       0.00847988 Ry

     iteration # 18     ecut=    50.00 Ry     beta= 0.30
     Davidson diagonalization with overlap

---- Real-time Memory Report at c_bands before calling an iterative solver
           211 MiB given to the printing process from OS
           184 MiB allocation reported by mallinfo(arena+hblkhd)
        102536 MiB available memory on the node where the printing process lives
------------------
     c_bands:  1 eigenvalues not converged
     ethr =  2.25E-07,  avg # of iterations = 12.8

     total cpu time spent up to now is      902.7 secs

     total energy              =   -2169.64312018 Ry
     estimated scf accuracy    <       0.03769481 Ry

     iteration # 19     ecut=    50.00 Ry     beta= 0.30
     Davidson diagonalization with overlap

---- Real-time Memory Report at c_bands before calling an iterative solver
           211 MiB given to the printing process from OS
           184 MiB allocation reported by mallinfo(arena+hblkhd)
        102536 MiB available memory on the node where the printing process lives
------------------
     ethr =  2.25E-07,  avg # of iterations =  6.1

     total cpu time spent up to now is      946.7 secs

     total energy              =   -2169.63846337 Ry
     estimated scf accuracy    <       0.02898810 Ry

     iteration # 20     ecut=    50.00 Ry     beta= 0.30
     Davidson diagonalization with overlap

---- Real-time Memory Report at c_bands before calling an iterative solver
           211 MiB given to the printing process from OS
           184 MiB allocation reported by mallinfo(arena+hblkhd)
        102536 MiB available memory on the node where the printing process lives
------------------
     ethr =  2.25E-07,  avg # of iterations =  9.8

     total cpu time spent up to now is     1023.9 secs

     total energy              =   -2169.63564247 Ry
     estimated scf accuracy    <       0.01113885 Ry

     iteration # 21     ecut=    50.00 Ry     beta= 0.30
     Davidson diagonalization with overlap

---- Real-time Memory Report at c_bands before calling an iterative solver
           211 MiB given to the printing process from OS
           184 MiB allocation reported by mallinfo(arena+hblkhd)
        102536 MiB available memory on the node where the printing process lives
------------------
     c_bands:  1 eigenvalues not converged
     ethr =  2.25E-07,  avg # of iterations = 11.7

     total cpu time spent up to now is     1110.2 secs

     total energy              =   -2169.63676834 Ry
     estimated scf accuracy    <       0.00058579 Ry

     iteration # 22     ecut=    50.00 Ry     beta= 0.30
     Davidson diagonalization with overlap

---- Real-time Memory Report at c_bands before calling an iterative solver
           211 MiB given to the printing process from OS
           184 MiB allocation reported by mallinfo(arena+hblkhd)
        102518 MiB available memory on the node where the printing process lives
------------------
     ethr =  2.25E-07,  avg # of iterations =  1.9

     total cpu time spent up to now is     1138.2 secs

     total energy              =   -2169.63665476 Ry
     estimated scf accuracy    <       0.00032261 Ry

     iteration # 23     ecut=    50.00 Ry     beta= 0.30
     Davidson diagonalization with overlap

---- Real-time Memory Report at c_bands before calling an iterative solver
           211 MiB given to the printing process from OS
           184 MiB allocation reported by mallinfo(arena+hblkhd)
        102529 MiB available memory on the node where the printing process lives
------------------
     ethr =  1.49E-07,  avg # of iterations =  5.5

     total cpu time spent up to now is     1184.7 secs

     total energy              =   -2169.63678739 Ry
     estimated scf accuracy    <       0.00002203 Ry

     iteration # 24     ecut=    50.00 Ry     beta= 0.30
     Davidson diagonalization with overlap

---- Real-time Memory Report at c_bands before calling an iterative solver
           211 MiB given to the printing process from OS
           184 MiB allocation reported by mallinfo(arena+hblkhd)
        102529 MiB available memory on the node where the printing process lives
------------------
     ethr =  1.02E-08,  avg # of iterations =  7.1

     total cpu time spent up to now is     1229.3 secs

     total energy              =   -2169.63678326 Ry
     estimated scf accuracy    <       0.00002366 Ry

     iteration # 25     ecut=    50.00 Ry     beta= 0.30
     Davidson diagonalization with overlap

---- Real-time Memory Report at c_bands before calling an iterative solver
           211 MiB given to the printing process from OS
           184 MiB allocation reported by mallinfo(arena+hblkhd)
        102529 MiB available memory on the node where the printing process lives
------------------
     ethr =  1.02E-08,  avg # of iterations =  2.6

     total cpu time spent up to now is     1262.7 secs

     total energy              =   -2169.63678390 Ry
     estimated scf accuracy    <       0.00000456 Ry

     iteration # 26     ecut=    50.00 Ry     beta= 0.30
     Davidson diagonalization with overlap

---- Real-time Memory Report at c_bands before calling an iterative solver
           211 MiB given to the printing process from OS
           184 MiB allocation reported by mallinfo(arena+hblkhd)
        102529 MiB available memory on the node where the printing process lives
------------------
     ethr =  2.11E-09,  avg # of iterations =  8.0

     total cpu time spent up to now is     1328.0 secs

     total energy              =   -2169.63678821 Ry
     estimated scf accuracy    <       0.00000301 Ry

     iteration # 27     ecut=    50.00 Ry     beta= 0.30
     Davidson diagonalization with overlap

---- Real-time Memory Report at c_bands before calling an iterative solver
           211 MiB given to the printing process from OS
           184 MiB allocation reported by mallinfo(arena+hblkhd)
        102529 MiB available memory on the node where the printing process lives
------------------
     ethr =  1.39E-09,  avg # of iterations =  1.4

     total cpu time spent up to now is     1354.9 secs

     total energy              =   -2169.63678710 Ry
     estimated scf accuracy    <       0.00000192 Ry

     iteration # 28     ecut=    50.00 Ry     beta= 0.30
     Davidson diagonalization with overlap

---- Real-time Memory Report at c_bands before calling an iterative solver
           211 MiB given to the printing process from OS
           184 MiB allocation reported by mallinfo(arena+hblkhd)
        102529 MiB available memory on the node where the printing process lives
------------------
     ethr =  8.90E-10,  avg # of iterations =  5.8

     total cpu time spent up to now is     1406.6 secs

     total energy              =   -2169.63678785 Ry
     estimated scf accuracy    <       0.00000088 Ry

     iteration # 29     ecut=    50.00 Ry     beta= 0.30
     Davidson diagonalization with overlap

---- Real-time Memory Report at c_bands before calling an iterative solver
           211 MiB given to the printing process from OS
           184 MiB allocation reported by mallinfo(arena+hblkhd)
        102530 MiB available memory on the node where the printing process lives
------------------
     ethr =  4.07E-10,  avg # of iterations =  2.2

     total cpu time spent up to now is     1436.1 secs

     total energy              =   -2169.63678781 Ry
     estimated scf accuracy    <       0.00000025 Ry

     iteration # 30     ecut=    50.00 Ry     beta= 0.30
     Davidson diagonalization with overlap

---- Real-time Memory Report at c_bands before calling an iterative solver
           211 MiB given to the printing process from OS
           184 MiB allocation reported by mallinfo(arena+hblkhd)
        102530 MiB available memory on the node where the printing process lives
------------------
     ethr =  1.16E-10,  avg # of iterations =  6.8

     total cpu time spent up to now is     1489.4 secs

     total energy              =   -2169.63678796 Ry
     estimated scf accuracy    <       0.00000006 Ry

     iteration # 31     ecut=    50.00 Ry     beta= 0.30
     Davidson diagonalization with overlap

---- Real-time Memory Report at c_bands before calling an iterative solver
           211 MiB given to the printing process from OS
           184 MiB allocation reported by mallinfo(arena+hblkhd)
        102530 MiB available memory on the node where the printing process lives
------------------
     ethr =  2.85E-11,  avg # of iterations =  2.5

     total cpu time spent up to now is     1520.8 secs

     total energy              =   -2169.63678795 Ry
     estimated scf accuracy    <       0.00000003 Ry

     iteration # 32     ecut=    50.00 Ry     beta= 0.30
     Davidson diagonalization with overlap

---- Real-time Memory Report at c_bands before calling an iterative solver
           211 MiB given to the printing process from OS
           184 MiB allocation reported by mallinfo(arena+hblkhd)
        102530 MiB available memory on the node where the printing process lives
------------------
     ethr =  1.31E-11,  avg # of iterations =  7.7

     total cpu time spent up to now is     1586.6 secs

     total energy              =   -2169.63678798 Ry
     estimated scf accuracy    <       0.00000006 Ry

     iteration # 33     ecut=    50.00 Ry     beta= 0.30
     Davidson diagonalization with overlap

---- Real-time Memory Report at c_bands before calling an iterative solver
           211 MiB given to the printing process from OS
           184 MiB allocation reported by mallinfo(arena+hblkhd)
        102530 MiB available memory on the node where the printing process lives
------------------
     ethr =  1.31E-11,  avg # of iterations =  1.1

     total cpu time spent up to now is     1612.3 secs

     total energy              =   -2169.63678796 Ry
     estimated scf accuracy    <       0.00000005 Ry

     iteration # 34     ecut=    50.00 Ry     beta= 0.30
     Davidson diagonalization with overlap

---- Real-time Memory Report at c_bands before calling an iterative solver
           211 MiB given to the printing process from OS
           184 MiB allocation reported by mallinfo(arena+hblkhd)
        102530 MiB available memory on the node where the printing process lives
------------------
     ethr =  1.31E-11,  avg # of iterations =  5.9

     total cpu time spent up to now is     1657.6 secs

     End of self-consistent calculation

          k = 0.0000 0.0000 0.0000 ( 13377 PWs)   bands (ev):

   -11.8559 -11.6981 -11.6981 -11.4002 -11.3783 -11.3783 -11.3408 -11.3407
   -11.2399 -11.2398 -11.2173 -11.1993  -0.1512  -0.1512  -0.0728  -0.0727
    -0.0339  -0.0339  -0.0221   0.0240   0.0240   0.0651   0.0990   0.0992
     0.1149   0.1149   0.1150   0.1150   0.2094   0.2094   0.2095   0.2095
     0.2281   0.2930   0.2931   0.3201   0.3201   0.3944   0.4392   0.4392
     0.4563   0.4563   0.5004   0.5189   0.5580   0.5580   0.7027   0.7867
     0.8061   0.8062   0.8664   0.8821   0.8821   0.8821   0.8821   0.9402
     0.9506   0.9506   0.9832   0.9832   0.9832   0.9832   0.9874   0.9874
     1.0035   1.0035   1.0037   1.0038   1.0428   1.0639   1.0639   1.0673
     1.1481   1.7072   1.7073   1.7325   1.9926   1.9926   2.3124   2.4730
     2.4730   2.7889   3.1171   3.5395   3.5395   3.7759   3.7759   3.8965
     3.8965   4.1574   4.2560   4.2563   4.2746   4.2746   4.4837   4.4837
     4.4840   4.4841   4.5037   4.5037   4.6165   4.9159   4.9159   4.9163
     4.9163   5.1195   5.1198   5.1885

     occupation numbers 
     1.0000   1.0000   1.0000   1.0000   1.0000   1.0000   1.0000   1.0000
     1.0000   1.0000   1.0000   1.0000   1.0000   1.0000   1.0000   1.0000
     1.0000   1.0000   1.0000   1.0000   1.0000   1.0000   1.0000   1.0000
     1.0000   1.0000   1.0000   1.0000   1.0000   1.0000   1.0000   1.0000
     1.0000   1.0000   1.0000   1.0000   1.0000   1.0000   1.0000   1.0000
     1.0000   1.0000   1.0000   1.0000   1.0000   1.0000   1.0000   1.0000
     1.0000   1.0000   1.0000   1.0000   1.0000   1.0000   1.0000   1.0000
     1.0000   1.0000   1.0000   1.0000   1.0000   1.0000   1.0000   1.0000
     1.0000   1.0000   1.0000   1.0000   1.0000   1.0000   1.0000   1.0000
     1.0000   1.0000   1.0000   1.0000   1.0000   1.0000   1.0000   1.0000
     1.0000   1.0000   1.0000   1.0000   1.0000   1.0000   1.0000   1.0000
     1.0000   1.0000   1.0000   1.0000   1.0000   1.0000   1.0000   1.0000
     1.0000   1.0000   1.0000   1.0000   1.0000   1.0000   1.0000   1.0000
     1.0000   1.0000   1.0000   1.0000

          k = 0.0000 0.0000 0.0765 ( 13383 PWs)   bands (ev):

   -11.8511 -11.7433 -11.6479 -11.4291 -11.3983 -11.3572 -11.3323 -11.3231
   -11.2541 -11.2276 -11.2222 -11.2004  -0.1710  -0.1238  -0.0977  -0.0959
    -0.0427  -0.0418  -0.0272   0.0451   0.0594   0.0993   0.0995   0.1082
     0.1084   0.1146   0.1243   0.1244   0.1886   0.1887   0.2303   0.2304
     0.2306   0.2900   0.2901   0.2922   0.3525   0.3708   0.4317   0.4439
     0.4498   0.4708   0.4974   0.5150   0.5174   0.5984   0.6905   0.6983
     0.8087   0.8087   0.8622   0.8623   0.8758   0.9025   0.9025   0.9405
     0.9474   0.9544   0.9720   0.9720   0.9784   0.9821   0.9916   0.9916
     0.9979   1.0034   1.0034   1.0209   1.0401   1.0599   1.0664   1.0674
     1.2608   1.6875   1.7237   1.7374   1.9305   2.0592   2.2196   2.2972
     2.7229   2.8323   3.1309   3.4246   3.5544   3.6627   3.6681   3.9851
     4.1266   4.1640   4.1794   4.2630   4.2634   4.3734   4.4194   4.4198
     4.4711   4.4919   4.5541   4.5544   4.6062   4.8498   4.8502   4.9750
     4.9753   5.0681   5.1134   5.1138

     occupation numbers 
     1.0000   1.0000   1.0000   1.0000   1.0000   1.0000   1.0000   1.0000
     1.0000   1.0000   1.0000   1.0000   1.0000   1.0000   1.0000   1.0000
     1.0000   1.0000   1.0000   1.0000   1.0000   1.0000   1.0000   1.0000
     1.0000   1.0000   1.0000   1.0000   1.0000   1.0000   1.0000   1.0000
     1.0000   1.0000   1.0000   1.0000   1.0000   1.0000   1.0000   1.0000
     1.0000   1.0000   1.0000   1.0000   1.0000   1.0000   1.0000   1.0000
     1.0000   1.0000   1.0000   1.0000   1.0000   1.0000   1.0000   1.0000
     1.0000   1.0000   1.0000   1.0000   1.0000   1.0000   1.0000   1.0000
     1.0000   1.0000   1.0000   1.0000   1.0000   1.0000   1.0000   1.0000
     1.0000   1.0000   1.0000   1.0000   1.0000   1.0000   1.0000   1.0000
     1.0000   1.0000   1.0000   1.0000   1.0000   1.0000   1.0000   1.0000
     1.0000   1.0000   1.0000   1.0000   1.0000   1.0000   1.0000   1.0000
     1.0000   1.0000   1.0000   1.0000   1.0000   1.0000   1.0000   1.0000
     1.0000   1.0000   1.0000   1.0000

          k = 0.0000 0.0000 0.1529 ( 13356 PWs)   bands (ev):

   -11.8370 -11.7823 -11.5942 -11.4831 -11.3927 -11.3717 -11.3051 -11.2927
   -11.2700 -11.2368 -11.2174 -11.2038  -0.1784  -0.1434  -0.1083  -0.0935
    -0.0842  -0.0419  -0.0107   0.0439   0.1001   0.1002   0.1039   0.1041
     0.1343   0.1363   0.1365   0.1689   0.1691   0.2299   0.2383   0.2502
     0.2504   0.2690   0.2813   0.2814   0.3094   0.3891   0.4284   0.4347
     0.4630   0.4716   0.4861   0.4891   0.5113   0.5271   0.6342   0.6852
     0.8165   0.8166   0.8442   0.8442   0.8992   0.9224   0.9224   0.9413
     0.9448   0.9568   0.9577   0.9577   0.9590   0.9709   0.9972   0.9973
     1.0029   1.0029   1.0098   1.0325   1.0347   1.0538   1.0676   1.0678
     1.4744   1.6805   1.7043   1.7762   1.8735   1.9653   2.1283   2.2554
     2.9523   2.9671   3.1715   3.3222   3.3331   3.4384   3.7904   4.0444
     4.1705   4.2394   4.2839   4.2842   4.3607   4.3635   4.3638   4.4050
     4.4310   4.4578   4.5758   4.6282   4.6286   4.7784   4.7788   4.8417
     5.0254   5.0257   5.0954   5.0958

     occupation numbers 
     1.0000   1.0000   1.0000   1.0000   1.0000   1.0000   1.0000   1.0000
     1.0000   1.0000   1.0000   1.0000   1.0000   1.0000   1.0000   1.0000
     1.0000   1.0000   1.0000   1.0000   1.0000   1.0000   1.0000   1.0000
     1.0000   1.0000   1.0000   1.0000   1.0000   1.0000   1.0000   1.0000
     1.0000   1.0000   1.0000   1.0000   1.0000   1.0000   1.0000   1.0000
     1.0000   1.0000   1.0000   1.0000   1.0000   1.0000   1.0000   1.0000
     1.0000   1.0000   1.0000   1.0000   1.0000   1.0000   1.0000   1.0000
     1.0000   1.0000   1.0000   1.0000   1.0000   1.0000   1.0000   1.0000
     1.0000   1.0000   1.0000   1.0000   1.0000   1.0000   1.0000   1.0000
     1.0000   1.0000   1.0000   1.0000   1.0000   1.0000   1.0000   1.0000
     1.0000   1.0000   1.0000   1.0000   1.0000   1.0000   1.0000   1.0000
     1.0000   1.0000   1.0000   1.0000   1.0000   1.0000   1.0000   1.0000
     1.0000   1.0000   1.0000   1.0000   1.0000   1.0000   1.0000   1.0000
     1.0000   1.0000   1.0000   1.0000

          k = 0.0000 0.0000-0.2294 ( 13374 PWs)   bands (ev):

   -11.8138 -11.8138 -11.5387 -11.5387 -11.3838 -11.3837 -11.2871 -11.2871
   -11.2605 -11.2605 -11.2095 -11.2095  -0.1699  -0.1699  -0.1057  -0.1056
    -0.0649  -0.0649   0.0195   0.0195   0.1013   0.1013   0.1014   0.1015
     0.1514   0.1514   0.1515   0.1515   0.2259   0.2259   0.2510   0.2510
     0.2676   0.2676   0.2677   0.2677   0.3689   0.3689   0.4291   0.4291
     0.4296   0.4296   0.4767   0.4768   0.5001   0.5002   0.6636   0.6636
     0.8284   0.8284   0.8285   0.8285   0.9281   0.9281   0.9411   0.9411
     0.9411   0.9411   0.9428   0.9428   0.9644   0.9644   1.0008   1.0008
     1.0008   1.0008   1.0218   1.0218   1.0456   1.0456   1.0679   1.0679
     1.6870   1.6871   1.7146   1.7146   1.8219   1.8219   2.1960   2.1960
     3.1265   3.1265   3.2053   3.2053   3.2365   3.2365   3.9187   3.9188
     4.3177   4.3177   4.3180   4.3181   4.3213   4.3213   4.3220   4.3220
     4.5259   4.5259   4.6000   4.6000   4.7038   4.7038   4.7042   4.7042
     5.0658   5.0658   5.0662   5.0662

     occupation numbers 
     1.0000   1.0000   1.0000   1.0000   1.0000   1.0000   1.0000   1.0000
     1.0000   1.0000   1.0000   1.0000   1.0000   1.0000   1.0000   1.0000
     1.0000   1.0000   1.0000   1.0000   1.0000   1.0000   1.0000   1.0000
     1.0000   1.0000   1.0000   1.0000   1.0000   1.0000   1.0000   1.0000
     1.0000   1.0000   1.0000   1.0000   1.0000   1.0000   1.0000   1.0000
     1.0000   1.0000   1.0000   1.0000   1.0000   1.0000   1.0000   1.0000
     1.0000   1.0000   1.0000   1.0000   1.0000   1.0000   1.0000   1.0000
     1.0000   1.0000   1.0000   1.0000   1.0000   1.0000   1.0000   1.0000
     1.0000   1.0000   1.0000   1.0000   1.0000   1.0000   1.0000   1.0000
     1.0000   1.0000   1.0000   1.0000   1.0000   1.0000   1.0000   1.0000
     1.0000   1.0000   1.0000   1.0000   1.0000   1.0000   1.0000   1.0000
     1.0000   1.0000   1.0000   1.0000   1.0000   1.0000   1.0000   1.0000
     1.0000   1.0000   1.0000   1.0000   1.0000   1.0000   1.0000   1.0000
     1.0000   1.0000   1.0000   1.0000

          k = 0.0000 0.3849 0.0000 ( 13409 PWs)   bands (ev):

   -11.7608 -11.6190 -11.6189 -11.4046 -11.3434 -11.3434 -11.3363 -11.3363
   -11.2387 -11.2386 -11.1968 -11.1961  -0.1100  -0.1100  -0.0783  -0.0783
     0.0008   0.0008   0.0077   0.0177   0.0177   0.0437   0.1449   0.1530
     0.1569   0.1569   0.1725   0.1725   0.1851   0.2564   0.2564   0.2675
     0.2675   0.2858   0.2858   0.2904   0.3777   0.3907   0.3907   0.3980
     0.4289   0.4818   0.4818   0.5487   0.5487   0.6723   0.7409   0.7627
     0.7889   0.8108   0.8435   0.8777   0.8777   0.8809   0.8810   0.8821
     0.8952   0.8952   0.9333   0.9333   0.9856   0.9856   1.0062   1.0062
     1.0169   1.0460   1.0498   1.0498   1.1219   1.1219   1.1256   1.1543
     1.2808   1.7635   1.8430   1.8430   2.1469   2.1469   2.2740   2.4697
     2.4697   2.7355   3.0344   3.0985   3.0986   3.4218   3.4218   3.5427
     3.8863   3.8863   3.9743   3.9877   3.9877   4.0206   4.0207   4.0593
     4.1526   4.2476   4.2476   4.3786   4.5406   4.5406   4.7629   4.7629
     4.8219   4.8219   5.0068   5.0298

     occupation numbers 
     1.0000   1.0000   1.0000   1.0000   1.0000   1.0000   1.0000   1.0000
     1.0000   1.0000   1.0000   1.0000   1.0000   1.0000   1.0000   1.0000
     1.0000   1.0000   1.0000   1.0000   1.0000   1.0000   1.0000   1.0000
     1.0000   1.0000   1.0000   1.0000   1.0000   1.0000   1.0000   1.0000
     1.0000   1.0000   1.0000   1.0000   1.0000   1.0000   1.0000   1.0000
     1.0000   1.0000   1.0000   1.0000   1.0000   1.0000   1.0000   1.0000
     1.0000   1.0000   1.0000   1.0000   1.0000   1.0000   1.0000   1.0000
     1.0000   1.0000   1.0000   1.0000   1.0000   1.0000   1.0000   1.0000
     1.0000   1.0000   1.0000   1.0000   1.0000   1.0000   1.0000   1.0000
     1.0000   1.0000   1.0000   1.0000   1.0000   1.0000   1.0000   1.0000
     1.0000   1.0000   1.0000   1.0000   1.0000   1.0000   1.0000   1.0000
     1.0000   1.0000   1.0000   1.0000   1.0000   1.0000   1.0000   1.0000
     1.0000   1.0000   1.0000   1.0000   1.0000   1.0000   1.0000   1.0000
     1.0000   1.0000   1.0000   1.0000

          k = 0.0000 0.3849 0.0765 ( 13410 PWs)   bands (ev):

   -11.7565 -11.6595 -11.5741 -11.4027 -11.3807 -11.3603 -11.3252 -11.2963
   -11.2535 -11.2258 -11.2010 -11.1973  -0.1300  -0.1013  -0.0835  -0.0625
    -0.0479  -0.0399   0.0037   0.0405   0.0736   0.0836   0.1455   0.1509
     0.1617   0.1624   0.1627   0.1836   0.1851   0.2288   0.2525   0.2622
     0.2857   0.2924   0.2927   0.3090   0.3744   0.3828   0.3835   0.3984
     0.4290   0.4620   0.5035   0.5084   0.5970   0.6598   0.7105   0.7348
     0.7858   0.8132   0.8390   0.8529   0.8622   0.8809   0.8921   0.9005
     0.9029   0.9072   0.9321   0.9322   0.9723   0.9904   0.9962   1.0162
     1.0193   1.0424   1.0445   1.0598   1.0852   1.1099   1.1327   1.1540
     1.3943   1.7607   1.8067   1.8855   2.0908   2.2014   2.2624   2.2809
     2.6620   2.7370   2.9738   3.0696   3.2360   3.2917   3.5352   3.5518
     3.7127   3.8094   3.9194   3.9828   4.0374   4.0735   4.1256   4.1486
     4.1707   4.1738   4.3316   4.3673   4.4962   4.5455   4.6840   4.7087
     4.8334   4.9125   4.9995   5.0312

     occupation numbers 
     1.0000   1.0000   1.0000   1.0000   1.0000   1.0000   1.0000   1.0000
     1.0000   1.0000   1.0000   1.0000   1.0000   1.0000   1.0000   1.0000
     1.0000   1.0000   1.0000   1.0000   1.0000   1.0000   1.0000   1.0000
     1.0000   1.0000   1.0000   1.0000   1.0000   1.0000   1.0000   1.0000
     1.0000   1.0000   1.0000   1.0000   1.0000   1.0000   1.0000   1.0000
     1.0000   1.0000   1.0000   1.0000   1.0000   1.0000   1.0000   1.0000
     1.0000   1.0000   1.0000   1.0000   1.0000   1.0000   1.0000   1.0000
     1.0000   1.0000   1.0000   1.0000   1.0000   1.0000   1.0000   1.0000
     1.0000   1.0000   1.0000   1.0000   1.0000   1.0000   1.0000   1.0000
     1.0000   1.0000   1.0000   1.0000   1.0000   1.0000   1.0000   1.0000
     1.0000   1.0000   1.0000   1.0000   1.0000   1.0000   1.0000   1.0000
     1.0000   1.0000   1.0000   1.0000   1.0000   1.0000   1.0000   1.0000
     1.0000   1.0000   1.0000   1.0000   1.0000   1.0000   1.0000   1.0000
     1.0000   1.0000   1.0000   1.0000

          k = 0.0000 0.3849 0.1529 ( 13412 PWs)   bands (ev):

   -11.7437 -11.6944 -11.5264 -11.4282 -11.3969 -11.3753 -11.3065 -11.2701
   -11.2618 -11.2151 -11.2135 -11.2008  -0.1386  -0.1117  -0.1072  -0.0820
    -0.0549  -0.0162  -0.0087   0.0301   0.1218   0.1417   0.1453   0.1473
     0.1554   0.1720   0.1795   0.1964   0.2006   0.2059   0.2396   0.2574
     0.2707   0.3220   0.3308   0.3446   0.3510   0.3649   0.3725   0.4075
     0.4252   0.4504   0.4682   0.5424   0.5834   0.6261   0.6439   0.7161
     0.7945   0.8200   0.8298   0.8394   0.8451   0.8652   0.9078   0.9168
     0.9202   0.9276   0.9280   0.9291   0.9567   0.9718   1.0042   1.0140
     1.0305   1.0384   1.0410   1.0559   1.0716   1.0972   1.1418   1.1524
     1.5957   1.7574   1.7790   1.9325   2.0358   2.0431   2.2492   2.2900
     2.7504   2.8386   2.8688   3.1514   3.1702   3.3806   3.5106   3.5772
     3.6071   3.6726   3.8726   3.9792   4.0079   4.1036   4.1704   4.2266
     4.2881   4.2901   4.3384   4.4200   4.4243   4.5048   4.5780   4.5989
     4.8937   4.9771   4.9778   5.0300

     occupation numbers 
     1.0000   1.0000   1.0000   1.0000   1.0000   1.0000   1.0000   1.0000
     1.0000   1.0000   1.0000   1.0000   1.0000   1.0000   1.0000   1.0000
     1.0000   1.0000   1.0000   1.0000   1.0000   1.0000   1.0000   1.0000
     1.0000   1.0000   1.0000   1.0000   1.0000   1.0000   1.0000   1.0000
     1.0000   1.0000   1.0000   1.0000   1.0000   1.0000   1.0000   1.0000
     1.0000   1.0000   1.0000   1.0000   1.0000   1.0000   1.0000   1.0000
     1.0000   1.0000   1.0000   1.0000   1.0000   1.0000   1.0000   1.0000
     1.0000   1.0000   1.0000   1.0000   1.0000   1.0000   1.0000   1.0000
     1.0000   1.0000   1.0000   1.0000   1.0000   1.0000   1.0000   1.0000
     1.0000   1.0000   1.0000   1.0000   1.0000   1.0000   1.0000   1.0000
     1.0000   1.0000   1.0000   1.0000   1.0000   1.0000   1.0000   1.0000
     1.0000   1.0000   1.0000   1.0000   1.0000   1.0000   1.0000   1.0000
     1.0000   1.0000   1.0000   1.0000   1.0000   1.0000   1.0000   1.0000
     1.0000   1.0000   1.0000   1.0000

          k = 0.0000 0.3849-0.2294 ( 13408 PWs)   bands (ev):

   -11.7228 -11.7228 -11.4773 -11.4772 -11.3877 -11.3876 -11.2879 -11.2879
   -11.2340 -11.2340 -11.2068 -11.2068  -0.1320  -0.1320  -0.1060  -0.1060
    -0.0288  -0.0288   0.0111   0.0111   0.1372   0.1372   0.1505   0.1505
     0.1705   0.1705   0.1870   0.1870   0.2189   0.2189   0.2423   0.2423
     0.2948   0.2948   0.3499   0.3499   0.3513   0.3513   0.4171   0.4172
     0.4505   0.4505   0.4509   0.4509   0.5831   0.5831   0.6849   0.6849
     0.8099   0.8099   0.8309   0.8309   0.8499   0.8499   0.9201   0.9201
     0.9240   0.9240   0.9392   0.9392   0.9508   0.9508   1.0102   1.0102
     1.0382   1.0382   1.0413   1.0413   1.0843   1.0843   1.1484   1.1484
     1.7623   1.7623   1.8178   1.8178   1.9828   1.9828   2.2813   2.2813
     2.7922   2.7922   3.0010   3.0010   3.3232   3.3232   3.5277   3.5277
     3.6080   3.6081   3.9079   3.9079   4.0486   4.0487   4.2407   4.2408
     4.3477   4.3477   4.4177   4.4177   4.4360   4.4360   4.5100   4.5100
     4.9423   4.9423   5.0150   5.0150

     occupation numbers 
     1.0000   1.0000   1.0000   1.0000   1.0000   1.0000   1.0000   1.0000
     1.0000   1.0000   1.0000   1.0000   1.0000   1.0000   1.0000   1.0000
     1.0000   1.0000   1.0000   1.0000   1.0000   1.0000   1.0000   1.0000
     1.0000   1.0000   1.0000   1.0000   1.0000   1.0000   1.0000   1.0000
     1.0000   1.0000   1.0000   1.0000   1.0000   1.0000   1.0000   1.0000
     1.0000   1.0000   1.0000   1.0000   1.0000   1.0000   1.0000   1.0000
     1.0000   1.0000   1.0000   1.0000   1.0000   1.0000   1.0000   1.0000
     1.0000   1.0000   1.0000   1.0000   1.0000   1.0000   1.0000   1.0000
     1.0000   1.0000   1.0000   1.0000   1.0000   1.0000   1.0000   1.0000
     1.0000   1.0000   1.0000   1.0000   1.0000   1.0000   1.0000   1.0000
     1.0000   1.0000   1.0000   1.0000   1.0000   1.0000   1.0000   1.0000
     1.0000   1.0000   1.0000   1.0000   1.0000   1.0000   1.0000   1.0000
     1.0000   1.0000   1.0000   1.0000   1.0000   1.0000   1.0000   1.0000
     1.0000   1.0000   1.0000   1.0000

          k = 0.0000 0.7698 0.0000 ( 13385 PWs)   bands (ev):

   -11.5437 -11.4457 -11.4457 -11.4046 -11.3434 -11.3434 -11.2617 -11.2617
   -11.2387 -11.2386 -11.1961 -11.1771  -0.1548  -0.1548  -0.0782  -0.0782
    -0.0373  -0.0293  -0.0293   0.0177   0.0177   0.0437   0.1850   0.2103
     0.2424   0.2675   0.2675   0.2768   0.2768   0.2976   0.2976   0.3740
     0.3831   0.3831   0.3907   0.3907   0.3980   0.4289   0.4593   0.4593
     0.4818   0.4818   0.5486   0.5486   0.5816   0.6588   0.6723   0.7408
     0.8435   0.8566   0.8717   0.8821   0.8952   0.8952   0.9095   0.9095
     0.9100   0.9100   0.9333   0.9333   0.9886   0.9886   1.0360   1.0460
     1.0498   1.0498   1.0560   1.0560   1.1220   1.1220   1.1544   1.1625
     1.7063   1.7636   1.8431   1.8431   2.0827   2.0827   2.1469   2.1469
     2.2740   2.4613   2.5301   2.5301   2.7355   3.0344   3.0984   3.0985
     3.1325   3.4141   3.6754   3.6754   3.7796   3.7797   3.8862   3.8863
     3.9876   3.9876   4.1526   4.3785   4.4419   4.4419   4.5406   4.5406
     4.5427   4.6514   4.6514   4.7533

     occupation numbers 
     1.0000   1.0000   1.0000   1.0000   1.0000   1.0000   1.0000   1.0000
     1.0000   1.0000   1.0000   1.0000   1.0000   1.0000   1.0000   1.0000
     1.0000   1.0000   1.0000   1.0000   1.0000   1.0000   1.0000   1.0000
     1.0000   1.0000   1.0000   1.0000   1.0000   1.0000   1.0000   1.0000
     1.0000   1.0000   1.0000   1.0000   1.0000   1.0000   1.0000   1.0000
     1.0000   1.0000   1.0000   1.0000   1.0000   1.0000   1.0000   1.0000
     1.0000   1.0000   1.0000   1.0000   1.0000   1.0000   1.0000   1.0000
     1.0000   1.0000   1.0000   1.0000   1.0000   1.0000   1.0000   1.0000
     1.0000   1.0000   1.0000   1.0000   1.0000   1.0000   1.0000   1.0000
     1.0000   1.0000   1.0000   1.0000   1.0000   1.0000   1.0000   1.0000
     1.0000   1.0000   1.0000   1.0000   1.0000   1.0000   1.0000   1.0000
     1.0000   1.0000   1.0000   1.0000   1.0000   1.0000   1.0000   1.0000
     1.0000   1.0000   1.0000   1.0000   1.0000   1.0000   1.0000   1.0000
     1.0000   1.0000   1.0000   1.0000

          k = 0.0000 0.7698 0.0765 ( 13379 PWs)   bands (ev):

   -11.5407 -11.4733 -11.4155 -11.4027 -11.3603 -11.3252 -11.2896 -11.2535
   -11.2370 -11.2258 -11.1973 -11.1796  -0.1719  -0.1299  -0.1013  -0.0913
    -0.0479  -0.0418  -0.0398   0.0406   0.0424   0.0836   0.1835   0.2121
     0.2350   0.2524   0.2563   0.2923   0.2965   0.3010   0.3057   0.3533
     0.3695   0.3829   0.3836   0.3984   0.4215   0.4254   0.4290   0.4621
     0.4918   0.5034   0.5085   0.5775   0.5970   0.6446   0.6598   0.7348
     0.8390   0.8495   0.8728   0.8809   0.8845   0.8921   0.8985   0.9072
     0.9216   0.9321   0.9322   0.9367   0.9754   1.0011   1.0343   1.0352
     1.0424   1.0445   1.0598   1.0754   1.1099   1.1328   1.1528   1.1540
     1.7324   1.7608   1.8068   1.8856   2.0108   2.0909   2.1556   2.2015
     2.2809   2.4574   2.4871   2.5928   2.7371   2.9737   3.0695   3.1269
     3.2359   3.4257   3.4579   3.6785   3.7127   3.8093   3.8892   3.8994
     4.0733   4.1256   4.1738   4.3413   4.3672   4.4962   4.5318   4.5455
     4.5571   4.5779   4.6813   4.7440

     occupation numbers 
     1.0000   1.0000   1.0000   1.0000   1.0000   1.0000   1.0000   1.0000
     1.0000   1.0000   1.0000   1.0000   1.0000   1.0000   1.0000   1.0000
     1.0000   1.0000   1.0000   1.0000   1.0000   1.0000   1.0000   1.0000
     1.0000   1.0000   1.0000   1.0000   1.0000   1.0000   1.0000   1.0000
     1.0000   1.0000   1.0000   1.0000   1.0000   1.0000   1.0000   1.0000
     1.0000   1.0000   1.0000   1.0000   1.0000   1.0000   1.0000   1.0000
     1.0000   1.0000   1.0000   1.0000   1.0000   1.0000   1.0000   1.0000
     1.0000   1.0000   1.0000   1.0000   1.0000   1.0000   1.0000   1.0000
     1.0000   1.0000   1.0000   1.0000   1.0000   1.0000   1.0000   1.0000
     1.0000   1.0000   1.0000   1.0000   1.0000   1.0000   1.0000   1.0000
     1.0000   1.0000   1.0000   1.0000   1.0000   1.0000   1.0000   1.0000
     1.0000   1.0000   1.0000   1.0000   1.0000   1.0000   1.0000   1.0000
     1.0000   1.0000   1.0000   1.0000   1.0000   1.0000   1.0000   1.0000
     1.0000   1.0000   1.0000   1.0000

          k = 0.0000 0.7698 0.1529 ( 13384 PWs)   bands (ev):

   -11.5317 -11.4974 -11.3969 -11.3837 -11.3753 -11.3198 -11.3065 -11.2701
   -11.2160 -11.2151 -11.2008 -11.1870  -0.1768  -0.1378  -0.1117  -0.1021
    -0.0820  -0.0551  -0.0161   0.0302   0.1134   0.1417   0.1795   0.2121
     0.2175   0.2395   0.2574   0.3018   0.3203   0.3220   0.3285   0.3303
     0.3446   0.3569   0.3725   0.3915   0.4076   0.4252   0.4504   0.4681
     0.4719   0.5214   0.5424   0.5655   0.6000   0.6261   0.6438   0.7161
     0.8394   0.8411   0.8619   0.8652   0.8761   0.8892   0.9078   0.9168
     0.9280   0.9292   0.9346   0.9618   0.9632   1.0123   1.0127   1.0293
     1.0384   1.0410   1.0716   1.0940   1.0972   1.1326   1.1419   1.1524
     1.7576   1.7791   1.7939   1.9325   1.9390   2.0359   2.2298   2.2492
     2.2900   2.3815   2.5521   2.6296   2.7504   2.8687   3.1227   3.1702
     3.2734   3.3805   3.4600   3.5106   3.5893   3.6725   4.0034   4.1127
     4.1703   4.2266   4.2328   4.2881   4.3383   4.4243   4.4604   4.5048
     4.5942   4.6088   4.6733   4.7162

     occupation numbers 
     1.0000   1.0000   1.0000   1.0000   1.0000   1.0000   1.0000   1.0000
     1.0000   1.0000   1.0000   1.0000   1.0000   1.0000   1.0000   1.0000
     1.0000   1.0000   1.0000   1.0000   1.0000   1.0000   1.0000   1.0000
     1.0000   1.0000   1.0000   1.0000   1.0000   1.0000   1.0000   1.0000
     1.0000   1.0000   1.0000   1.0000   1.0000   1.0000   1.0000   1.0000
     1.0000   1.0000   1.0000   1.0000   1.0000   1.0000   1.0000   1.0000
     1.0000   1.0000   1.0000   1.0000   1.0000   1.0000   1.0000   1.0000
     1.0000   1.0000   1.0000   1.0000   1.0000   1.0000   1.0000   1.0000
     1.0000   1.0000   1.0000   1.0000   1.0000   1.0000   1.0000   1.0000
     1.0000   1.0000   1.0000   1.0000   1.0000   1.0000   1.0000   1.0000
     1.0000   1.0000   1.0000   1.0000   1.0000   1.0000   1.0000   1.0000
     1.0000   1.0000   1.0000   1.0000   1.0000   1.0000   1.0000   1.0000
     1.0000   1.0000   1.0000   1.0000   1.0000   1.0000   1.0000   1.0000
     1.0000   1.0000   1.0000   1.0000

          k = 0.0000 0.7698-0.2294 ( 13390 PWs)   bands (ev):

   -11.5171 -11.5171 -11.3877 -11.3876 -11.3515 -11.3515 -11.2879 -11.2879
   -11.2068 -11.2068 -11.1992 -11.1992  -0.1662  -0.1662  -0.1060  -0.1060
    -0.0760  -0.0759   0.0111   0.0111   0.1704   0.1704   0.1719   0.1719
     0.2267   0.2267   0.2947   0.2948   0.3130   0.3130   0.3390   0.3391
     0.3513   0.3513   0.3589   0.3589   0.4172   0.4172   0.4505   0.4505
     0.5351   0.5351   0.5464   0.5464   0.5831   0.5831   0.6848   0.6848
     0.8457   0.8457   0.8499   0.8499   0.8817   0.8817   0.9201   0.9201
     0.9240   0.9240   0.9480   0.9480   0.9886   0.9886   1.0218   1.0219
     1.0382   1.0382   1.0843   1.0843   1.1126   1.1126   1.1485   1.1485
     1.7624   1.7624   1.8663   1.8663   1.9829   1.9829   2.2813   2.2813
     2.3052   2.3052   2.6158   2.6158   2.7922   2.7922   3.1581   3.1582
     3.3232   3.3232   3.5154   3.5154   3.5276   3.5276   4.1191   4.1191
     4.2406   4.2407   4.3029   4.3029   4.3476   4.3477   4.4177   4.4177
     4.6389   4.6390   4.6708   4.6708

     occupation numbers 
     1.0000   1.0000   1.0000   1.0000   1.0000   1.0000   1.0000   1.0000
     1.0000   1.0000   1.0000   1.0000   1.0000   1.0000   1.0000   1.0000
     1.0000   1.0000   1.0000   1.0000   1.0000   1.0000   1.0000   1.0000
     1.0000   1.0000   1.0000   1.0000   1.0000   1.0000   1.0000   1.0000
     1.0000   1.0000   1.0000   1.0000   1.0000   1.0000   1.0000   1.0000
     1.0000   1.0000   1.0000   1.0000   1.0000   1.0000   1.0000   1.0000
     1.0000   1.0000   1.0000   1.0000   1.0000   1.0000   1.0000   1.0000
     1.0000   1.0000   1.0000   1.0000   1.0000   1.0000   1.0000   1.0000
     1.0000   1.0000   1.0000   1.0000   1.0000   1.0000   1.0000   1.0000
     1.0000   1.0000   1.0000   1.0000   1.0000   1.0000   1.0000   1.0000
     1.0000   1.0000   1.0000   1.0000   1.0000   1.0000   1.0000   1.0000
     1.0000   1.0000   1.0000   1.0000   1.0000   1.0000   1.0000   1.0000
     1.0000   1.0000   1.0000   1.0000   1.0000   1.0000   1.0000   1.0000
     1.0000   1.0000   1.0000   1.0000

          k = 0.0000-1.1547 0.0000 ( 13316 PWs)   bands (ev):

   -11.4002 -11.4002 -11.3408 -11.3408 -11.3407 -11.3407 -11.2399 -11.2399
   -11.2398 -11.2398 -11.1993 -11.1993  -0.1512  -0.1512  -0.1512  -0.1512
    -0.0339  -0.0339  -0.0339  -0.0339  -0.0221  -0.0221   0.2280   0.2280
     0.3200   0.3200   0.3200   0.3200   0.3945   0.3945   0.4393   0.4393
     0.4393   0.4393   0.4564   0.4564   0.4564   0.4564   0.5005   0.5005
     0.5189   0.5189   0.5579   0.5579   0.5579   0.5579   0.7026   0.7026
     0.8664   0.8664   0.9402   0.9402   0.9506   0.9506   0.9506   0.9506
     0.9874   0.9874   0.9874   0.9874   1.0036   1.0036   1.0036   1.0036
     1.0428   1.0428   1.0640   1.0640   1.0640   1.0640   1.0674   1.0674
     1.7074   1.7074   1.7074   1.7074   1.7327   1.7327   1.9927   1.9927
     1.9927   1.9927   2.3125   2.3125   2.7889   2.7889   3.1169   3.1169
     3.5392   3.5392   3.5392   3.5392   3.7760   3.7760   3.7760   3.7760
     4.1574   4.1574   4.2743   4.2743   4.2743   4.2743   4.5037   4.5037
     4.5038   4.5038   4.6162   4.6162

     occupation numbers 
     1.0000   1.0000   1.0000   1.0000   1.0000   1.0000   1.0000   1.0000
     1.0000   1.0000   1.0000   1.0000   1.0000   1.0000   1.0000   1.0000
     1.0000   1.0000   1.0000   1.0000   1.0000   1.0000   1.0000   1.0000
     1.0000   1.0000   1.0000   1.0000   1.0000   1.0000   1.0000   1.0000
     1.0000   1.0000   1.0000   1.0000   1.0000   1.0000   1.0000   1.0000
     1.0000   1.0000   1.0000   1.0000   1.0000   1.0000   1.0000   1.0000
     1.0000   1.0000   1.0000   1.0000   1.0000   1.0000   1.0000   1.0000
     1.0000   1.0000   1.0000   1.0000   1.0000   1.0000   1.0000   1.0000
     1.0000   1.0000   1.0000   1.0000   1.0000   1.0000   1.0000   1.0000
     1.0000   1.0000   1.0000   1.0000   1.0000   1.0000   1.0000   1.0000
     1.0000   1.0000   1.0000   1.0000   1.0000   1.0000   1.0000   1.0000
     1.0000   1.0000   1.0000   1.0000   1.0000   1.0000   1.0000   1.0000
     1.0000   1.0000   1.0000   1.0000   1.0000   1.0000   1.0000   1.0000
     1.0000   1.0000   1.0000   1.0000

          k = 0.0000-1.1547 0.0765 ( 13340 PWs)   bands (ev):

   -11.3983 -11.3983 -11.3572 -11.3572 -11.3232 -11.3231 -11.2541 -11.2541
   -11.2276 -11.2276 -11.2004 -11.2004  -0.1710  -0.1710  -0.1238  -0.1238
    -0.0977  -0.0977  -0.0272  -0.0272   0.0451   0.0451   0.2305   0.2305
     0.2920   0.2920   0.3524   0.3524   0.3709   0.3709   0.4318   0.4318
     0.4440   0.4440   0.4499   0.4499   0.4708   0.4708   0.4975   0.4975
     0.5149   0.5149   0.5175   0.5175   0.5983   0.5983   0.6982   0.6982
     0.8758   0.8758   0.9406   0.9406   0.9474   0.9474   0.9545   0.9545
     0.9784   0.9784   0.9822   0.9822   0.9979   0.9979   1.0209   1.0209
     1.0401   1.0401   1.0600   1.0600   1.0664   1.0664   1.0675   1.0675
     1.6876   1.6876   1.7238   1.7238   1.7375   1.7375   1.9306   1.9306
     2.0593   2.0593   2.2974   2.2974   2.8323   2.8323   3.1307   3.1307
     3.4243   3.4243   3.5545   3.5545   3.6624   3.6624   3.9851   3.9851
     4.1637   4.1637   4.1794   4.1795   4.3731   4.3731   4.4711   4.4712
     4.4919   4.4919   4.6060   4.6060

     occupation numbers 
     1.0000   1.0000   1.0000   1.0000   1.0000   1.0000   1.0000   1.0000
     1.0000   1.0000   1.0000   1.0000   1.0000   1.0000   1.0000   1.0000
     1.0000   1.0000   1.0000   1.0000   1.0000   1.0000   1.0000   1.0000
     1.0000   1.0000   1.0000   1.0000   1.0000   1.0000   1.0000   1.0000
     1.0000   1.0000   1.0000   1.0000   1.0000   1.0000   1.0000   1.0000
     1.0000   1.0000   1.0000   1.0000   1.0000   1.0000   1.0000   1.0000
     1.0000   1.0000   1.0000   1.0000   1.0000   1.0000   1.0000   1.0000
     1.0000   1.0000   1.0000   1.0000   1.0000   1.0000   1.0000   1.0000
     1.0000   1.0000   1.0000   1.0000   1.0000   1.0000   1.0000   1.0000
     1.0000   1.0000   1.0000   1.0000   1.0000   1.0000   1.0000   1.0000
     1.0000   1.0000   1.0000   1.0000   1.0000   1.0000   1.0000   1.0000
     1.0000   1.0000   1.0000   1.0000   1.0000   1.0000   1.0000   1.0000
     1.0000   1.0000   1.0000   1.0000   1.0000   1.0000   1.0000   1.0000
     1.0000   1.0000   1.0000   1.0000

          k = 0.0000-1.1547 0.1529 ( 13320 PWs)   bands (ev):

   -11.3927 -11.3927 -11.3717 -11.3717 -11.3051 -11.3051 -11.2700 -11.2700
   -11.2174 -11.2174 -11.2038 -11.2038  -0.1784  -0.1784  -0.1433  -0.1433
    -0.0935  -0.0935  -0.0418  -0.0418   0.1343   0.1343   0.2382   0.2382
     0.2689   0.2689   0.3094   0.3094   0.3889   0.3889   0.4285   0.4285
     0.4348   0.4348   0.4630   0.4630   0.4715   0.4715   0.4862   0.4862
     0.4891   0.4891   0.5114   0.5114   0.6341   0.6341   0.6851   0.6851
     0.8993   0.8993   0.9414   0.9414   0.9448   0.9448   0.9568   0.9568
     0.9590   0.9590   0.9709   0.9709   1.0098   1.0098   1.0325   1.0325
     1.0348   1.0348   1.0539   1.0539   1.0676   1.0676   1.0679   1.0679
     1.6806   1.6806   1.7044   1.7044   1.7763   1.7763   1.8736   1.8736
     2.1284   2.1284   2.2556   2.2556   2.9523   2.9523   3.1713   3.1713
     3.3219   3.3219   3.3332   3.3332   3.7901   3.7901   4.0441   4.0441
     4.1706   4.1706   4.2394   4.2394   4.4050   4.4050   4.4310   4.4310
     4.4576   4.4576   4.5755   4.5755

     occupation numbers 
     1.0000   1.0000   1.0000   1.0000   1.0000   1.0000   1.0000   1.0000
     1.0000   1.0000   1.0000   1.0000   1.0000   1.0000   1.0000   1.0000
     1.0000   1.0000   1.0000   1.0000   1.0000   1.0000   1.0000   1.0000
     1.0000   1.0000   1.0000   1.0000   1.0000   1.0000   1.0000   1.0000
     1.0000   1.0000   1.0000   1.0000   1.0000   1.0000   1.0000   1.0000
     1.0000   1.0000   1.0000   1.0000   1.0000   1.0000   1.0000   1.0000
     1.0000   1.0000   1.0000   1.0000   1.0000   1.0000   1.0000   1.0000
     1.0000   1.0000   1.0000   1.0000   1.0000   1.0000   1.0000   1.0000
     1.0000   1.0000   1.0000   1.0000   1.0000   1.0000   1.0000   1.0000
     1.0000   1.0000   1.0000   1.0000   1.0000   1.0000   1.0000   1.0000
     1.0000   1.0000   1.0000   1.0000   1.0000   1.0000   1.0000   1.0000
     1.0000   1.0000   1.0000   1.0000   1.0000   1.0000   1.0000   1.0000
     1.0000   1.0000   1.0000   1.0000   1.0000   1.0000   1.0000   1.0000
     1.0000   1.0000   1.0000   1.0000

          k = 0.0000-1.1547-0.2294 ( 13320 PWs)   bands (ev):

   -11.3838 -11.3837 -11.3837 -11.3837 -11.2871 -11.2871 -11.2871 -11.2871
   -11.2095 -11.2095 -11.2095 -11.2094  -0.1699  -0.1699  -0.1699  -0.1699
    -0.0649  -0.0649  -0.0649  -0.0649   0.2259   0.2259   0.2260   0.2260
     0.2509   0.2509   0.2509   0.2509   0.4290   0.4290   0.4290   0.4290
     0.4297   0.4297   0.4297   0.4297   0.4768   0.4768   0.4768   0.4768
     0.5002   0.5002   0.5002   0.5002   0.6635   0.6635   0.6635   0.6635
     0.9281   0.9281   0.9282   0.9282   0.9428   0.9428   0.9428   0.9428
     0.9644   0.9644   0.9644   0.9644   1.0218   1.0218   1.0218   1.0218
     1.0457   1.0457   1.0457   1.0457   1.0680   1.0680   1.0680   1.0680
     1.6872   1.6872   1.6872   1.6872   1.8220   1.8220   1.8220   1.8220
     2.1961   2.1961   2.1962   2.1962   3.1265   3.1265   3.1265   3.1265
     3.2362   3.2362   3.2362   3.2363   3.9185   3.9185   3.9185   3.9185
     4.3213   4.3213   4.3213   4.3213   4.3221   4.3221   4.3221   4.3221
     4.5256   4.5256   4.5256   4.5256

     occupation numbers 
     1.0000   1.0000   1.0000   1.0000   1.0000   1.0000   1.0000   1.0000
     1.0000   1.0000   1.0000   1.0000   1.0000   1.0000   1.0000   1.0000
     1.0000   1.0000   1.0000   1.0000   1.0000   1.0000   1.0000   1.0000
     1.0000   1.0000   1.0000   1.0000   1.0000   1.0000   1.0000   1.0000
     1.0000   1.0000   1.0000   1.0000   1.0000   1.0000   1.0000   1.0000
     1.0000   1.0000   1.0000   1.0000   1.0000   1.0000   1.0000   1.0000
     1.0000   1.0000   1.0000   1.0000   1.0000   1.0000   1.0000   1.0000
     1.0000   1.0000   1.0000   1.0000   1.0000   1.0000   1.0000   1.0000
     1.0000   1.0000   1.0000   1.0000   1.0000   1.0000   1.0000   1.0000
     1.0000   1.0000   1.0000   1.0000   1.0000   1.0000   1.0000   1.0000
     1.0000   1.0000   1.0000   1.0000   1.0000   1.0000   1.0000   1.0000
     1.0000   1.0000   1.0000   1.0000   1.0000   1.0000   1.0000   1.0000
     1.0000   1.0000   1.0000   1.0000   1.0000   1.0000   1.0000   1.0000
     1.0000   1.0000   1.0000   1.0000

          k = 0.1667 0.0962 0.0000 ( 13392 PWs)   bands (ev):

   -11.8310 -11.6772 -11.6772 -11.4443 -11.3718 -11.3717 -11.3669 -11.3669
   -11.2430 -11.2430 -11.2114 -11.1879  -0.1541  -0.1541  -0.0831  -0.0831
    -0.0335  -0.0335  -0.0285   0.0180   0.0180   0.0458   0.1122   0.1164
     0.1238   0.1238   0.1307   0.1307   0.2211   0.2211   0.2243   0.2293
     0.2293   0.2910   0.3093   0.3093   0.3148   0.3179   0.3901   0.3901
     0.4373   0.4373   0.4635   0.5308   0.5308   0.5740   0.6692   0.7735
     0.7982   0.8059   0.8651   0.8802   0.8802   0.8810   0.8810   0.9180
     0.9364   0.9364   0.9618   0.9618   0.9839   0.9839   0.9888   0.9889
     0.9893   0.9893   1.0077   1.0411   1.0738   1.0738   1.0747   1.1389
     1.1524   1.7224   1.8033   1.8033   2.1626   2.1626   2.3375   2.4791
     2.4791   2.8489   3.1990   3.6047   3.6048   3.7316   3.7316   3.7675
     3.7675   4.0590   4.1799   4.2789   4.3200   4.3200   4.3382   4.3382
     4.4202   4.4202   4.5523   4.5523   4.6308   4.6539   4.8758   4.8759
     4.8853   4.8853   5.0909   5.1621

     occupation numbers 
     1.0000   1.0000   1.0000   1.0000   1.0000   1.0000   1.0000   1.0000
     1.0000   1.0000   1.0000   1.0000   1.0000   1.0000   1.0000   1.0000
     1.0000   1.0000   1.0000   1.0000   1.0000   1.0000   1.0000   1.0000
     1.0000   1.0000   1.0000   1.0000   1.0000   1.0000   1.0000   1.0000
     1.0000   1.0000   1.0000   1.0000   1.0000   1.0000   1.0000   1.0000
[...]
     xc contribution           =    -655.93028988 Ry
     ewald contribution        =   -1237.54811345 Ry

     convergence has been achieved in  34 iterations

     Forces acting on atoms (cartesian axes, Ry/au):

     atom    1 type  1   force =    -0.00000401   -0.00000232   -0.02244199
     atom    2 type  1   force =    -0.00000227   -0.00000131   -0.02243009
     atom    3 type  2   force =    -0.00000104   -0.00000060    0.02243216
     atom    4 type  2   force =     0.00000027    0.00000016    0.02242951
     atom    5 type  1   force =     0.00000309    0.00000179   -0.02241980
     atom    6 type  1   force =    -0.00000543   -0.00000314   -0.02242461
     atom    7 type  2   force =    -0.00000036   -0.00000021    0.02242982
     atom    8 type  2   force =     0.00000054    0.00000031    0.02243034
     atom    9 type  1   force =     0.00000620    0.00000358   -0.02243273
     atom   10 type  1   force =     0.00000101    0.00000058   -0.02243198
     atom   11 type  2   force =    -0.00000040   -0.00000023    0.02243079
     atom   12 type  2   force =     0.00000091    0.00000053    0.02243049
     atom   13 type  1   force =     0.00001064    0.00000614   -0.02243546
     atom   14 type  1   force =    -0.00000464   -0.00000268   -0.02244154
     atom   15 type  2   force =    -0.00000002   -0.00000001    0.02243200
     atom   16 type  2   force =     0.00000048    0.00000028    0.02242976
     atom   17 type  1   force =     0.00000386    0.00000223   -0.02242345
     atom   18 type  1   force =    -0.00000154   -0.00000089   -0.02242492
     atom   19 type  2   force =    -0.00000059   -0.00000034    0.02243093
     atom   20 type  2   force =     0.00000032    0.00000018    0.02243095
     atom   21 type  1   force =     0.00000110    0.00000063   -0.02243028
     atom   22 type  1   force =    -0.00000740   -0.00000427   -0.02243054
     atom   23 type  2   force =    -0.00000067   -0.00000039    0.02243027
     atom   24 type  2   force =    -0.00000001   -0.00000000    0.02243038
     The non-local contrib.  to forces
     atom    1 type  1   force =     0.00000479    0.00000277   -0.29400594
     atom    2 type  1   force =    -0.00000688   -0.00000397   -0.29400389
     atom    3 type  2   force =    -0.00016361   -0.00009446   -0.24582234
     atom    4 type  2   force =     0.00016407    0.00009473   -0.24582115
     atom    5 type  1   force =     0.00000626    0.00000361   -0.29399709
     atom    6 type  1   force =    -0.00000653   -0.00000377   -0.29400403
     atom    7 type  2   force =    -0.00016427   -0.00009484   -0.24582400
     atom    8 type  2   force =     0.00016404    0.00009471   -0.24582483
     atom    9 type  1   force =     0.00000577    0.00000333   -0.29400376
     atom   10 type  1   force =    -0.00000472   -0.00000272   -0.29400036
     atom   11 type  2   force =    -0.00016385   -0.00009460   -0.24582038
     atom   12 type  2   force =     0.00016344    0.00009436   -0.24582316
     atom   13 type  1   force =     0.00000649    0.00000375   -0.29400478
     atom   14 type  1   force =    -0.00000526   -0.00000304   -0.29400581
     atom   15 type  2   force =    -0.00016387   -0.00009461   -0.24582173
     atom   16 type  2   force =     0.00016380    0.00009457   -0.24582167
     atom   17 type  1   force =     0.00000534    0.00000308   -0.29399712
     atom   18 type  1   force =    -0.00000545   -0.00000315   -0.29400337
     atom   19 type  2   force =    -0.00016370   -0.00009451   -0.24582317
     atom   20 type  2   force =     0.00016413    0.00009476   -0.24582427
     atom   21 type  1   force =     0.00000596    0.00000344   -0.29400065
     atom   22 type  1   force =    -0.00000630   -0.00000363   -0.29400223
     atom   23 type  2   force =    -0.00016385   -0.00009460   -0.24582161
     atom   24 type  2   force =     0.00016446    0.00009495   -0.24582336
     The ionic contribution  to forces
     atom    1 type  1   force =    -0.00000000    0.00000000   -1.93774861
     atom    2 type  1   force =     0.00000000   -0.00000000   -1.93774858
     atom    3 type  2   force =    -0.00000000    0.00000000    1.93774860
     atom    4 type  2   force =     0.00000000   -0.00000000    1.93774859
     atom    5 type  1   force =    -0.00000000    0.00000000   -1.93774858
     atom    6 type  1   force =     0.00000000   -0.00000000   -1.93774861
     atom    7 type  2   force =    -0.00000000    0.00000000    1.93774859
     atom    8 type  2   force =     0.00000000   -0.00000000    1.93774861
     atom    9 type  1   force =    -0.00000000    0.00000000   -1.93774861
     atom   10 type  1   force =     0.00000000   -0.00000000   -1.93774861
     atom   11 type  2   force =    -0.00000000    0.00000000    1.93774861
     atom   12 type  2   force =     0.00000000   -0.00000000    1.93774860
     atom   13 type  1   force =    -0.00000000    0.00000000   -1.93774861
     atom   14 type  1   force =     0.00000000   -0.00000000   -1.93774858
     atom   15 type  2   force =    -0.00000000    0.00000000    1.93774860
     atom   16 type  2   force =     0.00000000   -0.00000000    1.93774859
     atom   17 type  1   force =    -0.00000000    0.00000000   -1.93774858
     atom   18 type  1   force =     0.00000000   -0.00000000   -1.93774861
     atom   19 type  2   force =    -0.00000000    0.00000000    1.93774859
     atom   20 type  2   force =     0.00000000   -0.00000000    1.93774861
     atom   21 type  1   force =    -0.00000000    0.00000000   -1.93774861
     atom   22 type  1   force =     0.00000000   -0.00000000   -1.93774861
     atom   23 type  2   force =    -0.00000000    0.00000000    1.93774861
     atom   24 type  2   force =     0.00000000   -0.00000000    1.93774860
     The local contribution  to forces
     atom    1 type  1   force =     0.00001064    0.00000614    2.18945184
     atom    2 type  1   force =    -0.00000123   -0.00000082    2.18943535
     atom    3 type  2   force =     0.00016283    0.00009401   -1.67148144
     atom    4 type  2   force =    -0.00016108   -0.00009303   -1.67147761
     atom    5 type  1   force =     0.00000185    0.00000107    2.18942237
     atom    6 type  1   force =     0.00000176    0.00000091    2.18942998
     atom    7 type  2   force =     0.00016064    0.00009274   -1.67148112
     atom    8 type  2   force =    -0.00016346   -0.00009440   -1.67148718
     atom    9 type  1   force =    -0.00000127   -0.00000073    2.18943927
     atom   10 type  1   force =    -0.00000708   -0.00000419    2.18943821
     atom   11 type  2   force =     0.00016198    0.00009352   -1.67147719
     atom   12 type  2   force =    -0.00016421   -0.00009484   -1.67147905
     atom   13 type  1   force =    -0.00000757   -0.00000437    2.18944424
     atom   14 type  1   force =    -0.00000070   -0.00000051    2.18945032
     atom   15 type  2   force =     0.00016113    0.00009303   -1.67148200
     atom   16 type  2   force =    -0.00016314   -0.00009422   -1.67147761
     atom   17 type  1   force =     0.00000074    0.00000042    2.18942800
     atom   18 type  1   force =    -0.00000389   -0.00000235    2.18943094
     atom   19 type  2   force =     0.00016333    0.00009430   -1.67147959
     atom   20 type  2   force =    -0.00016111   -0.00009305   -1.67148658
     atom   21 type  1   force =     0.00000366    0.00000211    2.18943621
     atom   22 type  1   force =     0.00000370    0.00000203    2.18943652
     atom   23 type  2   force =     0.00016192    0.00009348   -1.67147578
     atom   24 type  2   force =    -0.00015988   -0.00009234   -1.67147908
     The core correction contribution to forces
     atom    1 type  1   force =    -0.00000335   -0.00000194    0.01988417
     atom    2 type  1   force =     0.00000315    0.00000181    0.01988466
     atom    3 type  2   force =     0.00000186    0.00000107    0.00198383
     atom    4 type  2   force =    -0.00000187   -0.00000108    0.00198380
     atom    5 type  1   force =    -0.00000316   -0.00000182    0.01988446
     atom    6 type  1   force =     0.00000302    0.00000173    0.01988482
     atom    7 type  2   force =     0.00000187    0.00000108    0.00198384
     atom    8 type  2   force =    -0.00000187   -0.00000108    0.00198384
     atom    9 type  1   force =    -0.00000296   -0.00000171    0.01988446
     atom   10 type  1   force =     0.00000322    0.00000185    0.01988417
     atom   11 type  2   force =     0.00000186    0.00000107    0.00198380
     atom   12 type  2   force =    -0.00000186   -0.00000108    0.00198383
     atom   13 type  1   force =    -0.00000275   -0.00000159    0.01988435
     atom   14 type  1   force =     0.00000301    0.00000173    0.01988427
     atom   15 type  2   force =     0.00000187    0.00000108    0.00198382
     atom   16 type  2   force =    -0.00000187   -0.00000108    0.00198382
     atom   17 type  1   force =    -0.00000297   -0.00000172    0.01988422
     atom   18 type  1   force =     0.00000314    0.00000180    0.01988468
     atom   19 type  2   force =     0.00000186    0.00000108    0.00198383
     atom   20 type  2   force =    -0.00000186   -0.00000108    0.00198384
     atom   21 type  1   force =    -0.00000316   -0.00000183    0.01988428
     atom   22 type  1   force =     0.00000287    0.00000165    0.01988441
     atom   23 type  2   force =     0.00000187    0.00000108    0.00198381
     atom   24 type  2   force =    -0.00000187   -0.00000108    0.00198383
     The Hubbard contrib.    to forces
     atom    1 type  1   force =     0.00000000    0.00000000    0.00000000
     atom    2 type  1   force =     0.00000000    0.00000000    0.00000000
     atom    3 type  2   force =     0.00000000    0.00000000    0.00000000
     atom    4 type  2   force =     0.00000000    0.00000000    0.00000000
     atom    5 type  1   force =     0.00000000    0.00000000    0.00000000
     atom    6 type  1   force =     0.00000000    0.00000000    0.00000000
     atom    7 type  2   force =     0.00000000    0.00000000    0.00000000
     atom    8 type  2   force =     0.00000000    0.00000000    0.00000000
     atom    9 type  1   force =     0.00000000    0.00000000    0.00000000
     atom   10 type  1   force =     0.00000000    0.00000000    0.00000000
     atom   11 type  2   force =     0.00000000    0.00000000    0.00000000
     atom   12 type  2   force =     0.00000000    0.00000000    0.00000000
     atom   13 type  1   force =     0.00000000    0.00000000    0.00000000
     atom   14 type  1   force =     0.00000000    0.00000000    0.00000000
     atom   15 type  2   force =     0.00000000    0.00000000    0.00000000
     atom   16 type  2   force =     0.00000000    0.00000000    0.00000000
     atom   17 type  1   force =     0.00000000    0.00000000    0.00000000
     atom   18 type  1   force =     0.00000000    0.00000000    0.00000000
     atom   19 type  2   force =     0.00000000    0.00000000    0.00000000
     atom   20 type  2   force =     0.00000000    0.00000000    0.00000000
     atom   21 type  1   force =     0.00000000    0.00000000    0.00000000
     atom   22 type  1   force =     0.00000000    0.00000000    0.00000000
     atom   23 type  2   force =     0.00000000    0.00000000    0.00000000
     atom   24 type  2   force =     0.00000000    0.00000000    0.00000000
     The SCF correction term to forces
     atom    1 type  1   force =    -0.00001606   -0.00000927   -0.00002452
     atom    2 type  1   force =     0.00000277    0.00000160    0.00000130
     atom    3 type  2   force =    -0.00000208   -0.00000120    0.00000244
     atom    4 type  2   force =    -0.00000081   -0.00000047   -0.00000518
     atom    5 type  1   force =    -0.00000182   -0.00000105    0.00001796
     atom    6 type  1   force =    -0.00000360   -0.00000208    0.00001218
     atom    7 type  2   force =     0.00000144    0.00000083    0.00000145
     atom    8 type  2   force =     0.00000187    0.00000108    0.00000882
     atom    9 type  1   force =     0.00000469    0.00000271   -0.00000516
     atom   10 type  1   force =     0.00000966    0.00000558   -0.00000645
     atom   11 type  2   force =    -0.00000036   -0.00000021   -0.00000512
     atom   12 type  2   force =     0.00000359    0.00000207   -0.00000080
     atom   13 type  1   force =     0.00001450    0.00000837   -0.00001172
     atom   14 type  1   force =    -0.00000161   -0.00000093   -0.00002282
     atom   15 type  2   force =     0.00000088    0.00000051    0.00000225
     atom   16 type  2   force =     0.00000174    0.00000100   -0.00000443
     atom   17 type  1   force =     0.00000079    0.00000046    0.00000895
     atom   18 type  1   force =     0.00000474    0.00000274    0.00001037
     atom   19 type  2   force =    -0.00000205   -0.00000118    0.00000020
     atom   20 type  2   force =    -0.00000079   -0.00000046    0.00000827
     atom   21 type  1   force =    -0.00000533   -0.00000308   -0.00000258
     atom   22 type  1   force =    -0.00000760   -0.00000439   -0.00000170
     atom   23 type  2   force =    -0.00000058   -0.00000033   -0.00000583
     atom   24 type  2   force =    -0.00000267   -0.00000154   -0.00000068

     Total force =     0.109887     Total SCF correction =     0.000057

     init_run     :     28.30s CPU     17.07s WALL (       1 calls)
     electrons    :   2748.19s CPU   1640.19s WALL (       1 calls)
     forces       :     13.01s CPU      7.49s WALL (       1 calls)

     Called by init_run:
     wfcinit      :     21.78s CPU     12.31s WALL (       1 calls)
     wfcinit:atom :      0.12s CPU      0.10s WALL (      10 calls)
     wfcinit:wfcr :     20.62s CPU     11.34s WALL (      10 calls)
     potinit      :      2.14s CPU      1.34s WALL (       1 calls)
     hinit0       :      3.83s CPU      2.95s WALL (       1 calls)

     Called by electrons:
     c_bands      :   2464.96s CPU   1464.79s WALL (      34 calls)
     sum_band     :    253.58s CPU    154.41s WALL (      34 calls)
     v_of_rho     :     14.75s CPU     10.46s WALL (      35 calls)
     v_h          :      0.75s CPU      0.57s WALL (      35 calls)
     v_xc         :     14.38s CPU     10.15s WALL (      36 calls)
     newd         :     12.14s CPU      8.24s WALL (      35 calls)
     mix_rho      :      1.61s CPU      1.27s WALL (      34 calls)

     Called by c_bands:
     init_us_2    :     12.28s CPU      8.36s WALL (     700 calls)
     init_us_2:cp :     12.27s CPU      8.36s WALL (     700 calls)
     cegterg      :   2312.00s CPU   1347.57s WALL (     340 calls)

     Called by sum_band:
     sum_band:wei :      0.04s CPU      0.04s WALL (      34 calls)
     sum_band:loo :    234.95s CPU    140.15s WALL (      34 calls)
     sum_band:buf :      1.48s CPU      1.03s WALL (     340 calls)
     sum_band:ini :      4.65s CPU      3.57s WALL (     340 calls)
     sum_band:cal :     47.54s CPU     24.72s WALL (     340 calls)
     sum_band:bec :      5.71s CPU      4.81s WALL (     340 calls)
     addusdens    :     12.70s CPU      8.92s WALL (      34 calls)
     addusd:skk   :      0.26s CPU      0.19s WALL (      68 calls)
     addusd:dgemm :      1.95s CPU      1.02s WALL (      68 calls)
     addusd:qvan2 :      7.72s CPU      5.34s WALL (      68 calls)

     Called by *egterg:
     cdiaghg      :    133.05s CPU    108.24s WALL (    2555 calls)
     cegterg:over :    186.82s CPU     99.97s WALL (    2215 calls)
     cegterg:upda :    118.46s CPU     67.78s WALL (    2215 calls)
     cegterg:last :    227.30s CPU    124.14s WALL (    1078 calls)
     cdiaghg:chol :      6.27s CPU      5.40s WALL (    2555 calls)
     cdiaghg:inve :      2.14s CPU      1.74s WALL (    2555 calls)
     cdiaghg:para :     22.85s CPU     16.52s WALL (    5110 calls)
     h_psi        :   1444.92s CPU    837.02s WALL (    2565 calls)
     s_psi        :    154.22s CPU     77.77s WALL (    2565 calls)
     g_psi        :      8.49s CPU      7.05s WALL (    2215 calls)

     Called by h_psi:
     h_psi:calbec :    181.83s CPU     94.37s WALL (    2565 calls)
     vloc_psi     :   1100.73s CPU    657.67s WALL (    2565 calls)
     add_vuspsi   :    154.07s CPU     78.52s WALL (    2565 calls)

     General routines
     calbec       :    235.88s CPU    122.81s WALL (    2945 calls)
     fft          :      9.09s CPU      7.47s WALL (     464 calls)
     ffts         :      1.34s CPU      1.14s WALL (      69 calls)
     fftw         :   1107.73s CPU    652.60s WALL (  287578 calls)
     interpolate  :      1.10s CPU      0.90s WALL (      35 calls)

     Parallel routines

     PWSCF        :  46m30.23s CPU  27m45.50s WALL


   This run was terminated on:  23: 9:45   5Sep2025            

=------------------------------------------------------------------------------=
   JOB DONE.
=------------------------------------------------------------------------------=
Note: The following floating-point exceptions are signalling: IEEE_UNDERFLOW_FLAG IEEE_DENORMAL
Note: The following floating-point exceptions are signalling: IEEE_UNDERFLOW_FLAG IEEE_DENORMAL
Note: The following floating-point exceptions are signalling: IEEE_UNDERFLOW_FLAG IEEE_DENORMAL
Note: The following floating-point exceptions are signalling: IEEE_UNDERFLOW_FLAG IEEE_DENORMAL
Note: The following floating-point exceptions are signalling: IEEE_UNDERFLOW_FLAG IEEE_DENORMAL
Note: The following floating-point exceptions are signalling: IEEE_UNDERFLOW_FLAG IEEE_DENORMAL
Note: The following floating-point exceptions are signalling: IEEE_UNDERFLOW_FLAG IEEE_DENORMAL
Note: The following floating-point exceptions are signalling: IEEE_UNDERFLOW_FLAG IEEE_DENORMAL
Note: The following floating-point exceptions are signalling: IEEE_UNDERFLOW_FLAG IEEE_DENORMAL
Note: The following floating-point exceptions are signalling: IEEE_UNDERFLOW_FLAG IEEE_DENORMAL
Note: The following floating-point exceptions are signalling: IEEE_UNDERFLOW_FLAG IEEE_DENORMAL
Note: The following floating-point exceptions are signalling: IEEE_UNDERFLOW_FLAG IEEE_DENORMAL
Note: The following floating-point exceptions are signalling: IEEE_UNDERFLOW_FLAG IEEE_DENORMAL
Note: The following floating-point exceptions are signalling: IEEE_UNDERFLOW_FLAG IEEE_DENORMAL
Note: The following floating-point exceptions are signalling: IEEE_UNDERFLOW_FLAG IEEE_DENORMAL
Note: The following floating-point exceptions are signalling: IEEE_UNDERFLOW_FLAG IEEE_DENORMAL
Note: The following floating-point exceptions are signalling: IEEE_UNDERFLOW_FLAG IEEE_DENORMAL
Note: The following floating-point exceptions are signalling: IEEE_UNDERFLOW_FLAG IEEE_DENORMAL
Note: The following floating-point exceptions are signalling: IEEE_UNDERFLOW_FLAG IEEE_DENORMAL
Note: The following floating-point exceptions are signalling: IEEE_UNDERFLOW_FLAG IEEE_DENORMAL
Note: The following floating-point exceptions are signalling: IEEE_UNDERFLOW_FLAG IEEE_DENORMAL
Note: The following floating-point exceptions are signalling: IEEE_UNDERFLOW_FLAG IEEE_DENORMAL
Note: The following floating-point exceptions are signalling: IEEE_UNDERFLOW_FLAG IEEE_DENORMAL
Note: The following floating-point exceptions are signalling: IEEE_UNDERFLOW_FLAG IEEE_DENORMAL
Note: The following floating-point exceptions are signalling: IEEE_UNDERFLOW_FLAG IEEE_DENORMAL
Note: The following floating-point exceptions are signalling: IEEE_UNDERFLOW_FLAG IEEE_DENORMAL
Note: The following floating-point exceptions are signalling: IEEE_UNDERFLOW_FLAG IEEE_DENORMAL
Note: The following floating-point exceptions are signalling: IEEE_UNDERFLOW_FLAG IEEE_DENORMAL
Note: The following floating-point exceptions are signalling: IEEE_UNDERFLOW_FLAG IEEE_DENORMAL
Note: The following floating-point exceptions are signalling: IEEE_UNDERFLOW_FLAG IEEE_DENORMAL
Note: The following floating-point exceptions are signalling: IEEE_UNDERFLOW_FLAG IEEE_DENORMAL
Note: The following floating-point exceptions are signalling: IEEE_UNDERFLOW_FLAG IEEE_DENORMAL
