
     Program PWSCF v.7.0 starts on  4Sep2025 at 10: 3: 6 

     This program is part of the open-source Quantum ESPRESSO suite
     for quantum simulation of materials; please cite
         "P. Giannozzi et al., J. Phys.:Condens. Matter 21 395502 (2009);
         "P. Giannozzi et al., J. Phys.:Condens. Matter 29 465901 (2017);
         "P. Giannozzi et al., J. Chem. Phys. 152 154105 (2020);
          URL http://www.quantum-espresso.org", 
     in publications or presentations arising from this work. More details at
     http://www.quantum-espresso.org/quote

     Parallel version (MPI & OpenMP), running on      64 processor cores
     Number of MPI processes:                32
     Threads/MPI process:                     2

     MPI processes distributed on     1 nodes
     K-points division:     npool     =       8
     R & G space division:  proc/nbgrp/npool/nimage =       4
     107794 MiB available memory on the printing compute node when the environment starts

     Reading input from /home/jvc/QEspresso7.2/ZnO_database/scripts/cell213.in/ZnO-2.94-1.49-213.in
Warning: card &CELL ignored
Warning: card / ignored
Warning: card &FCP ignored
Warning: card / ignored
Warning: card &RISM ignored
Warning: card / ignored

     Current dimensions of program PWSCF are:
     Max number of different atomic species (ntypx) = 10
     Max number of k-points (npk) =  40000
     Max angular momentum in pseudopotentials (lmaxx) =  4
     file Zn.upf: wavefunction(s)  3D renormalized
     Found identity + (  0.0000  0.0000  0.3333) symmetry
     This is a supercell, fractional translations are disabled
     Message from routine setup:
     using ibrav=0 with symmetry is DISCOURAGED, use correct ibrav instead

     Subspace diagonalization in iterative solution of the eigenvalue problem:
     one sub-group per band group will be used
     scalapack distributed-memory algorithm (size of sub-group:  2*  2 procs)


     Parallelization info
     --------------------
     sticks:   dense  smooth     PW     G-vecs:    dense   smooth      PW
     Min         426     214     68                44832    15848    2798
     Max         427     215     70                44835    15851    2801
     Sum        1707     859    275               179335    63397   11197

     Using Slab Decomposition



     bravais-lattice index     =            0
     lattice parameter (alat)  =      11.1219  a.u.
     unit-cell volume          =    1327.1530 (a.u.)^3
     number of atoms/cell      =           24
     number of atomic types    =            2
     number of electrons       =       216.00
     number of Kohn-Sham states=          108
     kinetic-energy cutoff     =      50.0000  Ry
     charge density cutoff     =     400.0000  Ry
     scf convergence threshold =      1.0E-08
     mixing beta               =       0.3000
     number of iterations used =            8  plain     mixing
     Exchange-correlation= PBE
                           (   1   4   3   4   0   0   0)

     celldm(1)=  11.121937  celldm(2)=   0.000000  celldm(3)=   0.000000
     celldm(4)=   0.000000  celldm(5)=   0.000000  celldm(6)=   0.000000

     crystal axes: (cart. coord. in units of alat)
               a(1) = (   1.000000   0.000000   0.000000 )  
               a(2) = (  -0.250000   0.433013   0.000000 )  
               a(3) = (   0.000000   0.000000   2.227815 )  

     reciprocal axes: (cart. coord. in units 2 pi/alat)
               b(1) = (  1.000000  0.577350 -0.000000 )  
               b(2) = (  0.000000  2.309401  0.000000 )  
               b(3) = (  0.000000 -0.000000  0.448870 )  


     PseudoPot. # 1 for Zn read from file:
     /home/jvc/QEspresso7.2/ZnO_database/pseudos/Zn.upf
     MD5 check sum: 7f56cabf9682ed8c977c2f7d0c5985c5
     Pseudo is Ultrasoft + core correction, Zval = 12.0
     Generated using &quot;atomic&quot; code by A. Dal Corso  v.6.2.2
     Using radial grid of 1201 points,  6 beta functions with: 
                l(1) =   0
                l(2) =   0
                l(3) =   1
                l(4) =   1
                l(5) =   2
                l(6) =   2
     Q(r) pseudized with 0 coefficients 


     PseudoPot. # 2 for O  read from file:
     /home/jvc/QEspresso7.2/ZnO_database/pseudos/O.upf
     MD5 check sum: 91400c9766925bcf19f520983a725ff0
     Pseudo is Ultrasoft + core correction, Zval =  6.0
     Generated using &quot;atomic&quot; code by A. Dal Corso  v.6.3MaX
     Using radial grid of 1095 points,  4 beta functions with: 
                l(1) =   0
                l(2) =   0
                l(3) =   1
                l(4) =   1
     Q(r) pseudized with 0 coefficients 


     atomic species   valence    mass     pseudopotential
        Zn            12.00    65.38000     Zn( 1.00)
        O              6.00    15.99900     O ( 1.00)

      2 Sym. Ops. (no inversion) found


                                    s                        frac. trans.

      isym =  1     identity                                     

 cryst.   s( 1) = (     1          0          0      )
                  (     0          1          0      )
                  (     0          0          1      )

 cart.    s( 1) = (  1.0000000  0.0000000  0.0000000 )
                  (  0.0000000  1.0000000  0.0000000 )
                  (  0.0000000  0.0000000  1.0000000 )


      isym =  2     inv. 180 deg rotation - cryst. axis [0,1,0]  

 cryst.   s( 2) = (     1          2          0      )
                  (     0         -1          0      )
                  (     0          0          1      )

 cart.    s( 2) = (  0.5000000  0.8660254  0.0000000 )
                  (  0.8660254 -0.5000000  0.0000000 )
                  (  0.0000000  0.0000000  1.0000000 )


   Cartesian axes

     site n.     atom                  positions (alat units)
         1           Zn  tau(   1) = (   0.2500000   0.1443376   0.3717729  )
         2           Zn  tau(   2) = (  -0.0000000   0.2886751   0.0004705  )
         3           O   tau(   3) = (   0.2500000   0.1443376   0.6532520  )
         4           O   tau(   4) = (  -0.0000000   0.2886751   0.2819495  )
         5           Zn  tau(   5) = (   0.2500000   0.1443376   1.1143778  )
         6           Zn  tau(   6) = (  -0.0000000   0.2886751   0.7430753  )
         7           O   tau(   7) = (   0.2500000   0.1443376   1.3958568  )
         8           O   tau(   8) = (  -0.0000000   0.2886751   1.0245544  )
         9           Zn  tau(   9) = (   0.2500000   0.1443376   1.8569826  )
        10           Zn  tau(  10) = (  -0.0000000   0.2886751   1.4856802  )
        11           O   tau(  11) = (   0.2500000   0.1443376   2.1384617  )
        12           O   tau(  12) = (  -0.0000000   0.2886751   1.7671592  )
        13           Zn  tau(  13) = (   0.7500000   0.1443376   0.3717729  )
        14           Zn  tau(  14) = (   0.5000000   0.2886751   0.0004705  )
        15           O   tau(  15) = (   0.7500000   0.1443376   0.6532520  )
        16           O   tau(  16) = (   0.5000000   0.2886751   0.2819495  )
        17           Zn  tau(  17) = (   0.7500000   0.1443376   1.1143778  )
        18           Zn  tau(  18) = (   0.5000000   0.2886751   0.7430753  )
        19           O   tau(  19) = (   0.7500000   0.1443376   1.3958568  )
        20           O   tau(  20) = (   0.5000000   0.2886751   1.0245544  )
        21           Zn  tau(  21) = (   0.7500000   0.1443376   1.8569826  )
        22           Zn  tau(  22) = (   0.5000000   0.2886751   1.4856802  )
        23           O   tau(  23) = (   0.7500000   0.1443376   2.1384617  )
        24           O   tau(  24) = (   0.5000000   0.2886751   1.7671592  )

   Crystallographic axes

     site n.     atom                  positions (cryst. coord.)
         1           Zn  tau(   1) = (  0.3333333  0.3333333  0.1668779  )
         2           Zn  tau(   2) = (  0.1666667  0.6666667  0.0002112  )
         3           O   tau(   3) = (  0.3333333  0.3333333  0.2932255  )
         4           O   tau(   4) = (  0.1666667  0.6666667  0.1265588  )
         5           Zn  tau(   5) = (  0.3333333  0.3333333  0.5002112  )
         6           Zn  tau(   6) = (  0.1666667  0.6666667  0.3335445  )
         7           O   tau(   7) = (  0.3333333  0.3333333  0.6265588  )
         8           O   tau(   8) = (  0.1666667  0.6666667  0.4598921  )
         9           Zn  tau(   9) = (  0.3333333  0.3333333  0.8335445  )
        10           Zn  tau(  10) = (  0.1666667  0.6666667  0.6668779  )
        11           O   tau(  11) = (  0.3333333  0.3333333  0.9598921  )
        12           O   tau(  12) = (  0.1666667  0.6666667  0.7932255  )
        13           Zn  tau(  13) = (  0.8333333  0.3333333  0.1668779  )
        14           Zn  tau(  14) = (  0.6666667  0.6666667  0.0002112  )
        15           O   tau(  15) = (  0.8333333  0.3333333  0.2932255  )
        16           O   tau(  16) = (  0.6666667  0.6666667  0.1265588  )
        17           Zn  tau(  17) = (  0.8333333  0.3333333  0.5002112  )
        18           Zn  tau(  18) = (  0.6666667  0.6666667  0.3335445  )
        19           O   tau(  19) = (  0.8333333  0.3333333  0.6265588  )
        20           O   tau(  20) = (  0.6666667  0.6666667  0.4598921  )
        21           Zn  tau(  21) = (  0.8333333  0.3333333  0.8335445  )
        22           Zn  tau(  22) = (  0.6666667  0.6666667  0.6668779  )
        23           O   tau(  23) = (  0.8333333  0.3333333  0.9598921  )
        24           O   tau(  24) = (  0.6666667  0.6666667  0.7932255  )

     number of k points=    80
                       cart. coord. in units 2pi/alat
        k(    1) = (   0.0000000   0.0000000   0.0000000), wk =   0.0092593
        k(    2) = (   0.0000000   0.0000000   0.0748117), wk =   0.0185185
        k(    3) = (   0.0000000   0.0000000   0.1496235), wk =   0.0185185
        k(    4) = (   0.0000000   0.0000000  -0.2244352), wk =   0.0092593
        k(    5) = (   0.0000000   0.3849002   0.0000000), wk =   0.0370370
        k(    6) = (   0.0000000   0.3849002   0.0748117), wk =   0.0370370
        k(    7) = (   0.0000000   0.3849002   0.1496235), wk =   0.0370370
        k(    8) = (   0.0000000   0.3849002  -0.2244352), wk =   0.0370370
        k(    9) = (   0.0000000   0.7698004   0.0000000), wk =   0.0370370
        k(   10) = (   0.0000000   0.7698004   0.0748117), wk =   0.0370370
        k(   11) = (   0.0000000   0.7698004   0.1496235), wk =   0.0370370
        k(   12) = (   0.0000000   0.7698004  -0.2244352), wk =   0.0370370
        k(   13) = (   0.0000000  -1.1547005   0.0000000), wk =   0.0092593
        k(   14) = (   0.0000000  -1.1547005   0.0748117), wk =   0.0185185
        k(   15) = (   0.0000000  -1.1547005   0.1496235), wk =   0.0185185
        k(   16) = (   0.0000000  -1.1547005  -0.2244352), wk =   0.0092593
        k(   17) = (   0.1666667   0.0962250   0.0000000), wk =   0.0185185
        k(   18) = (   0.1666667   0.0962250   0.0748117), wk =   0.0185185
        k(   19) = (   0.1666667   0.0962250   0.1496235), wk =   0.0185185
        k(   20) = (   0.1666667   0.0962250  -0.2244352), wk =   0.0185185
        k(   21) = (   0.1666667   0.4811252   0.0000000), wk =   0.0370370
        k(   22) = (   0.1666667   0.4811252   0.0748117), wk =   0.0370370
        k(   23) = (   0.1666667   0.4811252   0.1496235), wk =   0.0370370
        k(   24) = (   0.1666667   0.4811252  -0.2244352), wk =   0.0370370
        k(   25) = (   0.1666667   0.8660254   0.0000000), wk =   0.0185185
        k(   26) = (   0.1666667   0.8660254   0.0748117), wk =   0.0370370
        k(   27) = (   0.1666667   0.8660254   0.1496235), wk =   0.0370370
        k(   28) = (   0.1666667   0.8660254  -0.2244352), wk =   0.0185185
        k(   29) = (   0.1666667  -1.0584755   0.0000000), wk =   0.0185185
        k(   30) = (   0.1666667  -1.0584755   0.0748117), wk =   0.0185185
        k(   31) = (   0.1666667  -1.0584755   0.1496235), wk =   0.0185185
        k(   32) = (   0.1666667  -1.0584755  -0.2244352), wk =   0.0185185
        k(   33) = (   0.1666667  -0.6735753   0.0000000), wk =   0.0370370
        k(   34) = (   0.1666667  -0.6735753   0.0748117), wk =   0.0370370
        k(   35) = (   0.1666667  -0.6735753   0.1496235), wk =   0.0370370
        k(   36) = (   0.1666667  -0.6735753  -0.2244352), wk =   0.0370370
        k(   37) = (   0.1666667  -0.2886751   0.0000000), wk =   0.0185185
        k(   38) = (   0.1666667  -0.2886751   0.0748117), wk =   0.0370370
        k(   39) = (   0.1666667  -0.2886751   0.1496235), wk =   0.0370370
        k(   40) = (   0.1666667  -0.2886751  -0.2244352), wk =   0.0185185
        k(   41) = (   0.3333333   0.1924501   0.0000000), wk =   0.0185185
        k(   42) = (   0.3333333   0.1924501   0.0748117), wk =   0.0185185
        k(   43) = (   0.3333333   0.1924501   0.1496235), wk =   0.0185185
        k(   44) = (   0.3333333   0.1924501  -0.2244352), wk =   0.0185185
        k(   45) = (   0.3333333   0.5773503   0.0000000), wk =   0.0185185
        k(   46) = (   0.3333333   0.5773503   0.0748117), wk =   0.0370370
        k(   47) = (   0.3333333   0.5773503   0.1496235), wk =   0.0370370
        k(   48) = (   0.3333333   0.5773503  -0.2244352), wk =   0.0185185
        k(   49) = (   0.3333333  -0.9622504   0.0000000), wk =   0.0185185
        k(   50) = (   0.3333333  -0.9622504   0.0748117), wk =   0.0185185
        k(   51) = (   0.3333333  -0.9622504   0.1496235), wk =   0.0185185
        k(   52) = (   0.3333333  -0.9622504  -0.2244352), wk =   0.0185185
        k(   53) = (   0.3333333  -0.5773503   0.0000000), wk =   0.0185185
        k(   54) = (   0.3333333  -0.5773503   0.0748117), wk =   0.0370370
        k(   55) = (   0.3333333  -0.5773503   0.1496235), wk =   0.0370370
        k(   56) = (   0.3333333  -0.5773503  -0.2244352), wk =   0.0185185
        k(   57) = (  -0.5000000  -0.2886751   0.0000000), wk =   0.0092593
        k(   58) = (  -0.5000000  -0.2886751   0.0748117), wk =   0.0185185
        k(   59) = (  -0.5000000  -0.2886751   0.1496235), wk =   0.0185185
        k(   60) = (  -0.5000000  -0.2886751  -0.2244352), wk =   0.0092593
        k(   61) = (  -0.5000000  -1.4433757   0.0000000), wk =   0.0092593
        k(   62) = (  -0.5000000  -1.4433757   0.0748117), wk =   0.0185185
        k(   63) = (  -0.5000000  -1.4433757   0.1496235), wk =   0.0185185
        k(   64) = (  -0.5000000  -1.4433757  -0.2244352), wk =   0.0092593
        k(   65) = (   0.3333333  -0.1924501  -0.0748117), wk =   0.0370370
        k(   66) = (   0.3333333  -0.1924501  -0.1496235), wk =   0.0370370
        k(   67) = (   0.6666667  -0.3849002  -0.0748117), wk =   0.0370370
        k(   68) = (   0.6666667  -0.3849002  -0.1496235), wk =   0.0370370
        k(   69) = (   0.1666667   0.0962250  -0.0748117), wk =   0.0185185
        k(   70) = (   0.1666667   0.0962250  -0.1496235), wk =   0.0185185
        k(   71) = (   0.5000000  -0.0962250  -0.0748117), wk =   0.0370370
        k(   72) = (   0.5000000  -0.0962250  -0.1496235), wk =   0.0370370
        k(   73) = (  -0.8333333   0.6735753  -0.0748117), wk =   0.0185185
        k(   74) = (  -0.8333333   0.6735753  -0.1496235), wk =   0.0185185
        k(   75) = (  -0.5000000   0.4811252  -0.0748117), wk =   0.0370370
        k(   76) = (  -0.5000000   0.4811252  -0.1496235), wk =   0.0370370
        k(   77) = (   0.3333333   0.1924501  -0.0748117), wk =   0.0185185
        k(   78) = (   0.3333333   0.1924501  -0.1496235), wk =   0.0185185
        k(   79) = (  -0.6666667   0.7698004  -0.0748117), wk =   0.0185185
        k(   80) = (  -0.6666667   0.7698004  -0.1496235), wk =   0.0185185

                       cryst. coord.
        k(    1) = (   0.0000000   0.0000000   0.0000000), wk =   0.0092593
        k(    2) = (   0.0000000   0.0000000   0.1666667), wk =   0.0185185
        k(    3) = (   0.0000000   0.0000000   0.3333333), wk =   0.0185185
        k(    4) = (   0.0000000   0.0000000  -0.5000000), wk =   0.0092593
        k(    5) = (   0.0000000   0.1666667   0.0000000), wk =   0.0370370
        k(    6) = (   0.0000000   0.1666667   0.1666667), wk =   0.0370370
        k(    7) = (   0.0000000   0.1666667   0.3333333), wk =   0.0370370
        k(    8) = (   0.0000000   0.1666667  -0.5000000), wk =   0.0370370
        k(    9) = (   0.0000000   0.3333333   0.0000000), wk =   0.0370370
        k(   10) = (   0.0000000   0.3333333   0.1666667), wk =   0.0370370
        k(   11) = (   0.0000000   0.3333333   0.3333333), wk =   0.0370370
        k(   12) = (   0.0000000   0.3333333  -0.5000000), wk =   0.0370370
        k(   13) = (   0.0000000  -0.5000000   0.0000000), wk =   0.0092593
        k(   14) = (   0.0000000  -0.5000000   0.1666667), wk =   0.0185185
        k(   15) = (   0.0000000  -0.5000000   0.3333333), wk =   0.0185185
        k(   16) = (   0.0000000  -0.5000000  -0.5000000), wk =   0.0092593
        k(   17) = (   0.1666667   0.0000000   0.0000000), wk =   0.0185185
        k(   18) = (   0.1666667   0.0000000   0.1666667), wk =   0.0185185
        k(   19) = (   0.1666667   0.0000000   0.3333333), wk =   0.0185185
        k(   20) = (   0.1666667   0.0000000  -0.5000000), wk =   0.0185185
        k(   21) = (   0.1666667   0.1666667   0.0000000), wk =   0.0370370
        k(   22) = (   0.1666667   0.1666667   0.1666667), wk =   0.0370370
        k(   23) = (   0.1666667   0.1666667   0.3333333), wk =   0.0370370
        k(   24) = (   0.1666667   0.1666667  -0.5000000), wk =   0.0370370
        k(   25) = (   0.1666667   0.3333333   0.0000000), wk =   0.0185185
        k(   26) = (   0.1666667   0.3333333   0.1666667), wk =   0.0370370
        k(   27) = (   0.1666667   0.3333333   0.3333333), wk =   0.0370370
        k(   28) = (   0.1666667   0.3333333  -0.5000000), wk =   0.0185185
        k(   29) = (   0.1666667  -0.5000000   0.0000000), wk =   0.0185185
        k(   30) = (   0.1666667  -0.5000000   0.1666667), wk =   0.0185185
        k(   31) = (   0.1666667  -0.5000000   0.3333333), wk =   0.0185185
        k(   32) = (   0.1666667  -0.5000000  -0.5000000), wk =   0.0185185
        k(   33) = (   0.1666667  -0.3333333   0.0000000), wk =   0.0370370
        k(   34) = (   0.1666667  -0.3333333   0.1666667), wk =   0.0370370
        k(   35) = (   0.1666667  -0.3333333   0.3333333), wk =   0.0370370
        k(   36) = (   0.1666667  -0.3333333  -0.5000000), wk =   0.0370370
        k(   37) = (   0.1666667  -0.1666667   0.0000000), wk =   0.0185185
        k(   38) = (   0.1666667  -0.1666667   0.1666667), wk =   0.0370370
        k(   39) = (   0.1666667  -0.1666667   0.3333333), wk =   0.0370370
        k(   40) = (   0.1666667  -0.1666667  -0.5000000), wk =   0.0185185
        k(   41) = (   0.3333333   0.0000000   0.0000000), wk =   0.0185185
        k(   42) = (   0.3333333   0.0000000   0.1666667), wk =   0.0185185
        k(   43) = (   0.3333333   0.0000000   0.3333333), wk =   0.0185185
        k(   44) = (   0.3333333   0.0000000  -0.5000000), wk =   0.0185185
        k(   45) = (   0.3333333   0.1666667   0.0000000), wk =   0.0185185
        k(   46) = (   0.3333333   0.1666667   0.1666667), wk =   0.0370370
        k(   47) = (   0.3333333   0.1666667   0.3333333), wk =   0.0370370
        k(   48) = (   0.3333333   0.1666667  -0.5000000), wk =   0.0185185
        k(   49) = (   0.3333333  -0.5000000   0.0000000), wk =   0.0185185
        k(   50) = (   0.3333333  -0.5000000   0.1666667), wk =   0.0185185
        k(   51) = (   0.3333333  -0.5000000   0.3333333), wk =   0.0185185
        k(   52) = (   0.3333333  -0.5000000  -0.5000000), wk =   0.0185185
        k(   53) = (   0.3333333  -0.3333333   0.0000000), wk =   0.0185185
        k(   54) = (   0.3333333  -0.3333333   0.1666667), wk =   0.0370370
        k(   55) = (   0.3333333  -0.3333333   0.3333333), wk =   0.0370370
        k(   56) = (   0.3333333  -0.3333333  -0.5000000), wk =   0.0185185
        k(   57) = (  -0.5000000   0.0000000   0.0000000), wk =   0.0092593
        k(   58) = (  -0.5000000   0.0000000   0.1666667), wk =   0.0185185
        k(   59) = (  -0.5000000   0.0000000   0.3333333), wk =   0.0185185
        k(   60) = (  -0.5000000   0.0000000  -0.5000000), wk =   0.0092593
        k(   61) = (  -0.5000000  -0.5000000   0.0000000), wk =   0.0092593
        k(   62) = (  -0.5000000  -0.5000000   0.1666667), wk =   0.0185185
        k(   63) = (  -0.5000000  -0.5000000   0.3333333), wk =   0.0185185
        k(   64) = (  -0.5000000  -0.5000000  -0.5000000), wk =   0.0092593
        k(   65) = (   0.3333333  -0.1666667  -0.1666667), wk =   0.0370370
        k(   66) = (   0.3333333  -0.1666667  -0.3333333), wk =   0.0370370
        k(   67) = (   0.6666667  -0.3333333  -0.1666667), wk =   0.0370370
        k(   68) = (   0.6666667  -0.3333333  -0.3333333), wk =   0.0370370
        k(   69) = (   0.1666667   0.0000000  -0.1666667), wk =   0.0185185
        k(   70) = (   0.1666667   0.0000000  -0.3333333), wk =   0.0185185
        k(   71) = (   0.5000000  -0.1666667  -0.1666667), wk =   0.0370370
        k(   72) = (   0.5000000  -0.1666667  -0.3333333), wk =   0.0370370
        k(   73) = (  -0.8333333   0.5000000  -0.1666667), wk =   0.0185185
        k(   74) = (  -0.8333333   0.5000000  -0.3333333), wk =   0.0185185
        k(   75) = (  -0.5000000   0.3333333  -0.1666667), wk =   0.0370370
        k(   76) = (  -0.5000000   0.3333333  -0.3333333), wk =   0.0370370
        k(   77) = (   0.3333333   0.0000000  -0.1666667), wk =   0.0185185
        k(   78) = (   0.3333333   0.0000000  -0.3333333), wk =   0.0185185
        k(   79) = (  -0.6666667   0.5000000  -0.1666667), wk =   0.0185185
        k(   80) = (  -0.6666667   0.5000000  -0.3333333), wk =   0.0185185

     Dense  grid:   179335 G-vectors     FFT dimensions: (  72,  36, 160)

     Smooth grid:    63397 G-vectors     FFT dimensions: (  54,  25, 120)

     Dynamical RAM for                 wfc:       3.26 MB

     Dynamical RAM for     wfc (w. buffer):      35.91 MB

     Dynamical RAM for           str. fact:       1.37 MB

     Dynamical RAM for           local pot:       0.00 MB

     Dynamical RAM for          nlocal pot:       9.43 MB

     Dynamical RAM for                qrad:       3.21 MB

     Dynamical RAM for          rho,v,vnew:       4.43 MB

     Dynamical RAM for               rhoin:       1.48 MB

     Dynamical RAM for            rho*nmix:      10.95 MB

     Dynamical RAM for           G-vectors:       2.69 MB

     Dynamical RAM for          h,s,v(r/c):       0.53 MB

     Dynamical RAM for          <psi|beta>:       0.51 MB

     Dynamical RAM for                 psi:       6.53 MB

     Dynamical RAM for                hpsi:       6.53 MB

     Dynamical RAM for                spsi:       6.53 MB

     Dynamical RAM for      wfcinit/wfcrot:       9.99 MB

     Dynamical RAM for           addusdens:      17.53 MB

     Dynamical RAM for          addusforce:      19.20 MB

     Estimated static dynamical RAM per process >      64.51 MB

     Estimated max dynamical RAM per process >      96.10 MB

     Estimated total dynamical RAM >       2.70 GB

     Initial potential from superposition of free atoms

     starting charge     215.9553, renormalised to     216.0000
     Starting wfcs are  156 randomized atomic wfcs

     total cpu time spent up to now is       11.6 secs

     per-process dynamical memory:    89.2 Mb

     Self-consistent Calculation

     iteration #  1     ecut=    50.00 Ry     beta= 0.30
     Davidson diagonalization with overlap

---- Real-time Memory Report at c_bands before calling an iterative solver
           115 MiB given to the printing process from OS
            87 MiB allocation reported by mallinfo(arena+hblkhd)
        105063 MiB available memory on the node where the printing process lives
------------------
     ethr =  1.00E-02,  avg # of iterations =  2.5

     total cpu time spent up to now is       32.4 secs

     total energy              =   -2166.82276812 Ry
     estimated scf accuracy    <       4.32006065 Ry

     iteration #  2     ecut=    50.00 Ry     beta= 0.30
     Davidson diagonalization with overlap

---- Real-time Memory Report at c_bands before calling an iterative solver
           131 MiB given to the printing process from OS
           103 MiB allocation reported by mallinfo(arena+hblkhd)
        104546 MiB available memory on the node where the printing process lives
------------------
     ethr =  2.00E-03,  avg # of iterations =  2.0

     total cpu time spent up to now is       54.6 secs

     total energy              =   -2166.88386614 Ry
     estimated scf accuracy    <       1.01204025 Ry

     iteration #  3     ecut=    50.00 Ry     beta= 0.30
     Davidson diagonalization with overlap

---- Real-time Memory Report at c_bands before calling an iterative solver
           137 MiB given to the printing process from OS
           106 MiB allocation reported by mallinfo(arena+hblkhd)
        104531 MiB available memory on the node where the printing process lives
------------------
     ethr =  4.69E-04,  avg # of iterations =  6.8

     total cpu time spent up to now is       97.7 secs

     total energy              =   -2167.54409617 Ry
     estimated scf accuracy    <       0.60104748 Ry

     iteration #  4     ecut=    50.00 Ry     beta= 0.30
     Davidson diagonalization with overlap

---- Real-time Memory Report at c_bands before calling an iterative solver
           137 MiB given to the printing process from OS
           106 MiB allocation reported by mallinfo(arena+hblkhd)
        104529 MiB available memory on the node where the printing process lives
------------------
     ethr =  2.78E-04,  avg # of iterations =  2.0

     total cpu time spent up to now is      116.9 secs

     total energy              =   -2167.49370411 Ry
     estimated scf accuracy    <       0.20952850 Ry

     iteration #  5     ecut=    50.00 Ry     beta= 0.30
     Davidson diagonalization with overlap

---- Real-time Memory Report at c_bands before calling an iterative solver
           137 MiB given to the printing process from OS
           106 MiB allocation reported by mallinfo(arena+hblkhd)
        104527 MiB available memory on the node where the printing process lives
------------------
     ethr =  9.70E-05,  avg # of iterations =  9.0

     total cpu time spent up to now is      175.4 secs

     total energy              =   -2167.72850368 Ry
     estimated scf accuracy    <       2.88698518 Ry

     iteration #  6     ecut=    50.00 Ry     beta= 0.30
     Davidson diagonalization with overlap

---- Real-time Memory Report at c_bands before calling an iterative solver
           145 MiB given to the printing process from OS
           114 MiB allocation reported by mallinfo(arena+hblkhd)
        104511 MiB available memory on the node where the printing process lives
------------------
     ethr =  9.70E-05,  avg # of iterations =  5.2

     total cpu time spent up to now is      210.9 secs

     total energy              =   -2167.35317770 Ry
     estimated scf accuracy    <       0.96905904 Ry

     iteration #  7     ecut=    50.00 Ry     beta= 0.30
     Davidson diagonalization with overlap

---- Real-time Memory Report at c_bands before calling an iterative solver
           145 MiB given to the printing process from OS
           114 MiB allocation reported by mallinfo(arena+hblkhd)
        104514 MiB available memory on the node where the printing process lives
------------------
     ethr =  9.70E-05,  avg # of iterations =  6.7

     total cpu time spent up to now is      254.0 secs

     total energy              =   -2167.56660544 Ry
     estimated scf accuracy    <       0.00037103 Ry

     iteration #  8     ecut=    50.00 Ry     beta= 0.30
     Davidson diagonalization with overlap

---- Real-time Memory Report at c_bands before calling an iterative solver
           145 MiB given to the printing process from OS
           114 MiB allocation reported by mallinfo(arena+hblkhd)
        104499 MiB available memory on the node where the printing process lives
------------------
     c_bands:  2 eigenvalues not converged
     c_bands:  2 eigenvalues not converged
     ethr =  1.72E-07,  avg # of iterations = 14.7

     total cpu time spent up to now is      332.9 secs

     total energy              =   -2167.57248702 Ry
     estimated scf accuracy    <       0.00146223 Ry

     iteration #  9     ecut=    50.00 Ry     beta= 0.30
     Davidson diagonalization with overlap

---- Real-time Memory Report at c_bands before calling an iterative solver
           145 MiB given to the printing process from OS
           114 MiB allocation reported by mallinfo(arena+hblkhd)
        104474 MiB available memory on the node where the printing process lives
------------------
     ethr =  1.72E-07,  avg # of iterations =  4.1

     total cpu time spent up to now is      363.2 secs

     total energy              =   -2167.57241837 Ry
     estimated scf accuracy    <       0.00026469 Ry

     iteration # 10     ecut=    50.00 Ry     beta= 0.30
     Davidson diagonalization with overlap

---- Real-time Memory Report at c_bands before calling an iterative solver
           145 MiB given to the printing process from OS
           114 MiB allocation reported by mallinfo(arena+hblkhd)
        104487 MiB available memory on the node where the printing process lives
------------------
     ethr =  1.23E-07,  avg # of iterations =  6.8

     total cpu time spent up to now is      404.8 secs

     total energy              =   -2167.57262630 Ry
     estimated scf accuracy    <       0.00016500 Ry

     iteration # 11     ecut=    50.00 Ry     beta= 0.30
     Davidson diagonalization with overlap

---- Real-time Memory Report at c_bands before calling an iterative solver
           145 MiB given to the printing process from OS
           114 MiB allocation reported by mallinfo(arena+hblkhd)
        104487 MiB available memory on the node where the printing process lives
------------------
     ethr =  7.64E-08,  avg # of iterations =  1.8

     total cpu time spent up to now is      424.0 secs

     total energy              =   -2167.57255757 Ry
     estimated scf accuracy    <       0.00017603 Ry

     iteration # 12     ecut=    50.00 Ry     beta= 0.30
     Davidson diagonalization with overlap

---- Real-time Memory Report at c_bands before calling an iterative solver
           145 MiB given to the printing process from OS
           114 MiB allocation reported by mallinfo(arena+hblkhd)
        104486 MiB available memory on the node where the printing process lives
------------------
     ethr =  7.64E-08,  avg # of iterations =  2.0

     total cpu time spent up to now is      443.5 secs

     total energy              =   -2167.57253989 Ry
     estimated scf accuracy    <       0.00004984 Ry

     iteration # 13     ecut=    50.00 Ry     beta= 0.30
     Davidson diagonalization with overlap

---- Real-time Memory Report at c_bands before calling an iterative solver
           145 MiB given to the printing process from OS
           114 MiB allocation reported by mallinfo(arena+hblkhd)
        104486 MiB available memory on the node where the printing process lives
------------------
     ethr =  2.31E-08,  avg # of iterations =  6.2

     total cpu time spent up to now is      481.7 secs

     total energy              =   -2167.57257089 Ry
     estimated scf accuracy    <       0.00000930 Ry

     iteration # 14     ecut=    50.00 Ry     beta= 0.30
     Davidson diagonalization with overlap

---- Real-time Memory Report at c_bands before calling an iterative solver
           145 MiB given to the printing process from OS
           114 MiB allocation reported by mallinfo(arena+hblkhd)
        104487 MiB available memory on the node where the printing process lives
------------------
     ethr =  4.31E-09,  avg # of iterations =  3.1

     total cpu time spent up to now is      506.4 secs

     total energy              =   -2167.57257087 Ry
     estimated scf accuracy    <       0.00000194 Ry

     iteration # 15     ecut=    50.00 Ry     beta= 0.30
     Davidson diagonalization with overlap

---- Real-time Memory Report at c_bands before calling an iterative solver
           145 MiB given to the printing process from OS
           114 MiB allocation reported by mallinfo(arena+hblkhd)
        104487 MiB available memory on the node where the printing process lives
------------------
     ethr =  8.97E-10,  avg # of iterations =  7.5

     total cpu time spent up to now is      552.5 secs

     total energy              =   -2167.57257211 Ry
     estimated scf accuracy    <       0.00000242 Ry

     iteration # 16     ecut=    50.00 Ry     beta= 0.30
     Davidson diagonalization with overlap

---- Real-time Memory Report at c_bands before calling an iterative solver
           145 MiB given to the printing process from OS
           114 MiB allocation reported by mallinfo(arena+hblkhd)
        104487 MiB available memory on the node where the printing process lives
------------------
     ethr =  8.97E-10,  avg # of iterations =  3.8

     total cpu time spent up to now is      579.4 secs

     total energy              =   -2167.57257234 Ry
     estimated scf accuracy    <       0.00000015 Ry

     iteration # 17     ecut=    50.00 Ry     beta= 0.30
     Davidson diagonalization with overlap

---- Real-time Memory Report at c_bands before calling an iterative solver
           145 MiB given to the printing process from OS
           114 MiB allocation reported by mallinfo(arena+hblkhd)
        104487 MiB available memory on the node where the printing process lives
------------------
     ethr =  6.81E-11,  avg # of iterations = 10.0

     total cpu time spent up to now is      639.3 secs

     total energy              =   -2167.57257290 Ry
     estimated scf accuracy    <       0.00000143 Ry

     iteration # 18     ecut=    50.00 Ry     beta= 0.30
     Davidson diagonalization with overlap

---- Real-time Memory Report at c_bands before calling an iterative solver
           145 MiB given to the printing process from OS
           114 MiB allocation reported by mallinfo(arena+hblkhd)
        104487 MiB available memory on the node where the printing process lives
------------------
     ethr =  6.81E-11,  avg # of iterations =  2.0

     total cpu time spent up to now is      658.5 secs

     total energy              =   -2167.57257264 Ry
     estimated scf accuracy    <       0.00000107 Ry

     iteration # 19     ecut=    50.00 Ry     beta= 0.30
     Davidson diagonalization with overlap

---- Real-time Memory Report at c_bands before calling an iterative solver
           145 MiB given to the printing process from OS
           114 MiB allocation reported by mallinfo(arena+hblkhd)
        104487 MiB available memory on the node where the printing process lives
------------------
     ethr =  6.81E-11,  avg # of iterations =  4.9

     total cpu time spent up to now is      694.2 secs

     total energy              =   -2167.57257267 Ry
     estimated scf accuracy    <       0.00000027 Ry

     iteration # 20     ecut=    50.00 Ry     beta= 0.30
     Davidson diagonalization with overlap

---- Real-time Memory Report at c_bands before calling an iterative solver
           145 MiB given to the printing process from OS
           114 MiB allocation reported by mallinfo(arena+hblkhd)
        104487 MiB available memory on the node where the printing process lives
------------------
     ethr =  6.81E-11,  avg # of iterations =  1.9

     total cpu time spent up to now is      713.6 secs

     total energy              =   -2167.57257261 Ry
     estimated scf accuracy    <       0.00000016 Ry

     iteration # 21     ecut=    50.00 Ry     beta= 0.30
     Davidson diagonalization with overlap

---- Real-time Memory Report at c_bands before calling an iterative solver
           145 MiB given to the printing process from OS
           114 MiB allocation reported by mallinfo(arena+hblkhd)
        104487 MiB available memory on the node where the printing process lives
------------------
     ethr =  6.81E-11,  avg # of iterations =  5.1

     total cpu time spent up to now is      745.7 secs

     End of self-consistent calculation

          k = 0.0000 0.0000 0.0000 (  7939 PWs)   bands (ev):

    -7.7745  -7.3751  -7.3751  -6.5328  -6.5328  -6.4630  -6.2914  -6.2914
    -6.0942  -6.0272  -6.0272  -5.9437   4.6165   4.6165   4.6649   4.6649
     4.9694   4.9694   5.0854   5.1062   5.2186   5.4071   5.4071   5.8201
     5.8203   5.8522   5.8522   5.8523   5.8523   5.9134   6.0471   6.0471
     6.0472   6.0472   6.1743   6.2221   6.2222   6.2596   6.2596   6.2939
     6.3448   6.3448   6.5548   6.5548   6.8300   6.8300   6.9406   7.2028
     8.2678   8.2678   8.3637   8.4901   8.4901   8.4902   8.4902   8.7036
     8.7335   8.7335   8.7372   8.7373   8.7941   8.7941   8.7941   8.7941
     8.8342   8.8343   8.8499   8.8499   8.9825   9.0187   9.0187   9.0237
     9.2558   9.3297   9.4645   9.4645   9.6097   9.6097   9.7775  10.1448
    10.3583  10.8465  10.8465  11.0130  11.0130  11.7205  11.7205  12.3084
    12.3084  12.4688  12.5438  12.5439  12.8077  12.8078  12.8787  12.9159
    12.9160  12.9421  12.9421  12.9423  12.9423  13.7544  13.7545  13.7546
    13.7546  14.1310  14.1501  14.1502

     occupation numbers 
     1.0000   1.0000   1.0000   1.0000   1.0000   1.0000   1.0000   1.0000
     1.0000   1.0000   1.0000   1.0000   1.0000   1.0000   1.0000   1.0000
     1.0000   1.0000   1.0000   1.0000   1.0000   1.0000   1.0000   1.0000
     1.0000   1.0000   1.0000   1.0000   1.0000   1.0000   1.0000   1.0000
     1.0000   1.0000   1.0000   1.0000   1.0000   1.0000   1.0000   1.0000
     1.0000   1.0000   1.0000   1.0000   1.0000   1.0000   1.0000   1.0000
     1.0000   1.0000   1.0000   1.0000   1.0000   1.0000   1.0000   1.0000
     1.0000   1.0000   1.0000   1.0000   1.0000   1.0000   1.0000   1.0000
     1.0000   1.0000   1.0000   1.0000   1.0000   1.0000   1.0000   1.0000
     1.0000   1.0000   1.0000   1.0000   1.0000   1.0000   1.0000   1.0000
     1.0000   1.0000   1.0000   1.0000   1.0000   1.0000   1.0000   1.0000
     1.0000   1.0000   1.0000   1.0000   1.0000   1.0000   1.0000   1.0000
     1.0000   1.0000   1.0000   1.0000   1.0000   1.0000   1.0000   1.0000
     1.0000   1.0000   1.0000   1.0000

          k = 0.0000 0.0000 0.0748 (  7948 PWs)   bands (ev):

    -7.7625  -7.4907  -7.2458  -6.6694  -6.4575  -6.4084  -6.3381  -6.2421
    -6.1076  -6.0608  -5.9997  -5.9457   4.5457   4.5847   4.7116   4.7593
     4.9767   4.9908   5.0690   5.0844   5.2017   5.2841   5.5334   5.8205
     5.8206   5.8386   5.8388   5.8711   5.8712   5.8953   6.0038   6.0039
     6.0909   6.0910   6.1788   6.2159   6.2160   6.2469   6.2834   6.2871
     6.2926   6.4068   6.4820   6.6347   6.7356   6.9225   6.9235   7.1893
     8.2753   8.2753   8.3828   8.4311   8.4311   8.5511   8.5511   8.6615
     8.7045   8.7275   8.7486   8.7605   8.7606   8.7989   8.8120   8.8184
     8.8185   8.8490   8.8491   8.8599   8.9736   8.9895   9.0296   9.0396
     9.2625   9.3860   9.4176   9.5046   9.5952   9.6268   9.7587  10.1776
    10.4194  10.4673  10.7940  11.2312  11.2405  11.4051  12.0237  12.1207
    12.4747  12.4887  12.5556  12.5558  12.6236  12.7783  12.7799  12.8269
    12.8270  12.8618  13.0704  13.0706  13.1883  13.6271  13.6273  13.8687
    13.8688  14.0645  14.1383  14.1384

     occupation numbers 
     1.0000   1.0000   1.0000   1.0000   1.0000   1.0000   1.0000   1.0000
     1.0000   1.0000   1.0000   1.0000   1.0000   1.0000   1.0000   1.0000
     1.0000   1.0000   1.0000   1.0000   1.0000   1.0000   1.0000   1.0000
     1.0000   1.0000   1.0000   1.0000   1.0000   1.0000   1.0000   1.0000
     1.0000   1.0000   1.0000   1.0000   1.0000   1.0000   1.0000   1.0000
     1.0000   1.0000   1.0000   1.0000   1.0000   1.0000   1.0000   1.0000
     1.0000   1.0000   1.0000   1.0000   1.0000   1.0000   1.0000   1.0000
     1.0000   1.0000   1.0000   1.0000   1.0000   1.0000   1.0000   1.0000
     1.0000   1.0000   1.0000   1.0000   1.0000   1.0000   1.0000   1.0000
     1.0000   1.0000   1.0000   1.0000   1.0000   1.0000   1.0000   1.0000
     1.0000   1.0000   1.0000   1.0000   1.0000   1.0000   1.0000   1.0000
     1.0000   1.0000   1.0000   1.0000   1.0000   1.0000   1.0000   1.0000
     1.0000   1.0000   1.0000   1.0000   1.0000   1.0000   1.0000   1.0000
     1.0000   1.0000   1.0000   1.0000

          k = 0.0000 0.0000 0.1496 (  7960 PWs)   bands (ev):

    -7.7271  -7.5895  -7.1064  -6.8136  -6.4412  -6.3799  -6.3004  -6.1924
    -6.1475  -6.1001  -5.9783  -5.9518   4.5060   4.5276   4.8205   4.8573
     5.0146   5.0216   5.0221   5.0361   5.1562   5.1731   5.6543   5.8216
     5.8217   5.8297   5.8298   5.8424   5.8959   5.8960   5.9630   5.9632
     6.1324   6.1325   6.1930   6.1976   6.1976   6.2456   6.2498   6.2713
     6.3181   6.4177   6.4781   6.6440   6.7184   6.8723   7.0116   7.1502
     8.2968   8.2968   8.3774   8.3774   8.4345   8.5839   8.6112   8.6112
     8.7075   8.7181   8.7182   8.7192   8.7616   8.7930   8.8342   8.8343
     8.8472   8.8473   8.8574   8.8891   8.9507   8.9527   9.0423   9.0509
     9.2840   9.3673   9.5368   9.5473   9.5802   9.6492   9.7190  10.1106
    10.2710  10.5824  10.5911  11.0970  11.4706  11.6087  11.9156  12.2962
    12.3086  12.5445  12.5909  12.5910  12.6158  12.6846  12.7096  12.7282
    12.7283  12.8115  13.2076  13.2078  13.4440  13.4906  13.4908  13.8986
    13.9665  13.9667  14.1030  14.1032

     occupation numbers 
     1.0000   1.0000   1.0000   1.0000   1.0000   1.0000   1.0000   1.0000
     1.0000   1.0000   1.0000   1.0000   1.0000   1.0000   1.0000   1.0000
     1.0000   1.0000   1.0000   1.0000   1.0000   1.0000   1.0000   1.0000
     1.0000   1.0000   1.0000   1.0000   1.0000   1.0000   1.0000   1.0000
     1.0000   1.0000   1.0000   1.0000   1.0000   1.0000   1.0000   1.0000
     1.0000   1.0000   1.0000   1.0000   1.0000   1.0000   1.0000   1.0000
     1.0000   1.0000   1.0000   1.0000   1.0000   1.0000   1.0000   1.0000
     1.0000   1.0000   1.0000   1.0000   1.0000   1.0000   1.0000   1.0000
     1.0000   1.0000   1.0000   1.0000   1.0000   1.0000   1.0000   1.0000
     1.0000   1.0000   1.0000   1.0000   1.0000   1.0000   1.0000   1.0000
     1.0000   1.0000   1.0000   1.0000   1.0000   1.0000   1.0000   1.0000
     1.0000   1.0000   1.0000   1.0000   1.0000   1.0000   1.0000   1.0000
     1.0000   1.0000   1.0000   1.0000   1.0000   1.0000   1.0000   1.0000
     1.0000   1.0000   1.0000   1.0000

          k = 0.0000 0.0000-0.2244 (  7948 PWs)   bands (ev):

    -7.6689  -7.6689  -6.9609  -6.9608  -6.4149  -6.4149  -6.2124  -6.2124
    -6.1445  -6.1445  -5.9626  -5.9626   4.5002   4.5002   4.9293   4.9293
     4.9482   4.9482   5.0813   5.0813   5.0959   5.0959   5.7603   5.7603
     5.8244   5.8244   5.8246   5.8246   5.9266   5.9266   5.9267   5.9268
     6.1689   6.1689   6.1690   6.1690   6.2165   6.2165   6.2550   6.2550
     6.3630   6.3630   6.5575   6.5575   6.8005   6.8005   7.0890   7.0890
     8.3317   8.3317   8.3317   8.3317   8.5055   8.5055   8.6674   8.6674
     8.6674   8.6674   8.7123   8.7123   8.7764   8.7764   8.8436   8.8436
     8.8436   8.8436   8.9087   8.9087   8.9205   8.9205   9.0515   9.0515
     9.3203   9.3203   9.5615   9.5615   9.6800   9.6800   9.7971   9.7971
    10.4130  10.4130  10.8160  10.8160  11.6973  11.6973  11.9697  11.9697
    12.5208  12.5208  12.6242  12.6242  12.6488  12.6488  12.6490  12.6490
    12.7289  12.7289  13.3492  13.3492  13.3494  13.3494  13.6833  13.6833
    14.0453  14.0453  14.0455  14.0455

     occupation numbers 
     1.0000   1.0000   1.0000   1.0000   1.0000   1.0000   1.0000   1.0000
     1.0000   1.0000   1.0000   1.0000   1.0000   1.0000   1.0000   1.0000
     1.0000   1.0000   1.0000   1.0000   1.0000   1.0000   1.0000   1.0000
     1.0000   1.0000   1.0000   1.0000   1.0000   1.0000   1.0000   1.0000
     1.0000   1.0000   1.0000   1.0000   1.0000   1.0000   1.0000   1.0000
     1.0000   1.0000   1.0000   1.0000   1.0000   1.0000   1.0000   1.0000
     1.0000   1.0000   1.0000   1.0000   1.0000   1.0000   1.0000   1.0000
     1.0000   1.0000   1.0000   1.0000   1.0000   1.0000   1.0000   1.0000
     1.0000   1.0000   1.0000   1.0000   1.0000   1.0000   1.0000   1.0000
     1.0000   1.0000   1.0000   1.0000   1.0000   1.0000   1.0000   1.0000
     1.0000   1.0000   1.0000   1.0000   1.0000   1.0000   1.0000   1.0000
     1.0000   1.0000   1.0000   1.0000   1.0000   1.0000   1.0000   1.0000
     1.0000   1.0000   1.0000   1.0000   1.0000   1.0000   1.0000   1.0000
     1.0000   1.0000   1.0000   1.0000

          k = 0.0000 0.3849 0.0000 (  7909 PWs)   bands (ev):

    -7.5090  -7.1423  -7.1423  -6.4846  -6.3903  -6.3903  -6.3056  -6.3056
    -6.0240  -6.0239  -6.0140  -5.9306   4.8266   4.8266   4.8937   4.8937
     4.9335   4.9335   5.1506   5.1506   5.1986   5.3654   5.4724   5.5528
     5.9374   5.9585   5.9585   5.9872   5.9872   6.0280   6.0281   6.0462
     6.0483   6.1004   6.1004   6.1164   6.1164   6.2123   6.2123   6.2438
     6.2449   6.4039   6.6897   6.6897   6.8099   6.8099   7.0098   7.1625
     8.1281   8.2035   8.2721   8.3075   8.4371   8.4371   8.4391   8.4391
     8.4831   8.4831   8.6567   8.6567   8.7982   8.8021   8.8021   8.8359
     8.8359   8.8940   8.9026   8.9547   8.9547   8.9832   9.1572   9.1572
     9.3102   9.4441   9.5165   9.5165   9.6188  10.0429  10.0429  10.3532
    10.5501  10.5501  10.7073  10.8934  10.8934  11.5127  11.6066  11.6066
    11.9626  11.9626  11.9685  11.9685  11.9931  12.3063  12.4164  12.4164
    12.4807  12.4807  12.5695  12.8184  12.8184  13.0552  13.4268  13.4268
    13.4486  13.4486  13.8406  13.8779

     occupation numbers 
     1.0000   1.0000   1.0000   1.0000   1.0000   1.0000   1.0000   1.0000
     1.0000   1.0000   1.0000   1.0000   1.0000   1.0000   1.0000   1.0000
     1.0000   1.0000   1.0000   1.0000   1.0000   1.0000   1.0000   1.0000
     1.0000   1.0000   1.0000   1.0000   1.0000   1.0000   1.0000   1.0000
     1.0000   1.0000   1.0000   1.0000   1.0000   1.0000   1.0000   1.0000
     1.0000   1.0000   1.0000   1.0000   1.0000   1.0000   1.0000   1.0000
     1.0000   1.0000   1.0000   1.0000   1.0000   1.0000   1.0000   1.0000
     1.0000   1.0000   1.0000   1.0000   1.0000   1.0000   1.0000   1.0000
     1.0000   1.0000   1.0000   1.0000   1.0000   1.0000   1.0000   1.0000
     1.0000   1.0000   1.0000   1.0000   1.0000   1.0000   1.0000   1.0000
     1.0000   1.0000   1.0000   1.0000   1.0000   1.0000   1.0000   1.0000
     1.0000   1.0000   1.0000   1.0000   1.0000   1.0000   1.0000   1.0000
     1.0000   1.0000   1.0000   1.0000   1.0000   1.0000   1.0000   1.0000
     1.0000   1.0000   1.0000   1.0000

          k = 0.0000 0.3849 0.0748 (  7909 PWs)   bands (ev):

    -7.4980  -7.2479  -7.0248  -6.5099  -6.4788  -6.3545  -6.2824  -6.2538
    -6.0605  -6.0254  -5.9938  -5.9329   4.7592   4.8001   4.8982   4.9105
     5.0003   5.0120   5.0609   5.1847   5.2433   5.3460   5.4489   5.5299
     5.9383   5.9611   5.9670   5.9689   6.0112   6.0192   6.0408   6.0425
     6.0431   6.0619   6.0995   6.1367   6.1391   6.1643   6.2368   6.2394
     6.2604   6.3970   6.6662   6.7298   6.7500   6.8793   6.9862   7.1426
     8.1396   8.1934   8.2790   8.3593   8.3717   8.3740   8.4264   8.4992
     8.5169   8.5427   8.6465   8.6543   8.7618   8.7916   8.8145   8.8345
     8.8663   8.8922   8.9160   8.9424   8.9750   8.9758   9.1168   9.1867
     9.3171   9.3930   9.4871   9.6375   9.6389   9.9974  10.0388  10.3554
    10.4042  10.5224  10.7337  10.7437  11.2480  11.4248  11.5254  11.5454
    11.8301  12.0080  12.0285  12.0957  12.1186  12.3092  12.3105  12.3420
    12.5596  12.5695  12.6334  12.7855  12.7967  13.0248  13.2199  13.2810
    13.5574  13.6294  13.8457  13.8644

     occupation numbers 
     1.0000   1.0000   1.0000   1.0000   1.0000   1.0000   1.0000   1.0000
     1.0000   1.0000   1.0000   1.0000   1.0000   1.0000   1.0000   1.0000
     1.0000   1.0000   1.0000   1.0000   1.0000   1.0000   1.0000   1.0000
     1.0000   1.0000   1.0000   1.0000   1.0000   1.0000   1.0000   1.0000
     1.0000   1.0000   1.0000   1.0000   1.0000   1.0000   1.0000   1.0000
     1.0000   1.0000   1.0000   1.0000   1.0000   1.0000   1.0000   1.0000
     1.0000   1.0000   1.0000   1.0000   1.0000   1.0000   1.0000   1.0000
     1.0000   1.0000   1.0000   1.0000   1.0000   1.0000   1.0000   1.0000
     1.0000   1.0000   1.0000   1.0000   1.0000   1.0000   1.0000   1.0000
     1.0000   1.0000   1.0000   1.0000   1.0000   1.0000   1.0000   1.0000
     1.0000   1.0000   1.0000   1.0000   1.0000   1.0000   1.0000   1.0000
     1.0000   1.0000   1.0000   1.0000   1.0000   1.0000   1.0000   1.0000
     1.0000   1.0000   1.0000   1.0000   1.0000   1.0000   1.0000   1.0000
     1.0000   1.0000   1.0000   1.0000

          k = 0.0000 0.3849 0.1496 (  7917 PWs)   bands (ev):

    -7.4652  -7.3385  -6.8989  -6.6373  -6.4619  -6.3982  -6.2013  -6.1894
    -6.1030  -6.0590  -5.9699  -5.9400   4.7183   4.7378   4.8963   4.9832
     4.9989   5.0919   5.1439   5.1441   5.2866   5.3306   5.3798   5.4754
     5.9413   5.9557   5.9741   5.9852   6.0163   6.0264   6.0298   6.0314
     6.0413   6.0552   6.0844   6.1187   6.1610   6.1748   6.2157   6.2263
     6.3060   6.3770   6.6605   6.7034   6.7853   6.9265   6.9533   7.0927
     8.1725   8.2067   8.2867   8.2995   8.3084   8.3752   8.4869   8.5514
     8.5950   8.6027   8.6253   8.6335   8.7141   8.7350   8.8485   8.8588
     8.8798   8.8867   8.9386   8.9512   8.9719   9.0025   9.0753   9.1594
     9.3152   9.3231   9.6235   9.7060   9.7473   9.9286   9.9507  10.1657
    10.3470  10.3550  10.8201  10.9530  11.1839  11.3681  11.5592  11.5636
    11.7159  12.0133  12.0521  12.1495  12.2218  12.3027  12.3519  12.4354
    12.5856  12.6998  12.7102  12.7172  12.7950  12.9437  12.9576  13.1239
    13.6689  13.7550  13.8244  13.8487

     occupation numbers 
     1.0000   1.0000   1.0000   1.0000   1.0000   1.0000   1.0000   1.0000
     1.0000   1.0000   1.0000   1.0000   1.0000   1.0000   1.0000   1.0000
     1.0000   1.0000   1.0000   1.0000   1.0000   1.0000   1.0000   1.0000
     1.0000   1.0000   1.0000   1.0000   1.0000   1.0000   1.0000   1.0000
     1.0000   1.0000   1.0000   1.0000   1.0000   1.0000   1.0000   1.0000
     1.0000   1.0000   1.0000   1.0000   1.0000   1.0000   1.0000   1.0000
     1.0000   1.0000   1.0000   1.0000   1.0000   1.0000   1.0000   1.0000
     1.0000   1.0000   1.0000   1.0000   1.0000   1.0000   1.0000   1.0000
     1.0000   1.0000   1.0000   1.0000   1.0000   1.0000   1.0000   1.0000
     1.0000   1.0000   1.0000   1.0000   1.0000   1.0000   1.0000   1.0000
     1.0000   1.0000   1.0000   1.0000   1.0000   1.0000   1.0000   1.0000
     1.0000   1.0000   1.0000   1.0000   1.0000   1.0000   1.0000   1.0000
     1.0000   1.0000   1.0000   1.0000   1.0000   1.0000   1.0000   1.0000
     1.0000   1.0000   1.0000   1.0000

          k = 0.0000 0.3849-0.2244 (  7922 PWs)   bands (ev):

    -7.4116  -7.4116  -6.7683  -6.7683  -6.4346  -6.4346  -6.1504  -6.1504
    -6.1143  -6.1142  -5.9522  -5.9522   4.7104   4.7104   4.9261   4.9261
     5.0799   5.0799   5.1945   5.1945   5.2729   5.2729   5.4078   5.4078
     5.9468   5.9468   5.9965   5.9965   6.0086   6.0086   6.0207   6.0207
     6.0699   6.0699   6.0773   6.0773   6.1884   6.1884   6.2046   6.2046
     6.3458   6.3458   6.6730   6.6730   6.8535   6.8535   7.0266   7.0266
     8.2230   8.2230   8.2493   8.2493   8.3321   8.3321   8.5814   8.5814
     8.5935   8.5935   8.6606   8.6606   8.6687   8.6687   8.8741   8.8741
     8.8762   8.8762   8.9435   8.9435   9.0365   9.0365   9.0560   9.0560
     9.3152   9.3152   9.8195   9.8195   9.8446   9.8446   9.8558   9.8558
    10.3467  10.3467  10.9732  10.9732  11.1645  11.1645  11.6271  11.6271
    11.8141  11.8141  12.1241  12.1241  12.2487  12.2487  12.5584  12.5584
    12.6400  12.6400  12.6846  12.6846  12.8305  12.8305  12.9602  12.9602
    13.7587  13.7587  13.8250  13.8250

     occupation numbers 
     1.0000   1.0000   1.0000   1.0000   1.0000   1.0000   1.0000   1.0000
     1.0000   1.0000   1.0000   1.0000   1.0000   1.0000   1.0000   1.0000
     1.0000   1.0000   1.0000   1.0000   1.0000   1.0000   1.0000   1.0000
     1.0000   1.0000   1.0000   1.0000   1.0000   1.0000   1.0000   1.0000
     1.0000   1.0000   1.0000   1.0000   1.0000   1.0000   1.0000   1.0000
     1.0000   1.0000   1.0000   1.0000   1.0000   1.0000   1.0000   1.0000
     1.0000   1.0000   1.0000   1.0000   1.0000   1.0000   1.0000   1.0000
     1.0000   1.0000   1.0000   1.0000   1.0000   1.0000   1.0000   1.0000
     1.0000   1.0000   1.0000   1.0000   1.0000   1.0000   1.0000   1.0000
     1.0000   1.0000   1.0000   1.0000   1.0000   1.0000   1.0000   1.0000
     1.0000   1.0000   1.0000   1.0000   1.0000   1.0000   1.0000   1.0000
     1.0000   1.0000   1.0000   1.0000   1.0000   1.0000   1.0000   1.0000
     1.0000   1.0000   1.0000   1.0000   1.0000   1.0000   1.0000   1.0000
     1.0000   1.0000   1.0000   1.0000

          k = 0.0000 0.7698 0.0000 (  7923 PWs)   bands (ev):

    -6.8867  -6.6180  -6.6179  -6.4846  -6.3056  -6.3056  -6.1215  -6.1215
    -6.0240  -6.0239  -5.9306  -5.9068   4.7002   4.7002   4.8266   4.8266
     4.8280   4.8280   4.8937   4.8937   4.9986   5.1986   5.4724   5.5233
     6.0280   6.0280   6.0483   6.1165   6.1165   6.1198   6.1432   6.1432
     6.1676   6.2384   6.2384   6.2449   6.3893   6.3893   6.5966   6.5966
     6.6897   6.6897   6.7900   6.8099   6.8099   6.8694   7.0098   7.1624
     8.0298   8.2035   8.3075   8.4391   8.4391   8.4472   8.4473   8.4594
     8.5834   8.5834   8.6271   8.6567   8.6567   8.8223   8.8223   8.9027
     8.9316   8.9316   8.9547   8.9547   8.9567   8.9832   9.1573   9.1573
     9.3102   9.5166   9.5166   9.6188   9.6585  10.0430  10.0430  10.0670
    10.1050  10.1050  10.3532  10.5500  10.5500  10.7073  10.7410  10.7410
    10.8460  11.4439  11.5366  11.5366  11.5431  11.5431  11.6066  11.6066
    11.9626  11.9626  12.3063  12.5695  12.7115  12.7115  12.8184  12.8184
    13.0295  13.1122  13.1122  13.2463

     occupation numbers 
     1.0000   1.0000   1.0000   1.0000   1.0000   1.0000   1.0000   1.0000
     1.0000   1.0000   1.0000   1.0000   1.0000   1.0000   1.0000   1.0000
     1.0000   1.0000   1.0000   1.0000   1.0000   1.0000   1.0000   1.0000
     1.0000   1.0000   1.0000   1.0000   1.0000   1.0000   1.0000   1.0000
     1.0000   1.0000   1.0000   1.0000   1.0000   1.0000   1.0000   1.0000
     1.0000   1.0000   1.0000   1.0000   1.0000   1.0000   1.0000   1.0000
     1.0000   1.0000   1.0000   1.0000   1.0000   1.0000   1.0000   1.0000
     1.0000   1.0000   1.0000   1.0000   1.0000   1.0000   1.0000   1.0000
     1.0000   1.0000   1.0000   1.0000   1.0000   1.0000   1.0000   1.0000
     1.0000   1.0000   1.0000   1.0000   1.0000   1.0000   1.0000   1.0000
     1.0000   1.0000   1.0000   1.0000   1.0000   1.0000   1.0000   1.0000
     1.0000   1.0000   1.0000   1.0000   1.0000   1.0000   1.0000   1.0000
     1.0000   1.0000   1.0000   1.0000   1.0000   1.0000   1.0000   1.0000
     1.0000   1.0000   1.0000   1.0000

          k = 0.0000 0.7698 0.0748 (  7929 PWs)   bands (ev):

    -6.8784  -6.6938  -6.5352  -6.4788  -6.3545  -6.2538  -6.1948  -6.0605
    -6.0574  -5.9938  -5.9329  -5.9129   4.6484   4.7305   4.7592   4.7677
     4.8001   4.9105   4.9517   4.9877   5.0120   5.1847   5.4489   5.4863
     6.0192   6.0407   6.0431   6.0995   6.1230   6.1367   6.1386   6.1578
     6.1655   6.2011   6.2367   6.2831   6.3233   6.4631   6.5262   6.6658
     6.6662   6.7298   6.7500   6.7663   6.8597   6.8792   6.9862   7.1426
     8.0488   8.1934   8.3507   8.3717   8.3740   8.4634   8.4993   8.5439
     8.5486   8.6214   8.6465   8.6543   8.6706   8.7839   8.8580   8.8771
     8.9160   8.9424   8.9520   8.9617   8.9750   8.9758   9.1169   9.1867
     9.3171   9.3930   9.6375   9.6388   9.6593   9.9644   9.9975  10.0388
    10.1010  10.2415  10.3554  10.4042  10.6903  10.6979  10.7337  10.7436
    10.8689  11.3417  11.3501  11.4248  11.4278  11.5453  11.7356  11.8499
    12.0284  12.1186  12.3105  12.5368  12.5695  12.7855  12.7967  12.8669
    12.9739  13.0480  13.1798  13.2304

     occupation numbers 
     1.0000   1.0000   1.0000   1.0000   1.0000   1.0000   1.0000   1.0000
     1.0000   1.0000   1.0000   1.0000   1.0000   1.0000   1.0000   1.0000
     1.0000   1.0000   1.0000   1.0000   1.0000   1.0000   1.0000   1.0000
     1.0000   1.0000   1.0000   1.0000   1.0000   1.0000   1.0000   1.0000
     1.0000   1.0000   1.0000   1.0000   1.0000   1.0000   1.0000   1.0000
     1.0000   1.0000   1.0000   1.0000   1.0000   1.0000   1.0000   1.0000
     1.0000   1.0000   1.0000   1.0000   1.0000   1.0000   1.0000   1.0000
     1.0000   1.0000   1.0000   1.0000   1.0000   1.0000   1.0000   1.0000
     1.0000   1.0000   1.0000   1.0000   1.0000   1.0000   1.0000   1.0000
     1.0000   1.0000   1.0000   1.0000   1.0000   1.0000   1.0000   1.0000
     1.0000   1.0000   1.0000   1.0000   1.0000   1.0000   1.0000   1.0000
     1.0000   1.0000   1.0000   1.0000   1.0000   1.0000   1.0000   1.0000
     1.0000   1.0000   1.0000   1.0000   1.0000   1.0000   1.0000   1.0000
     1.0000   1.0000   1.0000   1.0000

          k = 0.0000 0.7698 0.1496 (  7924 PWs)   bands (ev):

    -6.8538  -6.7598  -6.4619  -6.4485  -6.3982  -6.2754  -6.2013  -6.1030
    -6.0038  -5.9699  -5.9400  -5.9312   4.6219   4.6626   4.7183   4.7379
     4.8393   4.9556   4.9989   5.0956   5.1439   5.1441   5.3799   5.3860
     6.0162   6.0314   6.0551   6.0844   6.1323   6.1421   6.1593   6.1610
     6.1712   6.1832   6.2157   6.2665   6.3351   6.4579   6.5434   6.6604
     6.7033   6.7055   6.7308   6.7853   6.8315   6.9265   6.9532   7.0926
     8.0997   8.2067   8.2576   8.3085   8.4747   8.4869   8.5185   8.5514
     8.6253   8.6335   8.6377   8.6616   8.7436   8.7771   8.8073   8.8903
     8.9386   8.9386   8.9512   8.9530   8.9719   9.0025   9.0753   9.1594
     9.3152   9.3231   9.6741   9.7060   9.7474   9.8308   9.9287   9.9507
    10.1980  10.3470  10.3550  10.3707  10.5374  10.5999  10.8201  10.9359
    10.9529  11.1832  11.1839  11.2953  11.3680  11.3850  11.9410  12.1494
    12.1820  12.3026  12.3470  12.3519  12.5856  12.7102  12.7172  12.7654
    12.9993  13.0951  13.1831  13.1863

     occupation numbers 
     1.0000   1.0000   1.0000   1.0000   1.0000   1.0000   1.0000   1.0000
     1.0000   1.0000   1.0000   1.0000   1.0000   1.0000   1.0000   1.0000
     1.0000   1.0000   1.0000   1.0000   1.0000   1.0000   1.0000   1.0000
     1.0000   1.0000   1.0000   1.0000   1.0000   1.0000   1.0000   1.0000
     1.0000   1.0000   1.0000   1.0000   1.0000   1.0000   1.0000   1.0000
     1.0000   1.0000   1.0000   1.0000   1.0000   1.0000   1.0000   1.0000
     1.0000   1.0000   1.0000   1.0000   1.0000   1.0000   1.0000   1.0000
     1.0000   1.0000   1.0000   1.0000   1.0000   1.0000   1.0000   1.0000
     1.0000   1.0000   1.0000   1.0000   1.0000   1.0000   1.0000   1.0000
     1.0000   1.0000   1.0000   1.0000   1.0000   1.0000   1.0000   1.0000
     1.0000   1.0000   1.0000   1.0000   1.0000   1.0000   1.0000   1.0000
     1.0000   1.0000   1.0000   1.0000   1.0000   1.0000   1.0000   1.0000
     1.0000   1.0000   1.0000   1.0000   1.0000   1.0000   1.0000   1.0000
     1.0000   1.0000   1.0000   1.0000

          k = 0.0000 0.7698-0.2244 (  7944 PWs)   bands (ev):

    -6.8138  -6.8138  -6.4346  -6.4346  -6.3609  -6.3609  -6.1504  -6.1504
    -5.9615  -5.9615  -5.9522  -5.9522   4.6260   4.6260   4.7104   4.7104
     4.9045   4.9045   5.0800   5.0800   5.2470   5.2470   5.2729   5.2729
     6.0206   6.0206   6.0699   6.0699   6.1483   6.1483   6.1503   6.1503
     6.1884   6.1884   6.2195   6.2195   6.3936   6.3936   6.6265   6.6265
     6.6730   6.6730   6.7874   6.7874   6.8535   6.8535   7.0265   7.0265
     8.1720   8.1720   8.2493   8.2493   8.4933   8.4933   8.5814   8.5814
     8.5936   8.5936   8.7025   8.7025   8.7262   8.7262   8.8882   8.8882
     8.9176   8.9176   8.9435   8.9435   9.0365   9.0365   9.0561   9.0561
     9.3152   9.3152   9.7278   9.7278   9.8195   9.8195   9.8446   9.8446
    10.3468  10.3468  10.3495  10.3495  10.4910  10.4910  10.9732  10.9732
    11.0428  11.0428  11.1644  11.1644  11.3312  11.3312  12.1466  12.1466
    12.2486  12.2486  12.4957  12.4957  12.5584  12.5584  12.6400  12.6400
    13.1055  13.1055  13.1499  13.1499

     occupation numbers 
     1.0000   1.0000   1.0000   1.0000   1.0000   1.0000   1.0000   1.0000
     1.0000   1.0000   1.0000   1.0000   1.0000   1.0000   1.0000   1.0000
     1.0000   1.0000   1.0000   1.0000   1.0000   1.0000   1.0000   1.0000
     1.0000   1.0000   1.0000   1.0000   1.0000   1.0000   1.0000   1.0000
     1.0000   1.0000   1.0000   1.0000   1.0000   1.0000   1.0000   1.0000
     1.0000   1.0000   1.0000   1.0000   1.0000   1.0000   1.0000   1.0000
     1.0000   1.0000   1.0000   1.0000   1.0000   1.0000   1.0000   1.0000
     1.0000   1.0000   1.0000   1.0000   1.0000   1.0000   1.0000   1.0000
     1.0000   1.0000   1.0000   1.0000   1.0000   1.0000   1.0000   1.0000
     1.0000   1.0000   1.0000   1.0000   1.0000   1.0000   1.0000   1.0000
     1.0000   1.0000   1.0000   1.0000   1.0000   1.0000   1.0000   1.0000
     1.0000   1.0000   1.0000   1.0000   1.0000   1.0000   1.0000   1.0000
     1.0000   1.0000   1.0000   1.0000   1.0000   1.0000   1.0000   1.0000
     1.0000   1.0000   1.0000   1.0000

          k = 0.0000-1.1547 0.0000 (  7944 PWs)   bands (ev):

    -6.4630  -6.4630  -6.2914  -6.2914  -6.2914  -6.2914  -6.0272  -6.0272
    -6.0272  -6.0272  -5.9437  -5.9437   4.6165   4.6165   4.6165   4.6165
     4.6649   4.6649   4.6649   4.6649   5.0854   5.0854   5.1063   5.1063
     6.1742   6.1742   6.2596   6.2596   6.2596   6.2596   6.2939   6.2939
     6.3447   6.3447   6.3447   6.3447   6.5548   6.5548   6.5548   6.5548
     6.8299   6.8299   6.8299   6.8300   6.9406   6.9407   7.2027   7.2027
     8.3637   8.3637   8.7036   8.7036   8.7335   8.7335   8.7335   8.7335
     8.7373   8.7373   8.7373   8.7373   8.8343   8.8343   8.8343   8.8343
     8.9825   8.9825   9.0188   9.0188   9.0188   9.0188   9.0237   9.0237
     9.2558   9.2558   9.4646   9.4646   9.4646   9.4646   9.6098   9.6098
     9.6098   9.6098   9.7775   9.7775  10.1447  10.1447  10.3584  10.3584
    11.0129  11.0129  11.0129  11.0129  11.7205  11.7205  11.7205  11.7205
    12.3082  12.3082  12.3083  12.3083  12.4687  12.4688  12.8077  12.8077
    12.8077  12.8078  12.8786  12.8786

     occupation numbers 
     1.0000   1.0000   1.0000   1.0000   1.0000   1.0000   1.0000   1.0000
     1.0000   1.0000   1.0000   1.0000   1.0000   1.0000   1.0000   1.0000
     1.0000   1.0000   1.0000   1.0000   1.0000   1.0000   1.0000   1.0000
     1.0000   1.0000   1.0000   1.0000   1.0000   1.0000   1.0000   1.0000
     1.0000   1.0000   1.0000   1.0000   1.0000   1.0000   1.0000   1.0000
     1.0000   1.0000   1.0000   1.0000   1.0000   1.0000   1.0000   1.0000
     1.0000   1.0000   1.0000   1.0000   1.0000   1.0000   1.0000   1.0000
     1.0000   1.0000   1.0000   1.0000   1.0000   1.0000   1.0000   1.0000
     1.0000   1.0000   1.0000   1.0000   1.0000   1.0000   1.0000   1.0000
     1.0000   1.0000   1.0000   1.0000   1.0000   1.0000   1.0000   1.0000
     1.0000   1.0000   1.0000   1.0000   1.0000   1.0000   1.0000   1.0000
     1.0000   1.0000   1.0000   1.0000   1.0000   1.0000   1.0000   1.0000
     1.0000   1.0000   1.0000   1.0000   1.0000   1.0000   1.0000   1.0000
     1.0000   1.0000   1.0000   1.0000

          k = 0.0000-1.1547 0.0748 (  7936 PWs)   bands (ev):

    -6.4575  -6.4575  -6.3381  -6.3381  -6.2421  -6.2420  -6.0608  -6.0608
    -5.9998  -5.9997  -5.9457  -5.9457   4.5458   4.5458   4.5848   4.5848
     4.7117   4.7117   4.7593   4.7593   5.0690   5.0690   5.0845   5.0845
     6.1787   6.1787   6.2469   6.2469   6.2835   6.2835   6.2872   6.2872
     6.2925   6.2925   6.4067   6.4067   6.4821   6.4821   6.6348   6.6348
     6.7355   6.7356   6.9225   6.9225   6.9234   6.9234   7.1892   7.1892
     8.3828   8.3829   8.6615   8.6615   8.7045   8.7046   8.7275   8.7275
     8.7486   8.7486   8.7990   8.7990   8.8120   8.8120   8.8599   8.8599
     8.9736   8.9736   8.9896   8.9896   9.0297   9.0297   9.0397   9.0397
     9.2626   9.2626   9.4177   9.4177   9.5047   9.5047   9.5953   9.5953
     9.6268   9.6268   9.7587   9.7587  10.1775  10.1775  10.4194  10.4194
    10.7939  10.7939  11.2404  11.2404  11.4051  11.4051  12.0237  12.0238
    12.1206  12.1206  12.4746  12.4746  12.4887  12.4887  12.7783  12.7783
    12.7799  12.7800  12.8616  12.8616

     occupation numbers 
     1.0000   1.0000   1.0000   1.0000   1.0000   1.0000   1.0000   1.0000
     1.0000   1.0000   1.0000   1.0000   1.0000   1.0000   1.0000   1.0000
     1.0000   1.0000   1.0000   1.0000   1.0000   1.0000   1.0000   1.0000
     1.0000   1.0000   1.0000   1.0000   1.0000   1.0000   1.0000   1.0000
     1.0000   1.0000   1.0000   1.0000   1.0000   1.0000   1.0000   1.0000
     1.0000   1.0000   1.0000   1.0000   1.0000   1.0000   1.0000   1.0000
     1.0000   1.0000   1.0000   1.0000   1.0000   1.0000   1.0000   1.0000
     1.0000   1.0000   1.0000   1.0000   1.0000   1.0000   1.0000   1.0000
     1.0000   1.0000   1.0000   1.0000   1.0000   1.0000   1.0000   1.0000
     1.0000   1.0000   1.0000   1.0000   1.0000   1.0000   1.0000   1.0000
     1.0000   1.0000   1.0000   1.0000   1.0000   1.0000   1.0000   1.0000
     1.0000   1.0000   1.0000   1.0000   1.0000   1.0000   1.0000   1.0000
     1.0000   1.0000   1.0000   1.0000   1.0000   1.0000   1.0000   1.0000
     1.0000   1.0000   1.0000   1.0000

          k = 0.0000-1.1547 0.1496 (  7924 PWs)   bands (ev):

    -6.4412  -6.4412  -6.3799  -6.3799  -6.1924  -6.1924  -6.1001  -6.1001
    -5.9784  -5.9783  -5.9518  -5.9518   4.5061   4.5061   4.5277   4.5277
     4.8206   4.8206   4.8574   4.8574   5.0216   5.0216   5.0222   5.0222
     6.1929   6.1929   6.2457   6.2457   6.2497   6.2497   6.2713   6.2713
     6.3182   6.3182   6.4177   6.4177   6.4780   6.4780   6.6439   6.6439
     6.7185   6.7185   6.8724   6.8724   7.0115   7.0115   7.1501   7.1501
     8.4345   8.4345   8.5839   8.5839   8.7075   8.7075   8.7192   8.7192
     8.7617   8.7617   8.7930   8.7930   8.8574   8.8574   8.8891   8.8891
     8.9507   8.9507   8.9527   8.9527   9.0424   9.0424   9.0509   9.0509
     9.2840   9.2840   9.3674   9.3674   9.5368   9.5368   9.5802   9.5802
     9.6493   9.6493   9.7191   9.7191  10.2709  10.2709  10.5824  10.5824
    10.5910  10.5910  11.0970  11.0970  11.4705  11.4705  11.9154  11.9154
    12.2962  12.2962  12.5445  12.5445  12.6157  12.6157  12.6846  12.6846
    12.7096  12.7096  12.8114  12.8114

     occupation numbers 
     1.0000   1.0000   1.0000   1.0000   1.0000   1.0000   1.0000   1.0000
     1.0000   1.0000   1.0000   1.0000   1.0000   1.0000   1.0000   1.0000
     1.0000   1.0000   1.0000   1.0000   1.0000   1.0000   1.0000   1.0000
     1.0000   1.0000   1.0000   1.0000   1.0000   1.0000   1.0000   1.0000
     1.0000   1.0000   1.0000   1.0000   1.0000   1.0000   1.0000   1.0000
     1.0000   1.0000   1.0000   1.0000   1.0000   1.0000   1.0000   1.0000
     1.0000   1.0000   1.0000   1.0000   1.0000   1.0000   1.0000   1.0000
     1.0000   1.0000   1.0000   1.0000   1.0000   1.0000   1.0000   1.0000
     1.0000   1.0000   1.0000   1.0000   1.0000   1.0000   1.0000   1.0000
     1.0000   1.0000   1.0000   1.0000   1.0000   1.0000   1.0000   1.0000
     1.0000   1.0000   1.0000   1.0000   1.0000   1.0000   1.0000   1.0000
     1.0000   1.0000   1.0000   1.0000   1.0000   1.0000   1.0000   1.0000
     1.0000   1.0000   1.0000   1.0000   1.0000   1.0000   1.0000   1.0000
     1.0000   1.0000   1.0000   1.0000

          k = 0.0000-1.1547-0.2244 (  7936 PWs)   bands (ev):

    -6.4149  -6.4149  -6.4149  -6.4149  -6.1445  -6.1445  -6.1445  -6.1445
    -5.9626  -5.9626  -5.9626  -5.9625   4.5003   4.5003   4.5003   4.5003
     4.9294   4.9294   4.9294   4.9294   4.9483   4.9483   4.9483   4.9483
     6.2164   6.2164   6.2164   6.2164   6.2550   6.2550   6.2550   6.2550
     6.3630   6.3630   6.3630   6.3630   6.5574   6.5574   6.5574   6.5574
     6.8005   6.8005   6.8005   6.8005   7.0889   7.0889   7.0889   7.0890
     8.5055   8.5055   8.5056   8.5056   8.7123   8.7123   8.7123   8.7123
     8.7764   8.7764   8.7764   8.7764   8.9087   8.9087   8.9087   8.9087
     8.9205   8.9205   8.9205   8.9205   9.0515   9.0515   9.0515   9.0515
     9.3203   9.3203   9.3203   9.3203   9.5615   9.5615   9.5615   9.5615
     9.6800   9.6800   9.6800   9.6800  10.4130  10.4130  10.4130  10.4130
    10.8160  10.8160  10.8160  10.8160  11.6971  11.6972  11.6972  11.6972
    12.5208  12.5208  12.5208  12.5208  12.6242  12.6242  12.6242  12.6242
    12.7288  12.7288  12.7288  12.7288

     occupation numbers 
     1.0000   1.0000   1.0000   1.0000   1.0000   1.0000   1.0000   1.0000
     1.0000   1.0000   1.0000   1.0000   1.0000   1.0000   1.0000   1.0000
     1.0000   1.0000   1.0000   1.0000   1.0000   1.0000   1.0000   1.0000
     1.0000   1.0000   1.0000   1.0000   1.0000   1.0000   1.0000   1.0000
     1.0000   1.0000   1.0000   1.0000   1.0000   1.0000   1.0000   1.0000
     1.0000   1.0000   1.0000   1.0000   1.0000   1.0000   1.0000   1.0000
     1.0000   1.0000   1.0000   1.0000   1.0000   1.0000   1.0000   1.0000
     1.0000   1.0000   1.0000   1.0000   1.0000   1.0000   1.0000   1.0000
     1.0000   1.0000   1.0000   1.0000   1.0000   1.0000   1.0000   1.0000
     1.0000   1.0000   1.0000   1.0000   1.0000   1.0000   1.0000   1.0000
     1.0000   1.0000   1.0000   1.0000   1.0000   1.0000   1.0000   1.0000
     1.0000   1.0000   1.0000   1.0000   1.0000   1.0000   1.0000   1.0000
     1.0000   1.0000   1.0000   1.0000   1.0000   1.0000   1.0000   1.0000
     1.0000   1.0000   1.0000   1.0000

          k = 0.1667 0.0962 0.0000 (  7946 PWs)   bands (ev):

    -7.7054  -7.3142  -7.3142  -6.5944  -6.4945  -6.4945  -6.3885  -6.3885
    -6.0718  -6.0445  -6.0445  -5.9174   4.6216   4.6216   4.7230   4.7230
     4.9647   4.9647   4.9716   5.2852   5.3133   5.3323   5.3324   5.6937
     5.8525   5.8833   5.8833   5.8884   5.8884   5.9884   6.0537   6.0537
     6.0901   6.0901   6.1621   6.2063   6.2255   6.2255   6.2601   6.2688
     6.3182   6.3182   6.5131   6.5131   6.7642   6.7642   6.9292   7.1030
     8.2297   8.2637   8.2947   8.4741   8.4741   8.4851   8.4851   8.5969
     8.5969   8.6193   8.6825   8.6825   8.7229   8.7964   8.7964   8.8049
     8.8049   8.8339   8.8339   8.8408   8.8627   8.9761   8.9939   8.9939
     9.2654   9.3531   9.5638   9.5638  10.0549  10.0549  10.1610  10.3530
    10.5608  10.8634  10.8634  11.1599  11.1599  11.6443  11.6443  12.2505
    12.3953  12.4207  12.4208  12.6362  12.6577  12.6577  12.8145  12.8145
    12.8180  12.8180  12.9088  12.9088  12.9815  13.6324  13.6324  13.6684
    13.6684  13.7352  14.0686  14.0803

     occupation numbers 
     1.0000   1.0000   1.0000   1.0000   1.0000   1.0000   1.0000   1.0000
     1.0000   1.0000   1.0000   1.0000   1.0000   1.0000   1.0000   1.0000
     1.0000   1.0000   1.0000   1.0000   1.0000   1.0000   1.0000   1.0000
     1.0000   1.0000   1.0000   1.0000   1.0000   1.0000   1.0000   1.0000
     1.0000   1.0000   1.0000   1.0000   1.0000   1.0000   1.0000   1.0000
     1.0000   1.0000   1.0000   1.0000   1.0000   1.0000   1.0000   1.0000
     1.0000   1.0000   1.0000   1.0000   1.0000   1.0000   1.0000   1.0000
     1.0000   1.0000   1.0000   1.0000   1.0000   1.0000   1.0000   1.0000
     1.0000   1.0000   1.0000   1.0000   1.0000   1.0000   1.0000   1.0000
     1.0000   1.0000   1.0000   1.0000   1.0000   1.0000   1.0000   1.0000
     1.0000   1.0000   1.0000   1.0000   1.0000   1.0000   1.0000   1.0000
     1.0000   1.0000   1.0000   1.0000   1.0000   1.0000   1.0000   1.0000
     1.0000   1.0000   1.0000   1.0000   1.0000   1.0000   1.0000   1.0000
     1.0000   1.0000   1.0000   1.0000

          k = 0.1667 0.0962 0.0748 (  7941 PWs)   bands (ev):

    -7.6937  -7.4273  -7.1878  -6.6268  -6.5879  -6.4455  -6.3743  -6.3275
    -6.0915  -6.0846  -6.0048  -5.9208   4.5632   4.6301   4.6977   4.8382
     4.9580   4.9593   5.0001   5.2220   5.2644   5.2858   5.4427   5.6866
     5.8531   5.8739   5.8824   5.8944   5.9086   5.9779   6.0131   6.0459
     6.0943   6.1349   6.1665   6.2016   6.2154   6.2468   6.2543   6.2624
     6.2700   6.3749   6.4398   6.5945   6.6775   6.8498   6.9076   7.0909
     8.2382   8.2711   8.3025   8.4100   8.4262   8.5190   8.5405   8.5465
     8.6212   8.6638   8.6746   8.7033   8.7607   8.7656   8.7683   8.8050
     8.8233   8.8315   8.8452   8.8622   8.8639   8.9448   8.9693   9.0286
     9.2630   9.4062   9.4497   9.6699   9.9958  10.1050  10.1670  10.3819
    10.4830  10.5844  10.9511  11.2460  11.3322  11.3788  11.9606  12.2365
    12.2626  12.4080  12.5415  12.5508  12.5840  12.6564  12.6962  12.8113
    12.8462  12.9082  12.9531  12.9649  13.0317  13.4684  13.5358  13.6892
    13.7801  13.7874  14.0671  14.0680

     occupation numbers 
     1.0000   1.0000   1.0000   1.0000   1.0000   1.0000   1.0000   1.0000
     1.0000   1.0000   1.0000   1.0000   1.0000   1.0000   1.0000   1.0000
     1.0000   1.0000   1.0000   1.0000   1.0000   1.0000   1.0000   1.0000
     1.0000   1.0000   1.0000   1.0000   1.0000   1.0000   1.0000   1.0000
     1.0000   1.0000   1.0000   1.0000   1.0000   1.0000   1.0000   1.0000
     1.0000   1.0000   1.0000   1.0000   1.0000   1.0000   1.0000   1.0000
     1.0000   1.0000   1.0000   1.0000   1.0000   1.0000   1.0000   1.0000
     1.0000   1.0000   1.0000   1.0000   1.0000   1.0000   1.0000   1.0000
     1.0000   1.0000   1.0000   1.0000   1.0000   1.0000   1.0000   1.0000
     1.0000   1.0000   1.0000   1.0000   1.0000   1.0000   1.0000   1.0000
     1.0000   1.0000   1.0000   1.0000   1.0000   1.0000   1.0000   1.0000
     1.0000   1.0000   1.0000   1.0000   1.0000   1.0000   1.0000   1.0000
     1.0000   1.0000   1.0000   1.0000   1.0000   1.0000   1.0000   1.0000
     1.0000   1.0000   1.0000   1.0000

          k = 0.1667 0.0962 0.1496 (  7941 PWs)   bands (ev):

    -7.6589  -7.5240  -7.0517  -6.7668  -6.5687  -6.4959  -6.2701  -6.2650
    -6.1449  -6.1229  -5.9727  -5.9309   4.5316   4.5650   4.7801   4.9185
     4.9670   4.9853   5.0601   5.1220   5.2087   5.2089   5.5407   5.6625
     5.8547   5.8641   5.8939   5.9143   5.9348   5.9506   5.9751   6.0044
     6.1319   6.1774   6.1793   6.1874   6.2157   6.2309   6.2402   6.2438
     6.2791   6.3760   6.4402   6.5929   6.6817   6.8494   6.9302   7.0556
     8.2626   8.2927   8.3302   8.3512   8.3726   8.4447   8.6057   8.6072
     8.6267   8.6482   8.7165   8.7219   8.7263   8.7499   8.7772   8.8419
     8.8478   8.8521   8.8596   8.8694   8.8863   8.8946   8.9507   9.0342
     9.2601   9.3419   9.5624   9.7657   9.9280  10.1243  10.1442  10.1750
    10.4653  10.6660  10.7598  11.0495  11.6015  11.6156  12.0355  12.2571
    12.2736  12.2985  12.4394  12.4456  12.5916  12.7115  12.7136  12.7229
    12.8602  12.9154  12.9618  13.0973  13.2327  13.2969  13.3934  13.5722
    13.8893  13.9028  14.0314  14.0475

     occupation numbers 
     1.0000   1.0000   1.0000   1.0000   1.0000   1.0000   1.0000   1.0000
     1.0000   1.0000   1.0000   1.0000   1.0000   1.0000   1.0000   1.0000
     1.0000   1.0000   1.0000   1.0000   1.0000   1.0000   1.0000   1.0000
     1.0000   1.0000   1.0000   1.0000   1.0000   1.0000   1.0000   1.0000
     1.0000   1.0000   1.0000   1.0000   1.0000   1.0000   1.0000   1.0000
     1.0000   1.0000   1.0000   1.0000   1.0000   1.0000   1.0000   1.0000
     1.0000   1.0000   1.0000   1.0000   1.0000   1.0000   1.0000   1.0000
     1.0000   1.0000   1.0000   1.0000   1.0000   1.0000   1.0000   1.0000
     1.0000   1.0000   1.0000   1.0000   1.0000   1.0000   1.0000   1.0000
     1.0000   1.0000   1.0000   1.0000   1.0000   1.0000   1.0000   1.0000
     1.0000   1.0000   1.0000   1.0000   1.0000   1.0000   1.0000   1.0000
     1.0000   1.0000   1.0000   1.0000   1.0000   1.0000   1.0000   1.0000
     1.0000   1.0000   1.0000   1.0000   1.0000   1.0000   1.0000   1.0000
     1.0000   1.0000   1.0000   1.0000

          k = 0.1667 0.0962-0.2244 (  7930 PWs)   bands (ev):

    -7.6019  -7.6019  -6.9099  -6.9099  -6.5376  -6.5376  -6.2034  -6.2033
    -6.1854  -6.1854  -5.9481  -5.9481   4.5318   4.5318   4.8569   4.8569
     5.0410   5.0410   5.0962   5.0962   5.1347   5.1347   5.6155   5.6155
     5.8580   5.8580   5.9185   5.9185   5.9415   5.9415   5.9669   5.9669
     6.1637   6.1637   6.2008   6.2008   6.2145   6.2145   6.2252   6.2252
     6.3224   6.3224   6.5134   6.5134   6.7695   6.7695   7.0004   7.0004
     8.3010   8.3010   8.3272   8.3273   8.3794   8.3794   8.6358   8.6358
     8.6647   8.6647   8.6670   8.6670   8.7511   8.7511   8.8210   8.8210
     8.8534   8.8534   8.8539   8.8540   8.9246   8.9246   8.9794   8.9794
     9.2756   9.2756   9.8092   9.8092   9.8517   9.8517  10.1688  10.1688
    10.5946  10.5946  10.8215  10.8215  11.8222  11.8222  11.9606  11.9606
    12.3578  12.3578  12.5073  12.5073  12.5137  12.5137  12.7866  12.7866
    12.8341  12.8342  13.1258  13.1258  13.2456  13.2456  13.4147  13.4147
    13.9713  13.9713  13.9936  13.9936

     occupation numbers 
     1.0000   1.0000   1.0000   1.0000   1.0000   1.0000   1.0000   1.0000
     1.0000   1.0000   1.0000   1.0000   1.0000   1.0000   1.0000   1.0000
     1.0000   1.0000   1.0000   1.0000   1.0000   1.0000   1.0000   1.0000
     1.0000   1.0000   1.0000   1.0000   1.0000   1.0000   1.0000   1.0000
     1.0000   1.0000   1.0000   1.0000   1.0000   1.0000   1.0000   1.0000
     1.0000   1.0000   1.0000   1.0000   1.0000   1.0000   1.0000   1.0000
     1.0000   1.0000   1.0000   1.0000   1.0000   1.0000   1.0000   1.0000
     1.0000   1.0000   1.0000   1.0000   1.0000   1.0000   1.0000   1.0000
     1.0000   1.0000   1.0000   1.0000   1.0000   1.0000   1.0000   1.0000
     1.0000   1.0000   1.0000   1.0000   1.0000   1.0000   1.0000   1.0000
     1.0000   1.0000   1.0000   1.0000   1.0000   1.0000   1.0000   1.0000
     1.0000   1.0000   1.0000   1.0000   1.0000   1.0000   1.0000   1.0000
     1.0000   1.0000   1.0000   1.0000   1.0000   1.0000   1.0000   1.0000
     1.0000   1.0000   1.0000   1.0000

          k = 0.1667 0.4811 0.0000 (  7921 PWs)   bands (ev):

    -7.3284  -6.9866  -6.9866  -6.7574  -6.5141  -6.5141  -6.3015  -6.3015
    -6.0798  -6.0798  -5.9695  -5.9014   4.8234   4.8234   4.8873   4.8873
     4.9024   4.9025   5.0236   5.0236   5.1477   5.2950   5.4971   5.5396
     5.9976   5.9976   6.0239   6.0421   6.0421   6.0476   6.0476   6.0909
     6.0909   6.1029   6.1189   6.1841   6.1841   6.2292   6.3067   6.3361
     6.3362   6.5225   6.5225   6.5455   6.6840   6.6840   6.7940   6.9639
     8.0205   8.0710   8.2773   8.3316   8.4052   8.4052   8.4178   8.4179
     8.4963   8.4963   8.6517   8.6517   8.7542   8.8029   8.8076   8.8076
     8.8644   8.8644   8.8729   8.8729   8.9145   8.9648   8.9892   8.9892
     9.5482   9.5960   9.9942   9.9942  10.1075  10.2872  10.6354  10.6354
    10.8635  10.8635  11.0185  11.0185  11.0221  11.2550  11.4665  11.4665
    11.5201  11.5667  11.5667  11.9223  11.9223  12.1956  12.1956  12.2492
    12.2492  12.6163  12.7874  12.8835  13.0424  13.0425  13.1402  13.1402
    13.3674  13.3675  13.6240  13.6370

     occupation numbers 
     1.0000   1.0000   1.0000   1.0000   1.0000   1.0000   1.0000   1.0000
[...]
     xc contribution           =    -663.66440358 Ry
     ewald contribution        =   -1476.04187079 Ry

     convergence has been achieved in  21 iterations

     Forces acting on atoms (cartesian axes, Ry/au):

     atom    1 type  1   force =     0.00001874    0.00001082   -0.15379295
     atom    2 type  1   force =    -0.00001675   -0.00000967   -0.15379176
     atom    3 type  2   force =    -0.00000298   -0.00000172    0.15379878
     atom    4 type  2   force =     0.00000389    0.00000224    0.15380451
     atom    5 type  1   force =     0.00001823    0.00001053   -0.15379268
     atom    6 type  1   force =    -0.00001401   -0.00000809   -0.15380902
     atom    7 type  2   force =    -0.00000267   -0.00000154    0.15380518
     atom    8 type  2   force =     0.00000343    0.00000198    0.15379457
     atom    9 type  1   force =     0.00001909    0.00001102   -0.15380892
     atom   10 type  1   force =    -0.00001575   -0.00000909   -0.15380275
     atom   11 type  2   force =    -0.00000284   -0.00000164    0.15379389
     atom   12 type  2   force =     0.00000350    0.00000202    0.15379995
     atom   13 type  1   force =     0.00001486    0.00000858   -0.15379759
     atom   14 type  1   force =    -0.00001687   -0.00000974   -0.15379126
     atom   15 type  2   force =    -0.00000347   -0.00000200    0.15379939
     atom   16 type  2   force =     0.00000262    0.00000151    0.15380414
     atom   17 type  1   force =     0.00001491    0.00000861   -0.15379328
     atom   18 type  1   force =    -0.00001891   -0.00001092   -0.15380594
     atom   19 type  2   force =    -0.00000353   -0.00000204    0.15380460
     atom   20 type  2   force =     0.00000275    0.00000159    0.15379525
     atom   21 type  1   force =     0.00001395    0.00000806   -0.15380761
     atom   22 type  1   force =    -0.00001735   -0.00001002   -0.15380044
     atom   23 type  2   force =    -0.00000326   -0.00000188    0.15379359
     atom   24 type  2   force =     0.00000241    0.00000139    0.15380037
     The non-local contrib.  to forces
     atom    1 type  1   force =    -0.00002318   -0.00001338   -0.30119729
     atom    2 type  1   force =     0.00002373    0.00001370   -0.30118667
     atom    3 type  2   force =    -0.00012792   -0.00007386   -0.15046450
     atom    4 type  2   force =     0.00012876    0.00007434   -0.15045771
     atom    5 type  1   force =    -0.00002333   -0.00001347   -0.30118854
     atom    6 type  1   force =     0.00002406    0.00001389   -0.30118814
     atom    7 type  2   force =    -0.00012868   -0.00007429   -0.15045354
     atom    8 type  2   force =     0.00012837    0.00007411   -0.15046282
     atom    9 type  1   force =    -0.00002328   -0.00001344   -0.30119013
     atom   10 type  1   force =     0.00002356    0.00001360   -0.30120222
     atom   11 type  2   force =    -0.00012891   -0.00007443   -0.15046474
     atom   12 type  2   force =     0.00012902    0.00007449   -0.15046154
     atom   13 type  1   force =    -0.00002389   -0.00001379   -0.30119814
     atom   14 type  1   force =     0.00002306    0.00001332   -0.30118640
     atom   15 type  2   force =    -0.00012906   -0.00007451   -0.15046464
     atom   16 type  2   force =     0.00012879    0.00007436   -0.15045787
     atom   17 type  1   force =    -0.00002371   -0.00001369   -0.30118846
     atom   18 type  1   force =     0.00002305    0.00001331   -0.30118785
     atom   19 type  2   force =    -0.00012861   -0.00007425   -0.15045410
     atom   20 type  2   force =     0.00012773    0.00007375   -0.15046295
     atom   21 type  1   force =    -0.00002429   -0.00001402   -0.30118989
     atom   22 type  1   force =     0.00002364    0.00001365   -0.30120144
     atom   23 type  2   force =    -0.00012813   -0.00007398   -0.15046425
     atom   24 type  2   force =     0.00012781    0.00007379   -0.15046228
     The ionic contribution  to forces
     atom    1 type  1   force =    -0.00000000    0.00000000   -2.15847729
     atom    2 type  1   force =     0.00000000   -0.00000000   -2.15847724
     atom    3 type  2   force =    -0.00000000    0.00000000    2.15847727
     atom    4 type  2   force =     0.00000000   -0.00000000    2.15847726
     atom    5 type  1   force =    -0.00000000    0.00000000   -2.15847724
     atom    6 type  1   force =     0.00000000   -0.00000000   -2.15847729
     atom    7 type  2   force =    -0.00000000    0.00000000    2.15847726
     atom    8 type  2   force =     0.00000000   -0.00000000    2.15847729
     atom    9 type  1   force =    -0.00000000    0.00000000   -2.15847729
     atom   10 type  1   force =     0.00000000   -0.00000000   -2.15847729
     atom   11 type  2   force =    -0.00000000    0.00000000    2.15847729
     atom   12 type  2   force =     0.00000000   -0.00000000    2.15847727
     atom   13 type  1   force =    -0.00000000    0.00000000   -2.15847729
     atom   14 type  1   force =     0.00000000   -0.00000000   -2.15847724
     atom   15 type  2   force =    -0.00000000    0.00000000    2.15847727
     atom   16 type  2   force =     0.00000000   -0.00000000    2.15847726
     atom   17 type  1   force =    -0.00000000    0.00000000   -2.15847724
     atom   18 type  1   force =     0.00000000   -0.00000000   -2.15847729
     atom   19 type  2   force =    -0.00000000    0.00000000    2.15847726
     atom   20 type  2   force =     0.00000000   -0.00000000    2.15847729
     atom   21 type  1   force =    -0.00000000    0.00000000   -2.15847729
     atom   22 type  1   force =     0.00000000   -0.00000000   -2.15847729
     atom   23 type  2   force =    -0.00000000    0.00000000    2.15847729
     atom   24 type  2   force =     0.00000000   -0.00000000    2.15847727
     The local contribution  to forces
     atom    1 type  1   force =     0.00003866    0.00002232    2.27260974
     atom    2 type  1   force =    -0.00004073   -0.00002360    2.27261028
     atom    3 type  2   force =     0.00012290    0.00007095   -1.85475218
     atom    4 type  2   force =    -0.00012348   -0.00007131   -1.85475313
     atom    5 type  1   force =     0.00003897    0.00002250    2.27261358
     atom    6 type  1   force =    -0.00004477   -0.00002594    2.27261459
     atom    7 type  2   force =     0.00012390    0.00007153   -1.85474989
     atom    8 type  2   force =    -0.00012301   -0.00007104   -1.85475301
     atom    9 type  1   force =     0.00003792    0.00002189    2.27261567
     atom   10 type  1   force =    -0.00004178   -0.00002421    2.27262631
     atom   11 type  2   force =     0.00012273    0.00007086   -1.85475418
     atom   12 type  2   force =    -0.00012335   -0.00007124   -1.85474891
     atom   13 type  1   force =     0.00004344    0.00002508    2.27261642
     atom   14 type  1   force =    -0.00004105   -0.00002379    2.27260883
     atom   15 type  2   force =     0.00012362    0.00007137   -1.85475125
     atom   16 type  2   force =    -0.00012366   -0.00007142   -1.85475278
     atom   17 type  1   force =     0.00004326    0.00002498    2.27261471
     atom   18 type  1   force =    -0.00003738   -0.00002167    2.27261029
     atom   19 type  2   force =     0.00012317    0.00007111   -1.85474967
     atom   20 type  2   force =    -0.00012255   -0.00007078   -1.85475284
     atom   21 type  1   force =     0.00004462    0.00002576    2.27261440
     atom   22 type  1   force =    -0.00004042   -0.00002343    2.27262200
     atom   23 type  2   force =     0.00012415    0.00007168   -1.85475420
     atom   24 type  2   force =    -0.00012357   -0.00007136   -1.85474871
     The core correction contribution to forces
     atom    1 type  1   force =    -0.00000152   -0.00000088    0.03325349
     atom    2 type  1   force =     0.00000152    0.00000087    0.03325656
     atom    3 type  2   force =     0.00000143    0.00000082    0.00053548
     atom    4 type  2   force =    -0.00000143   -0.00000083    0.00053188
     atom    5 type  1   force =    -0.00000150   -0.00000086    0.03325650
     atom    6 type  1   force =     0.00000165    0.00000094    0.03324219
     atom    7 type  2   force =     0.00000143    0.00000083    0.00053183
     atom    8 type  2   force =    -0.00000143   -0.00000082    0.00053486
     atom    9 type  1   force =    -0.00000147   -0.00000085    0.03324230
     atom   10 type  1   force =     0.00000158    0.00000090    0.03325329
     atom   11 type  2   force =     0.00000144    0.00000083    0.00053488
     atom   12 type  2   force =    -0.00000144   -0.00000083    0.00053545
     atom   13 type  1   force =    -0.00000160   -0.00000092    0.03325334
     atom   14 type  1   force =     0.00000162    0.00000092    0.03325660
     atom   15 type  2   force =     0.00000144    0.00000083    0.00053549
     atom   16 type  2   force =    -0.00000144   -0.00000083    0.00053188
     atom   17 type  1   force =    -0.00000161   -0.00000093    0.03325647
     atom   18 type  1   force =     0.00000146    0.00000083    0.03324226
     atom   19 type  2   force =     0.00000143    0.00000083    0.00053184
     atom   20 type  2   force =    -0.00000142   -0.00000082    0.00053486
     atom   21 type  1   force =    -0.00000162   -0.00000093    0.03324231
     atom   22 type  1   force =     0.00000154    0.00000088    0.03325339
     atom   23 type  2   force =     0.00000143    0.00000082    0.00053487
     atom   24 type  2   force =    -0.00000142   -0.00000082    0.00053546
     The Hubbard contrib.    to forces
     atom    1 type  1   force =     0.00000000    0.00000000    0.00000000
     atom    2 type  1   force =     0.00000000    0.00000000    0.00000000
     atom    3 type  2   force =     0.00000000    0.00000000    0.00000000
     atom    4 type  2   force =     0.00000000    0.00000000    0.00000000
     atom    5 type  1   force =     0.00000000    0.00000000    0.00000000
     atom    6 type  1   force =     0.00000000    0.00000000    0.00000000
     atom    7 type  2   force =     0.00000000    0.00000000    0.00000000
     atom    8 type  2   force =     0.00000000    0.00000000    0.00000000
     atom    9 type  1   force =     0.00000000    0.00000000    0.00000000
     atom   10 type  1   force =     0.00000000    0.00000000    0.00000000
     atom   11 type  2   force =     0.00000000    0.00000000    0.00000000
     atom   12 type  2   force =     0.00000000    0.00000000    0.00000000
     atom   13 type  1   force =     0.00000000    0.00000000    0.00000000
     atom   14 type  1   force =     0.00000000    0.00000000    0.00000000
     atom   15 type  2   force =     0.00000000    0.00000000    0.00000000
     atom   16 type  2   force =     0.00000000    0.00000000    0.00000000
     atom   17 type  1   force =     0.00000000    0.00000000    0.00000000
     atom   18 type  1   force =     0.00000000    0.00000000    0.00000000
     atom   19 type  2   force =     0.00000000    0.00000000    0.00000000
     atom   20 type  2   force =     0.00000000    0.00000000    0.00000000
     atom   21 type  1   force =     0.00000000    0.00000000    0.00000000
     atom   22 type  1   force =     0.00000000    0.00000000    0.00000000
     atom   23 type  2   force =     0.00000000    0.00000000    0.00000000
     atom   24 type  2   force =     0.00000000    0.00000000    0.00000000
     The SCF correction term to forces
     atom    1 type  1   force =     0.00000478    0.00000276    0.00001940
     atom    2 type  1   force =    -0.00000123   -0.00000071    0.00000630
     atom    3 type  2   force =     0.00000062    0.00000036    0.00000369
     atom    4 type  2   force =     0.00000004    0.00000003    0.00000719
     atom    5 type  1   force =     0.00000409    0.00000236    0.00000399
     atom    6 type  1   force =     0.00000510    0.00000294    0.00000062
     atom    7 type  2   force =     0.00000067    0.00000039    0.00000052
     atom    8 type  2   force =    -0.00000049   -0.00000028   -0.00000076
     atom    9 type  1   force =     0.00000592    0.00000342    0.00000151
     atom   10 type  1   force =     0.00000093    0.00000054   -0.00000185
     atom   11 type  2   force =     0.00000191    0.00000110    0.00000162
     atom   12 type  2   force =    -0.00000072   -0.00000042   -0.00000135
     atom   13 type  1   force =    -0.00000309   -0.00000178    0.00000906
     atom   14 type  1   force =    -0.00000046   -0.00000026    0.00000795
     atom   15 type  2   force =     0.00000053    0.00000031    0.00000350
     atom   16 type  2   force =    -0.00000107   -0.00000062    0.00000663
     atom   17 type  1   force =    -0.00000303   -0.00000175    0.00000223
     atom   18 type  1   force =    -0.00000600   -0.00000346    0.00000763
     atom   19 type  2   force =     0.00000048    0.00000028    0.00000026
     atom   20 type  2   force =    -0.00000100   -0.00000058   -0.00000012
     atom   21 type  1   force =    -0.00000475   -0.00000275    0.00000385
     atom   22 type  1   force =    -0.00000206   -0.00000119    0.00000389
     atom   23 type  2   force =    -0.00000069   -0.00000040    0.00000086
     atom   24 type  2   force =    -0.00000040   -0.00000023   -0.00000040

     Total force =     0.753461     Total SCF correction =     0.000033

     init_run     :     18.38s CPU     11.18s WALL (       1 calls)
     electrons    :   1201.99s CPU    734.14s WALL (       1 calls)
     forces       :      8.00s CPU      4.72s WALL (       1 calls)

     Called by init_run:
     wfcinit      :     13.91s CPU      7.85s WALL (       1 calls)
     wfcinit:atom :      0.08s CPU      0.06s WALL (      10 calls)
     wfcinit:wfcr :     13.28s CPU      7.32s WALL (      10 calls)
     potinit      :      1.44s CPU      0.92s WALL (       1 calls)
     hinit0       :      2.69s CPU      2.12s WALL (       1 calls)

     Called by electrons:
     c_bands      :   1079.05s CPU    657.34s WALL (      21 calls)
     sum_band     :    112.26s CPU     69.45s WALL (      21 calls)
     v_of_rho     :      4.65s CPU      3.12s WALL (      22 calls)
     v_h          :      0.25s CPU      0.18s WALL (      22 calls)
     v_xc         :      4.61s CPU      3.08s WALL (      23 calls)
     newd         :      5.29s CPU      3.64s WALL (      22 calls)
     mix_rho      :      0.53s CPU      0.41s WALL (      21 calls)

     Called by c_bands:
     init_us_2    :      4.28s CPU      2.98s WALL (     440 calls)
     init_us_2:cp :      4.27s CPU      2.98s WALL (     440 calls)
     cegterg      :   1011.26s CPU    600.73s WALL (     210 calls)

     Called by sum_band:
     sum_band:wei :      0.02s CPU      0.02s WALL (      21 calls)
     sum_band:loo :    102.44s CPU     61.46s WALL (      21 calls)
     sum_band:buf :      0.62s CPU      0.37s WALL (     210 calls)
     sum_band:ini :      1.67s CPU      1.21s WALL (     210 calls)
     sum_band:cal :     17.94s CPU      9.46s WALL (     210 calls)
     sum_band:bec :      2.26s CPU      1.88s WALL (     210 calls)
     addusdens    :      5.84s CPU      4.42s WALL (      21 calls)
     addusd:skk   :      0.13s CPU      0.11s WALL (      42 calls)
     addusd:dgemm :      0.66s CPU      0.35s WALL (      42 calls)
     addusd:qvan2 :      2.90s CPU      2.12s WALL (      42 calls)

     Called by *egterg:
     cdiaghg      :     71.88s CPU     58.63s WALL (    1381 calls)
     cegterg:over :     73.28s CPU     39.46s WALL (    1171 calls)
     cegterg:upda :     46.65s CPU     27.29s WALL (    1171 calls)
     cegterg:last :     98.99s CPU     54.70s WALL (     751 calls)
     cdiaghg:chol :      3.44s CPU      2.92s WALL (    1381 calls)
     cdiaghg:inve :      1.14s CPU      0.94s WALL (    1381 calls)
     cdiaghg:para :     12.27s CPU      8.85s WALL (    2762 calls)
     h_psi        :    644.30s CPU    378.11s WALL (    1391 calls)
     s_psi        :     61.61s CPU     31.22s WALL (    1391 calls)
     g_psi        :      4.25s CPU      3.55s WALL (    1171 calls)

     Called by h_psi:
     h_psi:calbec :     72.16s CPU     37.74s WALL (    1391 calls)
     vloc_psi     :    507.40s CPU    305.94s WALL (    1391 calls)
     add_vuspsi   :     60.60s CPU     31.06s WALL (    1391 calls)

     General routines
     calbec       :     93.64s CPU     49.18s WALL (    1641 calls)
     fft          :      2.94s CPU      2.37s WALL (     295 calls)
     ffts         :      0.65s CPU      0.57s WALL (      43 calls)
     fftw         :    499.01s CPU    295.80s WALL (  191480 calls)
     interpolate  :      0.51s CPU      0.43s WALL (      22 calls)

     Parallel routines

     PWSCF        :  20m28.82s CPU  12m30.49s WALL


   This run was terminated on:  10:15:36   4Sep2025            

=------------------------------------------------------------------------------=
   JOB DONE.
=------------------------------------------------------------------------------=
Note: The following floating-point exceptions are signalling: IEEE_UNDERFLOW_FLAG IEEE_DENORMAL
Note: The following floating-point exceptions are signalling: IEEE_UNDERFLOW_FLAG IEEE_DENORMAL
Note: The following floating-point exceptions are signalling: IEEE_UNDERFLOW_FLAG IEEE_DENORMAL
Note: The following floating-point exceptions are signalling: IEEE_UNDERFLOW_FLAG IEEE_DENORMAL
Note: The following floating-point exceptions are signalling: IEEE_UNDERFLOW_FLAG IEEE_DENORMAL
Note: The following floating-point exceptions are signalling: IEEE_UNDERFLOW_FLAG IEEE_DENORMAL
Note: The following floating-point exceptions are signalling: IEEE_UNDERFLOW_FLAG IEEE_DENORMAL
Note: The following floating-point exceptions are signalling: IEEE_UNDERFLOW_FLAG IEEE_DENORMAL
Note: The following floating-point exceptions are signalling: IEEE_UNDERFLOW_FLAG IEEE_DENORMAL
Note: The following floating-point exceptions are signalling: IEEE_UNDERFLOW_FLAG IEEE_DENORMAL
Note: The following floating-point exceptions are signalling: IEEE_UNDERFLOW_FLAG IEEE_DENORMAL
Note: The following floating-point exceptions are signalling: IEEE_UNDERFLOW_FLAG IEEE_DENORMAL
Note: The following floating-point exceptions are signalling: IEEE_UNDERFLOW_FLAG IEEE_DENORMAL
Note: The following floating-point exceptions are signalling: IEEE_UNDERFLOW_FLAG IEEE_DENORMAL
Note: The following floating-point exceptions are signalling: IEEE_UNDERFLOW_FLAG IEEE_DENORMAL
Note: The following floating-point exceptions are signalling: IEEE_UNDERFLOW_FLAG IEEE_DENORMAL
Note: The following floating-point exceptions are signalling: IEEE_UNDERFLOW_FLAG IEEE_DENORMAL
Note: The following floating-point exceptions are signalling: IEEE_UNDERFLOW_FLAG IEEE_DENORMAL
Note: The following floating-point exceptions are signalling: IEEE_UNDERFLOW_FLAG IEEE_DENORMAL
Note: The following floating-point exceptions are signalling: IEEE_UNDERFLOW_FLAG IEEE_DENORMAL
Note: The following floating-point exceptions are signalling: IEEE_UNDERFLOW_FLAG IEEE_DENORMAL
Note: The following floating-point exceptions are signalling: IEEE_UNDERFLOW_FLAG IEEE_DENORMAL
Note: The following floating-point exceptions are signalling: IEEE_UNDERFLOW_FLAG IEEE_DENORMAL
Note: The following floating-point exceptions are signalling: IEEE_UNDERFLOW_FLAG IEEE_DENORMAL
Note: The following floating-point exceptions are signalling: IEEE_UNDERFLOW_FLAG IEEE_DENORMAL
Note: The following floating-point exceptions are signalling: IEEE_UNDERFLOW_FLAG IEEE_DENORMAL
Note: The following floating-point exceptions are signalling: IEEE_UNDERFLOW_FLAG IEEE_DENORMAL
Note: The following floating-point exceptions are signalling: IEEE_UNDERFLOW_FLAG IEEE_DENORMAL
Note: The following floating-point exceptions are signalling: IEEE_UNDERFLOW_FLAG IEEE_DENORMAL
Note: The following floating-point exceptions are signalling: IEEE_UNDERFLOW_FLAG IEEE_DENORMAL
Note: The following floating-point exceptions are signalling: IEEE_UNDERFLOW_FLAG IEEE_DENORMAL
Note: The following floating-point exceptions are signalling: IEEE_UNDERFLOW_FLAG IEEE_DENORMAL
