
     Program PWSCF v.7.0 starts on  4Sep2025 at 19:11: 7 

     This program is part of the open-source Quantum ESPRESSO suite
     for quantum simulation of materials; please cite
         "P. Giannozzi et al., J. Phys.:Condens. Matter 21 395502 (2009);
         "P. Giannozzi et al., J. Phys.:Condens. Matter 29 465901 (2017);
         "P. Giannozzi et al., J. Chem. Phys. 152 154105 (2020);
          URL http://www.quantum-espresso.org", 
     in publications or presentations arising from this work. More details at
     http://www.quantum-espresso.org/quote

     Parallel version (MPI & OpenMP), running on      64 processor cores
     Number of MPI processes:                32
     Threads/MPI process:                     2

     MPI processes distributed on     1 nodes
     K-points division:     npool     =       8
     R & G space division:  proc/nbgrp/npool/nimage =       4
     107817 MiB available memory on the printing compute node when the environment starts

     Reading input from /home/jvc/QEspresso7.2/ZnO_database/scripts/cell213.in/ZnO-3.14-1.45-213.in
Warning: card &CELL ignored
Warning: card / ignored
Warning: card &FCP ignored
Warning: card / ignored
Warning: card &RISM ignored
Warning: card / ignored

     Current dimensions of program PWSCF are:
     Max number of different atomic species (ntypx) = 10
     Max number of k-points (npk) =  40000
     Max angular momentum in pseudopotentials (lmaxx) =  4
     file Zn.upf: wavefunction(s)  3D renormalized
     Found identity + (  0.0000  0.0000  0.3333) symmetry
     This is a supercell, fractional translations are disabled
     Message from routine setup:
     using ibrav=0 with symmetry is DISCOURAGED, use correct ibrav instead

     Subspace diagonalization in iterative solution of the eigenvalue problem:
     one sub-group per band group will be used
     scalapack distributed-memory algorithm (size of sub-group:  2*  2 procs)


     Parallelization info
     --------------------
     sticks:   dense  smooth     PW     G-vecs:    dense   smooth      PW
     Min         482     245     74                53194    18837    3256
     Max         483     246     75                53202    18846    3265
     Sum        1929     981    299               212789    75361   13047

     Using Slab Decomposition



     bravais-lattice index     =            0
     lattice parameter (alat)  =      11.8634  a.u.
     unit-cell volume          =    1575.6575 (a.u.)^3
     number of atoms/cell      =           24
     number of atomic types    =            2
     number of electrons       =       216.00
     number of Kohn-Sham states=          108
     kinetic-energy cutoff     =      50.0000  Ry
     charge density cutoff     =     400.0000  Ry
     scf convergence threshold =      1.0E-08
     mixing beta               =       0.3000
     number of iterations used =            8  plain     mixing
     Exchange-correlation= PBE
                           (   1   4   3   4   0   0   0)

     celldm(1)=  11.863400  celldm(2)=   0.000000  celldm(3)=   0.000000
     celldm(4)=   0.000000  celldm(5)=   0.000000  celldm(6)=   0.000000

     crystal axes: (cart. coord. in units of alat)
               a(1) = (   1.000000   0.000000   0.000000 )  
               a(2) = (  -0.250000   0.433013   0.000000 )  
               a(3) = (   0.000000   0.000000   2.179384 )  

     reciprocal axes: (cart. coord. in units 2 pi/alat)
               b(1) = (  1.000000  0.577350 -0.000000 )  
               b(2) = (  0.000000  2.309401  0.000000 )  
               b(3) = (  0.000000 -0.000000  0.458845 )  


     PseudoPot. # 1 for Zn read from file:
     /home/jvc/QEspresso7.2/ZnO_database/pseudos/Zn.upf
     MD5 check sum: 7f56cabf9682ed8c977c2f7d0c5985c5
     Pseudo is Ultrasoft + core correction, Zval = 12.0
     Generated using &quot;atomic&quot; code by A. Dal Corso  v.6.2.2
     Using radial grid of 1201 points,  6 beta functions with: 
                l(1) =   0
                l(2) =   0
                l(3) =   1
                l(4) =   1
                l(5) =   2
                l(6) =   2
     Q(r) pseudized with 0 coefficients 


     PseudoPot. # 2 for O  read from file:
     /home/jvc/QEspresso7.2/ZnO_database/pseudos/O.upf
     MD5 check sum: 91400c9766925bcf19f520983a725ff0
     Pseudo is Ultrasoft + core correction, Zval =  6.0
     Generated using &quot;atomic&quot; code by A. Dal Corso  v.6.3MaX
     Using radial grid of 1095 points,  4 beta functions with: 
                l(1) =   0
                l(2) =   0
                l(3) =   1
                l(4) =   1
     Q(r) pseudized with 0 coefficients 


     atomic species   valence    mass     pseudopotential
        Zn            12.00    65.38000     Zn( 1.00)
        O              6.00    15.99900     O ( 1.00)

      2 Sym. Ops. (no inversion) found


                                    s                        frac. trans.

      isym =  1     identity                                     

 cryst.   s( 1) = (     1          0          0      )
                  (     0          1          0      )
                  (     0          0          1      )

 cart.    s( 1) = (  1.0000000  0.0000000  0.0000000 )
                  (  0.0000000  1.0000000  0.0000000 )
                  (  0.0000000  0.0000000  1.0000000 )


      isym =  2     inv. 180 deg rotation - cryst. axis [0,1,0]  

 cryst.   s( 2) = (     1          2          0      )
                  (     0         -1          0      )
                  (     0          0          1      )

 cart.    s( 2) = (  0.5000000  0.8660254  0.0000000 )
                  (  0.8660254 -0.5000000  0.0000000 )
                  (  0.0000000  0.0000000  1.0000000 )


   Cartesian axes

     site n.     atom                  positions (alat units)
         1           Zn  tau(   1) = (   0.2500000   0.1443376   0.3636909  )
         2           Zn  tau(   2) = (  -0.0000000   0.2886751   0.0004603  )
         3           O   tau(   3) = (   0.2500000   0.1443376   0.6390508  )
         4           O   tau(   4) = (  -0.0000000   0.2886751   0.2758202  )
         5           Zn  tau(   5) = (   0.2500000   0.1443376   1.0901522  )
         6           Zn  tau(   6) = (  -0.0000000   0.2886751   0.7269215  )
         7           O   tau(   7) = (   0.2500000   0.1443376   1.3655121  )
         8           O   tau(   8) = (  -0.0000000   0.2886751   1.0022815  )
         9           Zn  tau(   9) = (   0.2500000   0.1443376   1.8166134  )
        10           Zn  tau(  10) = (  -0.0000000   0.2886751   1.4533828  )
        11           O   tau(  11) = (   0.2500000   0.1443376   2.0919734  )
        12           O   tau(  12) = (  -0.0000000   0.2886751   1.7287427  )
        13           Zn  tau(  13) = (   0.7500000   0.1443376   0.3636909  )
        14           Zn  tau(  14) = (   0.5000000   0.2886751   0.0004603  )
        15           O   tau(  15) = (   0.7500000   0.1443376   0.6390508  )
        16           O   tau(  16) = (   0.5000000   0.2886751   0.2758202  )
        17           Zn  tau(  17) = (   0.7500000   0.1443376   1.0901522  )
        18           Zn  tau(  18) = (   0.5000000   0.2886751   0.7269215  )
        19           O   tau(  19) = (   0.7500000   0.1443376   1.3655121  )
        20           O   tau(  20) = (   0.5000000   0.2886751   1.0022815  )
        21           Zn  tau(  21) = (   0.7500000   0.1443376   1.8166134  )
        22           Zn  tau(  22) = (   0.5000000   0.2886751   1.4533828  )
        23           O   tau(  23) = (   0.7500000   0.1443376   2.0919734  )
        24           O   tau(  24) = (   0.5000000   0.2886751   1.7287427  )

   Crystallographic axes

     site n.     atom                  positions (cryst. coord.)
         1           Zn  tau(   1) = (  0.3333333  0.3333333  0.1668779  )
         2           Zn  tau(   2) = (  0.1666667  0.6666667  0.0002112  )
         3           O   tau(   3) = (  0.3333333  0.3333333  0.2932255  )
         4           O   tau(   4) = (  0.1666667  0.6666667  0.1265588  )
         5           Zn  tau(   5) = (  0.3333333  0.3333333  0.5002112  )
         6           Zn  tau(   6) = (  0.1666667  0.6666667  0.3335445  )
         7           O   tau(   7) = (  0.3333333  0.3333333  0.6265588  )
         8           O   tau(   8) = (  0.1666667  0.6666667  0.4598921  )
         9           Zn  tau(   9) = (  0.3333333  0.3333333  0.8335445  )
        10           Zn  tau(  10) = (  0.1666667  0.6666667  0.6668779  )
        11           O   tau(  11) = (  0.3333333  0.3333333  0.9598921  )
        12           O   tau(  12) = (  0.1666667  0.6666667  0.7932255  )
        13           Zn  tau(  13) = (  0.8333333  0.3333333  0.1668779  )
        14           Zn  tau(  14) = (  0.6666667  0.6666667  0.0002112  )
        15           O   tau(  15) = (  0.8333333  0.3333333  0.2932255  )
        16           O   tau(  16) = (  0.6666667  0.6666667  0.1265588  )
        17           Zn  tau(  17) = (  0.8333333  0.3333333  0.5002112  )
        18           Zn  tau(  18) = (  0.6666667  0.6666667  0.3335445  )
        19           O   tau(  19) = (  0.8333333  0.3333333  0.6265588  )
        20           O   tau(  20) = (  0.6666667  0.6666667  0.4598921  )
        21           Zn  tau(  21) = (  0.8333333  0.3333333  0.8335445  )
        22           Zn  tau(  22) = (  0.6666667  0.6666667  0.6668779  )
        23           O   tau(  23) = (  0.8333333  0.3333333  0.9598921  )
        24           O   tau(  24) = (  0.6666667  0.6666667  0.7932255  )

     number of k points=    80
                       cart. coord. in units 2pi/alat
        k(    1) = (   0.0000000   0.0000000   0.0000000), wk =   0.0092593
        k(    2) = (   0.0000000   0.0000000   0.0764742), wk =   0.0185185
        k(    3) = (   0.0000000   0.0000000   0.1529484), wk =   0.0185185
        k(    4) = (   0.0000000   0.0000000  -0.2294226), wk =   0.0092593
        k(    5) = (   0.0000000   0.3849002   0.0000000), wk =   0.0370370
        k(    6) = (   0.0000000   0.3849002   0.0764742), wk =   0.0370370
        k(    7) = (   0.0000000   0.3849002   0.1529484), wk =   0.0370370
        k(    8) = (   0.0000000   0.3849002  -0.2294226), wk =   0.0370370
        k(    9) = (   0.0000000   0.7698004   0.0000000), wk =   0.0370370
        k(   10) = (   0.0000000   0.7698004   0.0764742), wk =   0.0370370
        k(   11) = (   0.0000000   0.7698004   0.1529484), wk =   0.0370370
        k(   12) = (   0.0000000   0.7698004  -0.2294226), wk =   0.0370370
        k(   13) = (   0.0000000  -1.1547005   0.0000000), wk =   0.0092593
        k(   14) = (   0.0000000  -1.1547005   0.0764742), wk =   0.0185185
        k(   15) = (   0.0000000  -1.1547005   0.1529484), wk =   0.0185185
        k(   16) = (   0.0000000  -1.1547005  -0.2294226), wk =   0.0092593
        k(   17) = (   0.1666667   0.0962250   0.0000000), wk =   0.0185185
        k(   18) = (   0.1666667   0.0962250   0.0764742), wk =   0.0185185
        k(   19) = (   0.1666667   0.0962250   0.1529484), wk =   0.0185185
        k(   20) = (   0.1666667   0.0962250  -0.2294226), wk =   0.0185185
        k(   21) = (   0.1666667   0.4811252   0.0000000), wk =   0.0370370
        k(   22) = (   0.1666667   0.4811252   0.0764742), wk =   0.0370370
        k(   23) = (   0.1666667   0.4811252   0.1529484), wk =   0.0370370
        k(   24) = (   0.1666667   0.4811252  -0.2294226), wk =   0.0370370
        k(   25) = (   0.1666667   0.8660254   0.0000000), wk =   0.0185185
        k(   26) = (   0.1666667   0.8660254   0.0764742), wk =   0.0370370
        k(   27) = (   0.1666667   0.8660254   0.1529484), wk =   0.0370370
        k(   28) = (   0.1666667   0.8660254  -0.2294226), wk =   0.0185185
        k(   29) = (   0.1666667  -1.0584755   0.0000000), wk =   0.0185185
        k(   30) = (   0.1666667  -1.0584755   0.0764742), wk =   0.0185185
        k(   31) = (   0.1666667  -1.0584755   0.1529484), wk =   0.0185185
        k(   32) = (   0.1666667  -1.0584755  -0.2294226), wk =   0.0185185
        k(   33) = (   0.1666667  -0.6735753   0.0000000), wk =   0.0370370
        k(   34) = (   0.1666667  -0.6735753   0.0764742), wk =   0.0370370
        k(   35) = (   0.1666667  -0.6735753   0.1529484), wk =   0.0370370
        k(   36) = (   0.1666667  -0.6735753  -0.2294226), wk =   0.0370370
        k(   37) = (   0.1666667  -0.2886751   0.0000000), wk =   0.0185185
        k(   38) = (   0.1666667  -0.2886751   0.0764742), wk =   0.0370370
        k(   39) = (   0.1666667  -0.2886751   0.1529484), wk =   0.0370370
        k(   40) = (   0.1666667  -0.2886751  -0.2294226), wk =   0.0185185
        k(   41) = (   0.3333333   0.1924501   0.0000000), wk =   0.0185185
        k(   42) = (   0.3333333   0.1924501   0.0764742), wk =   0.0185185
        k(   43) = (   0.3333333   0.1924501   0.1529484), wk =   0.0185185
        k(   44) = (   0.3333333   0.1924501  -0.2294226), wk =   0.0185185
        k(   45) = (   0.3333333   0.5773503   0.0000000), wk =   0.0185185
        k(   46) = (   0.3333333   0.5773503   0.0764742), wk =   0.0370370
        k(   47) = (   0.3333333   0.5773503   0.1529484), wk =   0.0370370
        k(   48) = (   0.3333333   0.5773503  -0.2294226), wk =   0.0185185
        k(   49) = (   0.3333333  -0.9622504   0.0000000), wk =   0.0185185
        k(   50) = (   0.3333333  -0.9622504   0.0764742), wk =   0.0185185
        k(   51) = (   0.3333333  -0.9622504   0.1529484), wk =   0.0185185
        k(   52) = (   0.3333333  -0.9622504  -0.2294226), wk =   0.0185185
        k(   53) = (   0.3333333  -0.5773503   0.0000000), wk =   0.0185185
        k(   54) = (   0.3333333  -0.5773503   0.0764742), wk =   0.0370370
        k(   55) = (   0.3333333  -0.5773503   0.1529484), wk =   0.0370370
        k(   56) = (   0.3333333  -0.5773503  -0.2294226), wk =   0.0185185
        k(   57) = (  -0.5000000  -0.2886751   0.0000000), wk =   0.0092593
        k(   58) = (  -0.5000000  -0.2886751   0.0764742), wk =   0.0185185
        k(   59) = (  -0.5000000  -0.2886751   0.1529484), wk =   0.0185185
        k(   60) = (  -0.5000000  -0.2886751  -0.2294226), wk =   0.0092593
        k(   61) = (  -0.5000000  -1.4433757   0.0000000), wk =   0.0092593
        k(   62) = (  -0.5000000  -1.4433757   0.0764742), wk =   0.0185185
        k(   63) = (  -0.5000000  -1.4433757   0.1529484), wk =   0.0185185
        k(   64) = (  -0.5000000  -1.4433757  -0.2294226), wk =   0.0092593
        k(   65) = (   0.3333333  -0.1924501  -0.0764742), wk =   0.0370370
        k(   66) = (   0.3333333  -0.1924501  -0.1529484), wk =   0.0370370
        k(   67) = (   0.6666667  -0.3849002  -0.0764742), wk =   0.0370370
        k(   68) = (   0.6666667  -0.3849002  -0.1529484), wk =   0.0370370
        k(   69) = (   0.1666667   0.0962250  -0.0764742), wk =   0.0185185
        k(   70) = (   0.1666667   0.0962250  -0.1529484), wk =   0.0185185
        k(   71) = (   0.5000000  -0.0962250  -0.0764742), wk =   0.0370370
        k(   72) = (   0.5000000  -0.0962250  -0.1529484), wk =   0.0370370
        k(   73) = (  -0.8333333   0.6735753  -0.0764742), wk =   0.0185185
        k(   74) = (  -0.8333333   0.6735753  -0.1529484), wk =   0.0185185
        k(   75) = (  -0.5000000   0.4811252  -0.0764742), wk =   0.0370370
        k(   76) = (  -0.5000000   0.4811252  -0.1529484), wk =   0.0370370
        k(   77) = (   0.3333333   0.1924501  -0.0764742), wk =   0.0185185
        k(   78) = (   0.3333333   0.1924501  -0.1529484), wk =   0.0185185
        k(   79) = (  -0.6666667   0.7698004  -0.0764742), wk =   0.0185185
        k(   80) = (  -0.6666667   0.7698004  -0.1529484), wk =   0.0185185

                       cryst. coord.
        k(    1) = (   0.0000000   0.0000000   0.0000000), wk =   0.0092593
        k(    2) = (   0.0000000   0.0000000   0.1666667), wk =   0.0185185
        k(    3) = (   0.0000000   0.0000000   0.3333333), wk =   0.0185185
        k(    4) = (   0.0000000   0.0000000  -0.5000000), wk =   0.0092593
        k(    5) = (   0.0000000   0.1666667   0.0000000), wk =   0.0370370
        k(    6) = (   0.0000000   0.1666667   0.1666667), wk =   0.0370370
        k(    7) = (   0.0000000   0.1666667   0.3333333), wk =   0.0370370
        k(    8) = (   0.0000000   0.1666667  -0.5000000), wk =   0.0370370
        k(    9) = (   0.0000000   0.3333333   0.0000000), wk =   0.0370370
        k(   10) = (   0.0000000   0.3333333   0.1666667), wk =   0.0370370
        k(   11) = (   0.0000000   0.3333333   0.3333333), wk =   0.0370370
        k(   12) = (   0.0000000   0.3333333  -0.5000000), wk =   0.0370370
        k(   13) = (   0.0000000  -0.5000000   0.0000000), wk =   0.0092593
        k(   14) = (   0.0000000  -0.5000000   0.1666667), wk =   0.0185185
        k(   15) = (   0.0000000  -0.5000000   0.3333333), wk =   0.0185185
        k(   16) = (   0.0000000  -0.5000000  -0.5000000), wk =   0.0092593
        k(   17) = (   0.1666667   0.0000000   0.0000000), wk =   0.0185185
        k(   18) = (   0.1666667   0.0000000   0.1666667), wk =   0.0185185
        k(   19) = (   0.1666667   0.0000000   0.3333333), wk =   0.0185185
        k(   20) = (   0.1666667   0.0000000  -0.5000000), wk =   0.0185185
        k(   21) = (   0.1666667   0.1666667   0.0000000), wk =   0.0370370
        k(   22) = (   0.1666667   0.1666667   0.1666667), wk =   0.0370370
        k(   23) = (   0.1666667   0.1666667   0.3333333), wk =   0.0370370
        k(   24) = (   0.1666667   0.1666667  -0.5000000), wk =   0.0370370
        k(   25) = (   0.1666667   0.3333333   0.0000000), wk =   0.0185185
        k(   26) = (   0.1666667   0.3333333   0.1666667), wk =   0.0370370
        k(   27) = (   0.1666667   0.3333333   0.3333333), wk =   0.0370370
        k(   28) = (   0.1666667   0.3333333  -0.5000000), wk =   0.0185185
        k(   29) = (   0.1666667  -0.5000000   0.0000000), wk =   0.0185185
        k(   30) = (   0.1666667  -0.5000000   0.1666667), wk =   0.0185185
        k(   31) = (   0.1666667  -0.5000000   0.3333333), wk =   0.0185185
        k(   32) = (   0.1666667  -0.5000000  -0.5000000), wk =   0.0185185
        k(   33) = (   0.1666667  -0.3333333   0.0000000), wk =   0.0370370
        k(   34) = (   0.1666667  -0.3333333   0.1666667), wk =   0.0370370
        k(   35) = (   0.1666667  -0.3333333   0.3333333), wk =   0.0370370
        k(   36) = (   0.1666667  -0.3333333  -0.5000000), wk =   0.0370370
        k(   37) = (   0.1666667  -0.1666667   0.0000000), wk =   0.0185185
        k(   38) = (   0.1666667  -0.1666667   0.1666667), wk =   0.0370370
        k(   39) = (   0.1666667  -0.1666667   0.3333333), wk =   0.0370370
        k(   40) = (   0.1666667  -0.1666667  -0.5000000), wk =   0.0185185
        k(   41) = (   0.3333333   0.0000000   0.0000000), wk =   0.0185185
        k(   42) = (   0.3333333   0.0000000   0.1666667), wk =   0.0185185
        k(   43) = (   0.3333333   0.0000000   0.3333333), wk =   0.0185185
        k(   44) = (   0.3333333   0.0000000  -0.5000000), wk =   0.0185185
        k(   45) = (   0.3333333   0.1666667   0.0000000), wk =   0.0185185
        k(   46) = (   0.3333333   0.1666667   0.1666667), wk =   0.0370370
        k(   47) = (   0.3333333   0.1666667   0.3333333), wk =   0.0370370
        k(   48) = (   0.3333333   0.1666667  -0.5000000), wk =   0.0185185
        k(   49) = (   0.3333333  -0.5000000   0.0000000), wk =   0.0185185
        k(   50) = (   0.3333333  -0.5000000   0.1666667), wk =   0.0185185
        k(   51) = (   0.3333333  -0.5000000   0.3333333), wk =   0.0185185
        k(   52) = (   0.3333333  -0.5000000  -0.5000000), wk =   0.0185185
        k(   53) = (   0.3333333  -0.3333333   0.0000000), wk =   0.0185185
        k(   54) = (   0.3333333  -0.3333333   0.1666667), wk =   0.0370370
        k(   55) = (   0.3333333  -0.3333333   0.3333333), wk =   0.0370370
        k(   56) = (   0.3333333  -0.3333333  -0.5000000), wk =   0.0185185
        k(   57) = (  -0.5000000   0.0000000   0.0000000), wk =   0.0092593
        k(   58) = (  -0.5000000   0.0000000   0.1666667), wk =   0.0185185
        k(   59) = (  -0.5000000   0.0000000   0.3333333), wk =   0.0185185
        k(   60) = (  -0.5000000   0.0000000  -0.5000000), wk =   0.0092593
        k(   61) = (  -0.5000000  -0.5000000   0.0000000), wk =   0.0092593
        k(   62) = (  -0.5000000  -0.5000000   0.1666667), wk =   0.0185185
        k(   63) = (  -0.5000000  -0.5000000   0.3333333), wk =   0.0185185
        k(   64) = (  -0.5000000  -0.5000000  -0.5000000), wk =   0.0092593
        k(   65) = (   0.3333333  -0.1666667  -0.1666667), wk =   0.0370370
        k(   66) = (   0.3333333  -0.1666667  -0.3333333), wk =   0.0370370
        k(   67) = (   0.6666667  -0.3333333  -0.1666667), wk =   0.0370370
        k(   68) = (   0.6666667  -0.3333333  -0.3333333), wk =   0.0370370
        k(   69) = (   0.1666667   0.0000000  -0.1666667), wk =   0.0185185
        k(   70) = (   0.1666667   0.0000000  -0.3333333), wk =   0.0185185
        k(   71) = (   0.5000000  -0.1666667  -0.1666667), wk =   0.0370370
        k(   72) = (   0.5000000  -0.1666667  -0.3333333), wk =   0.0370370
        k(   73) = (  -0.8333333   0.5000000  -0.1666667), wk =   0.0185185
        k(   74) = (  -0.8333333   0.5000000  -0.3333333), wk =   0.0185185
        k(   75) = (  -0.5000000   0.3333333  -0.1666667), wk =   0.0370370
        k(   76) = (  -0.5000000   0.3333333  -0.3333333), wk =   0.0370370
        k(   77) = (   0.3333333   0.0000000  -0.1666667), wk =   0.0185185
        k(   78) = (   0.3333333   0.0000000  -0.3333333), wk =   0.0185185
        k(   79) = (  -0.6666667   0.5000000  -0.1666667), wk =   0.0185185
        k(   80) = (  -0.6666667   0.5000000  -0.3333333), wk =   0.0185185

     Dense  grid:   212789 G-vectors     FFT dimensions: (  75,  40, 180)

     Smooth grid:    75361 G-vectors     FFT dimensions: (  54,  27, 120)

     Dynamical RAM for                 wfc:       3.87 MB

     Dynamical RAM for     wfc (w. buffer):      42.62 MB

     Dynamical RAM for           str. fact:       1.62 MB

     Dynamical RAM for           local pot:       0.00 MB

     Dynamical RAM for          nlocal pot:      11.19 MB

     Dynamical RAM for                qrad:       3.21 MB

     Dynamical RAM for          rho,v,vnew:       5.53 MB

     Dynamical RAM for               rhoin:       1.84 MB

     Dynamical RAM for            rho*nmix:      12.99 MB

     Dynamical RAM for           G-vectors:       3.19 MB

     Dynamical RAM for          h,s,v(r/c):       0.53 MB

     Dynamical RAM for          <psi|beta>:       0.51 MB

     Dynamical RAM for                 psi:       7.75 MB

     Dynamical RAM for                hpsi:       7.75 MB

     Dynamical RAM for                spsi:       7.75 MB

     Dynamical RAM for      wfcinit/wfcrot:      11.75 MB

     Dynamical RAM for           addusdens:      20.80 MB

     Dynamical RAM for          addusforce:      22.77 MB

     Estimated static dynamical RAM per process >      76.78 MB

     Estimated max dynamical RAM per process >     114.06 MB

     Estimated total dynamical RAM >       3.21 GB

     Check: negative core charge=   -0.000001

     Initial potential from superposition of free atoms

     starting charge     215.9553, renormalised to     216.0000
     Starting wfcs are  156 randomized atomic wfcs

     total cpu time spent up to now is       13.2 secs

     per-process dynamical memory:   102.5 Mb

     Self-consistent Calculation

     iteration #  1     ecut=    50.00 Ry     beta= 0.30
     Davidson diagonalization with overlap

---- Real-time Memory Report at c_bands before calling an iterative solver
           127 MiB given to the printing process from OS
           100 MiB allocation reported by mallinfo(arena+hblkhd)
        104702 MiB available memory on the node where the printing process lives
------------------
     ethr =  1.00E-02,  avg # of iterations =  2.1

     total cpu time spent up to now is       35.1 secs

     total energy              =   -2168.18661058 Ry
     estimated scf accuracy    <       4.13691388 Ry

     iteration #  2     ecut=    50.00 Ry     beta= 0.30
     Davidson diagonalization with overlap

---- Real-time Memory Report at c_bands before calling an iterative solver
           147 MiB given to the printing process from OS
           120 MiB allocation reported by mallinfo(arena+hblkhd)
        104052 MiB available memory on the node where the printing process lives
------------------
     ethr =  1.92E-03,  avg # of iterations =  2.2

     total cpu time spent up to now is       61.1 secs

     total energy              =   -2168.51369959 Ry
     estimated scf accuracy    <       0.76103280 Ry

     iteration #  3     ecut=    50.00 Ry     beta= 0.30
     Davidson diagonalization with overlap

---- Real-time Memory Report at c_bands before calling an iterative solver
           153 MiB given to the printing process from OS
           123 MiB allocation reported by mallinfo(arena+hblkhd)
        104031 MiB available memory on the node where the printing process lives
------------------
     ethr =  3.52E-04,  avg # of iterations =  6.8

     total cpu time spent up to now is      109.1 secs

     total energy              =   -2168.92166052 Ry
     estimated scf accuracy    <       0.43857559 Ry

     iteration #  4     ecut=    50.00 Ry     beta= 0.30
     Davidson diagonalization with overlap

---- Real-time Memory Report at c_bands before calling an iterative solver
           153 MiB given to the printing process from OS
           123 MiB allocation reported by mallinfo(arena+hblkhd)
        104028 MiB available memory on the node where the printing process lives
------------------
     ethr =  2.03E-04,  avg # of iterations =  2.0

     total cpu time spent up to now is      132.2 secs

     total energy              =   -2169.03708593 Ry
     estimated scf accuracy    <       0.06392384 Ry

     iteration #  5     ecut=    50.00 Ry     beta= 0.30
     Davidson diagonalization with overlap

---- Real-time Memory Report at c_bands before calling an iterative solver
           163 MiB given to the printing process from OS
           133 MiB allocation reported by mallinfo(arena+hblkhd)
        104012 MiB available memory on the node where the printing process lives
------------------
     ethr =  2.96E-05,  avg # of iterations = 11.9

     total cpu time spent up to now is      210.4 secs

     total energy              =   -2169.52450547 Ry
     estimated scf accuracy    <       2.66982578 Ry

     iteration #  6     ecut=    50.00 Ry     beta= 0.30
     Davidson diagonalization with overlap

---- Real-time Memory Report at c_bands before calling an iterative solver
           163 MiB given to the printing process from OS
           133 MiB allocation reported by mallinfo(arena+hblkhd)
        104014 MiB available memory on the node where the printing process lives
------------------
     ethr =  2.96E-05,  avg # of iterations =  3.4

     total cpu time spent up to now is      237.6 secs

     total energy              =   -2168.62631616 Ry
     estimated scf accuracy    <       2.11355042 Ry

     iteration #  7     ecut=    50.00 Ry     beta= 0.30
     Davidson diagonalization with overlap

---- Real-time Memory Report at c_bands before calling an iterative solver
           163 MiB given to the printing process from OS
           133 MiB allocation reported by mallinfo(arena+hblkhd)
        103996 MiB available memory on the node where the printing process lives
------------------
     ethr =  2.96E-05,  avg # of iterations = 10.4

     total cpu time spent up to now is      306.8 secs

     total energy              =   -2169.01598915 Ry
     estimated scf accuracy    <       0.00810265 Ry

     iteration #  8     ecut=    50.00 Ry     beta= 0.30
     Davidson diagonalization with overlap

---- Real-time Memory Report at c_bands before calling an iterative solver
           163 MiB given to the printing process from OS
           133 MiB allocation reported by mallinfo(arena+hblkhd)
        103998 MiB available memory on the node where the printing process lives
------------------
     ethr =  3.75E-06,  avg # of iterations =  8.7

     total cpu time spent up to now is      362.9 secs

     total energy              =   -2169.01573074 Ry
     estimated scf accuracy    <       0.01268329 Ry

     iteration #  9     ecut=    50.00 Ry     beta= 0.30
     Davidson diagonalization with overlap

---- Real-time Memory Report at c_bands before calling an iterative solver
           163 MiB given to the printing process from OS
           133 MiB allocation reported by mallinfo(arena+hblkhd)
        103996 MiB available memory on the node where the printing process lives
------------------
     ethr =  3.75E-06,  avg # of iterations =  6.7

     total cpu time spent up to now is      408.6 secs

     total energy              =   -2169.02010257 Ry
     estimated scf accuracy    <       0.00237196 Ry

     iteration # 10     ecut=    50.00 Ry     beta= 0.30
     Davidson diagonalization with overlap

---- Real-time Memory Report at c_bands before calling an iterative solver
           163 MiB given to the printing process from OS
           133 MiB allocation reported by mallinfo(arena+hblkhd)
        103994 MiB available memory on the node where the printing process lives
------------------
     ethr =  1.10E-06,  avg # of iterations =  2.3

     total cpu time spent up to now is      431.7 secs

     total energy              =   -2169.01988279 Ry
     estimated scf accuracy    <       0.00094918 Ry

     iteration # 11     ecut=    50.00 Ry     beta= 0.30
     Davidson diagonalization with overlap

---- Real-time Memory Report at c_bands before calling an iterative solver
           163 MiB given to the printing process from OS
           133 MiB allocation reported by mallinfo(arena+hblkhd)
        103993 MiB available memory on the node where the printing process lives
------------------
     ethr =  4.39E-07,  avg # of iterations =  4.2

     total cpu time spent up to now is      463.8 secs

     total energy              =   -2169.02023282 Ry
     estimated scf accuracy    <       0.00001338 Ry

     iteration # 12     ecut=    50.00 Ry     beta= 0.30
     Davidson diagonalization with overlap

---- Real-time Memory Report at c_bands before calling an iterative solver
           163 MiB given to the printing process from OS
           133 MiB allocation reported by mallinfo(arena+hblkhd)
        103992 MiB available memory on the node where the printing process lives
------------------
     c_bands:  1 eigenvalues not converged
     ethr =  6.19E-09,  avg # of iterations =  9.5

     total cpu time spent up to now is      524.4 secs

     total energy              =   -2169.02022582 Ry
     estimated scf accuracy    <       0.00016296 Ry

     iteration # 13     ecut=    50.00 Ry     beta= 0.30
     Davidson diagonalization with overlap

---- Real-time Memory Report at c_bands before calling an iterative solver
           163 MiB given to the printing process from OS
           133 MiB allocation reported by mallinfo(arena+hblkhd)
        103992 MiB available memory on the node where the printing process lives
------------------
     ethr =  6.19E-09,  avg # of iterations =  5.8

     total cpu time spent up to now is      565.7 secs

     total energy              =   -2169.02020186 Ry
     estimated scf accuracy    <       0.00005452 Ry

     iteration # 14     ecut=    50.00 Ry     beta= 0.30
     Davidson diagonalization with overlap

---- Real-time Memory Report at c_bands before calling an iterative solver
           163 MiB given to the printing process from OS
           133 MiB allocation reported by mallinfo(arena+hblkhd)
        103993 MiB available memory on the node where the printing process lives
------------------
     ethr =  6.19E-09,  avg # of iterations =  8.1

     total cpu time spent up to now is      620.7 secs

     total energy              =   -2169.02021887 Ry
     estimated scf accuracy    <       0.00000551 Ry

     iteration # 15     ecut=    50.00 Ry     beta= 0.30
     Davidson diagonalization with overlap

---- Real-time Memory Report at c_bands before calling an iterative solver
           163 MiB given to the printing process from OS
           133 MiB allocation reported by mallinfo(arena+hblkhd)
        103993 MiB available memory on the node where the printing process lives
------------------
     ethr =  2.55E-09,  avg # of iterations =  4.2

     total cpu time spent up to now is      653.5 secs

     total energy              =   -2169.02022041 Ry
     estimated scf accuracy    <       0.00000003 Ry

     iteration # 16     ecut=    50.00 Ry     beta= 0.30
     Davidson diagonalization with overlap

---- Real-time Memory Report at c_bands before calling an iterative solver
           163 MiB given to the printing process from OS
           133 MiB allocation reported by mallinfo(arena+hblkhd)
        103992 MiB available memory on the node where the printing process lives
------------------
     c_bands:  1 eigenvalues not converged
     ethr =  1.48E-11,  avg # of iterations =  9.9

     total cpu time spent up to now is      722.5 secs

     total energy              =   -2169.02022061 Ry
     estimated scf accuracy    <       0.00000019 Ry

     iteration # 17     ecut=    50.00 Ry     beta= 0.30
     Davidson diagonalization with overlap

---- Real-time Memory Report at c_bands before calling an iterative solver
           163 MiB given to the printing process from OS
           133 MiB allocation reported by mallinfo(arena+hblkhd)
        103992 MiB available memory on the node where the printing process lives
------------------
     ethr =  1.48E-11,  avg # of iterations =  5.8

     total cpu time spent up to now is      761.1 secs

     total energy              =   -2169.02022061 Ry
     estimated scf accuracy    <       0.00000004 Ry

     iteration # 18     ecut=    50.00 Ry     beta= 0.30
     Davidson diagonalization with overlap

---- Real-time Memory Report at c_bands before calling an iterative solver
           163 MiB given to the printing process from OS
           133 MiB allocation reported by mallinfo(arena+hblkhd)
        103991 MiB available memory on the node where the printing process lives
------------------
     ethr =  1.48E-11,  avg # of iterations =  3.2

     total cpu time spent up to now is      787.6 secs

     total energy              =   -2169.02022061 Ry
     estimated scf accuracy    <       0.00000001 Ry

     iteration # 19     ecut=    50.00 Ry     beta= 0.30
     Davidson diagonalization with overlap

---- Real-time Memory Report at c_bands before calling an iterative solver
           163 MiB given to the printing process from OS
           133 MiB allocation reported by mallinfo(arena+hblkhd)
        103991 MiB available memory on the node where the printing process lives
------------------
     ethr =  5.31E-12,  avg # of iterations =  7.1

     total cpu time spent up to now is      836.7 secs

     total energy              =   -2169.02022062 Ry
     estimated scf accuracy    <       0.00000001 Ry

     iteration # 20     ecut=    50.00 Ry     beta= 0.30
     Davidson diagonalization with overlap

---- Real-time Memory Report at c_bands before calling an iterative solver
           163 MiB given to the printing process from OS
           133 MiB allocation reported by mallinfo(arena+hblkhd)
        103990 MiB available memory on the node where the printing process lives
------------------
     ethr =  5.18E-12,  avg # of iterations =  1.1

     total cpu time spent up to now is      855.9 secs

     End of self-consistent calculation

          k = 0.0000 0.0000 0.0000 (  9421 PWs)   bands (ev):

    -9.3289  -9.0153  -9.0153  -8.3777  -8.3652  -8.3652  -8.2474  -8.2474
    -8.0429  -8.0429  -8.0327  -7.9738   2.9007   2.9007   2.9056   2.9056
     3.1437   3.1437   3.2620   3.3962   3.3992   3.3992   3.5282   3.7798
     3.7799   3.8007   3.8013   3.8013   3.8014   3.8014   3.9642   3.9642
     3.9643   3.9643   4.0373   4.1171   4.1172   4.1418   4.1418   4.1768
     4.1768   4.2069   4.3286   4.3286   4.5847   4.5847   4.6125   4.9056
     5.5298   5.5299   5.6155   5.6990   5.6990   5.6990   5.6990   5.8412
     5.8655   5.8655   5.8985   5.8985   5.9218   5.9218   5.9218   5.9218
     5.9388   5.9388   5.9573   5.9573   6.0548   6.0869   6.0869   6.1072
     6.2811   6.5942   6.5973   6.5973   6.6260   6.6260   6.7095   7.2600
     7.3599   7.6556   7.6556   8.0141   8.0141   8.6516   8.6516   9.1478
     9.1478   9.2116   9.2118   9.2128   9.4418   9.4418   9.5630   9.5630
     9.5632   9.5632   9.6157   9.6157   9.6475  10.2535  10.2536  10.2537
    10.2537  10.5820  10.5822  10.6634

     occupation numbers 
     1.0000   1.0000   1.0000   1.0000   1.0000   1.0000   1.0000   1.0000
     1.0000   1.0000   1.0000   1.0000   1.0000   1.0000   1.0000   1.0000
     1.0000   1.0000   1.0000   1.0000   1.0000   1.0000   1.0000   1.0000
     1.0000   1.0000   1.0000   1.0000   1.0000   1.0000   1.0000   1.0000
     1.0000   1.0000   1.0000   1.0000   1.0000   1.0000   1.0000   1.0000
     1.0000   1.0000   1.0000   1.0000   1.0000   1.0000   1.0000   1.0000
     1.0000   1.0000   1.0000   1.0000   1.0000   1.0000   1.0000   1.0000
     1.0000   1.0000   1.0000   1.0000   1.0000   1.0000   1.0000   1.0000
     1.0000   1.0000   1.0000   1.0000   1.0000   1.0000   1.0000   1.0000
     1.0000   1.0000   1.0000   1.0000   1.0000   1.0000   1.0000   1.0000
     1.0000   1.0000   1.0000   1.0000   1.0000   1.0000   1.0000   1.0000
     1.0000   1.0000   1.0000   1.0000   1.0000   1.0000   1.0000   1.0000
     1.0000   1.0000   1.0000   1.0000   1.0000   1.0000   1.0000   1.0000
     1.0000   1.0000   1.0000   1.0000

          k = 0.0000 0.0000 0.0765 (  9414 PWs)   bands (ev):

    -9.3195  -9.1057  -8.9145  -8.4696  -8.3735  -8.2829  -8.2705  -8.2098
    -8.0696  -8.0428  -8.0208  -7.9756   2.8288   2.8388   2.9856   2.9962
     3.1221   3.1935   3.2481   3.3062   3.3737   3.4971   3.5039   3.7799
     3.7801   3.7861   3.7910   3.7911   3.8164   3.8165   3.9272   3.9273
     4.0019   4.0020   4.0410   4.1115   4.1116   4.1339   4.1396   4.1527
     4.1988   4.2281   4.2777   4.3860   4.5042   4.5989   4.6649   4.8940
     5.5357   5.5357   5.6311   5.6542   5.6542   5.7447   5.7447   5.8418
     5.8462   5.8585   5.8740   5.8984   5.8984   5.9218   5.9385   5.9385
     5.9450   5.9573   5.9574   5.9587   6.0478   6.0699   6.0989   6.1077
     6.3359   6.5962   6.5994   6.6013   6.6230   6.6256   6.6940   7.2881
     7.3257   7.4182   7.8230   7.9861   8.2131   8.3588   8.9299   8.9834
     9.1812   9.2222   9.2224   9.2361   9.2935   9.4625   9.4626   9.5737
     9.6017   9.6327   9.6740   9.6742   9.6919  10.1470  10.1472  10.3488
    10.3490  10.5722  10.5724  10.5834

     occupation numbers 
     1.0000   1.0000   1.0000   1.0000   1.0000   1.0000   1.0000   1.0000
     1.0000   1.0000   1.0000   1.0000   1.0000   1.0000   1.0000   1.0000
     1.0000   1.0000   1.0000   1.0000   1.0000   1.0000   1.0000   1.0000
     1.0000   1.0000   1.0000   1.0000   1.0000   1.0000   1.0000   1.0000
     1.0000   1.0000   1.0000   1.0000   1.0000   1.0000   1.0000   1.0000
     1.0000   1.0000   1.0000   1.0000   1.0000   1.0000   1.0000   1.0000
     1.0000   1.0000   1.0000   1.0000   1.0000   1.0000   1.0000   1.0000
     1.0000   1.0000   1.0000   1.0000   1.0000   1.0000   1.0000   1.0000
     1.0000   1.0000   1.0000   1.0000   1.0000   1.0000   1.0000   1.0000
     1.0000   1.0000   1.0000   1.0000   1.0000   1.0000   1.0000   1.0000
     1.0000   1.0000   1.0000   1.0000   1.0000   1.0000   1.0000   1.0000
     1.0000   1.0000   1.0000   1.0000   1.0000   1.0000   1.0000   1.0000
     1.0000   1.0000   1.0000   1.0000   1.0000   1.0000   1.0000   1.0000
     1.0000   1.0000   1.0000   1.0000

          k = 0.0000 0.0000 0.1529 (  9454 PWs)   bands (ev):

    -9.2915  -9.1832  -8.8062  -8.5802  -8.3612  -8.3147  -8.1886  -8.1718
    -8.1005  -8.0729  -8.0032  -7.9809   2.7859   2.7930   3.0690   3.1055
     3.1299   3.2081   3.2262   3.2665   3.3100   3.4394   3.5925   3.7438
     3.7799   3.7801   3.7847   3.7848   3.8364   3.8365   3.8924   3.8925
     4.0379   4.0380   4.0524   4.0951   4.0952   4.0988   4.1458   4.1719
     4.1800   4.2346   4.2873   4.4266   4.4473   4.5616   4.7408   4.8602
     5.5520   5.5520   5.6134   5.6134   5.6726   5.7885   5.7893   5.7893
     5.8441   5.8524   5.8676   5.8676   5.8837   5.9073   5.9489   5.9489
     5.9567   5.9567   5.9815   5.9853   6.0298   6.0475   6.1059   6.1087
     6.4908   6.6019   6.6083   6.6098   6.6171   6.6221   6.6615   7.0089
     7.3684   7.5755   7.6461   8.0689   8.3080   8.4143   8.8037   8.9066
     9.1773   9.2537   9.2539   9.3012   9.3757   9.3758   9.4172   9.4922
     9.5228   9.5886   9.7917   9.7919   9.9351  10.0320  10.0322  10.3976
    10.4301  10.4303  10.5431  10.5433

     occupation numbers 
     1.0000   1.0000   1.0000   1.0000   1.0000   1.0000   1.0000   1.0000
     1.0000   1.0000   1.0000   1.0000   1.0000   1.0000   1.0000   1.0000
     1.0000   1.0000   1.0000   1.0000   1.0000   1.0000   1.0000   1.0000
     1.0000   1.0000   1.0000   1.0000   1.0000   1.0000   1.0000   1.0000
     1.0000   1.0000   1.0000   1.0000   1.0000   1.0000   1.0000   1.0000
     1.0000   1.0000   1.0000   1.0000   1.0000   1.0000   1.0000   1.0000
     1.0000   1.0000   1.0000   1.0000   1.0000   1.0000   1.0000   1.0000
     1.0000   1.0000   1.0000   1.0000   1.0000   1.0000   1.0000   1.0000
     1.0000   1.0000   1.0000   1.0000   1.0000   1.0000   1.0000   1.0000
     1.0000   1.0000   1.0000   1.0000   1.0000   1.0000   1.0000   1.0000
     1.0000   1.0000   1.0000   1.0000   1.0000   1.0000   1.0000   1.0000
     1.0000   1.0000   1.0000   1.0000   1.0000   1.0000   1.0000   1.0000
     1.0000   1.0000   1.0000   1.0000   1.0000   1.0000   1.0000   1.0000
     1.0000   1.0000   1.0000   1.0000

          k = 0.0000 0.0000-0.2294 (  9474 PWs)   bands (ev):

    -9.2457  -9.2457  -8.6936  -8.6936  -8.3413  -8.3413  -8.1349  -8.1349
    -8.1220  -8.1220  -7.9900  -7.9900   2.7742   2.7742   3.1462   3.1462
     3.1655   3.1655   3.2154   3.2154   3.3536   3.3536   3.6772   3.6772
     3.7813   3.7813   3.7815   3.7815   3.8619   3.8619   3.8621   3.8621
     4.0698   4.0698   4.0699   4.0699   4.0715   4.0715   4.1601   4.1601
     4.1992   4.1992   4.3537   4.3537   4.5082   4.5082   4.8075   4.8075
     5.5785   5.5785   5.5786   5.5786   5.7285   5.7285   5.8309   5.8309
     5.8309   5.8309   5.8477   5.8477   5.8948   5.8948   5.9544   5.9544
     5.9545   5.9545   6.0060   6.0060   6.0193   6.0193   6.1085   6.1085
     6.6095   6.6095   6.6159   6.6159   6.6307   6.6307   6.7235   6.7235
     7.4913   7.4913   7.8008   7.8008   8.6126   8.6126   8.6155   8.6155
     9.3054   9.3054   9.3055   9.3055   9.3789   9.3789   9.3935   9.3935
     9.5162   9.5162   9.9124   9.9124   9.9126   9.9126  10.1725  10.1725
    10.4954  10.4954  10.4956  10.4956

     occupation numbers 
     1.0000   1.0000   1.0000   1.0000   1.0000   1.0000   1.0000   1.0000
     1.0000   1.0000   1.0000   1.0000   1.0000   1.0000   1.0000   1.0000
     1.0000   1.0000   1.0000   1.0000   1.0000   1.0000   1.0000   1.0000
     1.0000   1.0000   1.0000   1.0000   1.0000   1.0000   1.0000   1.0000
     1.0000   1.0000   1.0000   1.0000   1.0000   1.0000   1.0000   1.0000
     1.0000   1.0000   1.0000   1.0000   1.0000   1.0000   1.0000   1.0000
     1.0000   1.0000   1.0000   1.0000   1.0000   1.0000   1.0000   1.0000
     1.0000   1.0000   1.0000   1.0000   1.0000   1.0000   1.0000   1.0000
     1.0000   1.0000   1.0000   1.0000   1.0000   1.0000   1.0000   1.0000
     1.0000   1.0000   1.0000   1.0000   1.0000   1.0000   1.0000   1.0000
     1.0000   1.0000   1.0000   1.0000   1.0000   1.0000   1.0000   1.0000
     1.0000   1.0000   1.0000   1.0000   1.0000   1.0000   1.0000   1.0000
     1.0000   1.0000   1.0000   1.0000   1.0000   1.0000   1.0000   1.0000
     1.0000   1.0000   1.0000   1.0000

          k = 0.0000 0.3849 0.0000 (  9419 PWs)   bands (ev):

    -9.1352  -8.8490  -8.8490  -8.3912  -8.2707  -8.2707  -8.2560  -8.2560
    -8.0400  -8.0400  -7.9847  -7.9647   3.0326   3.0326   3.0929   3.0929
     3.1129   3.1129   3.2270   3.2270   3.3708   3.4801   3.6341   3.7110
     3.8662   3.8739   3.8739   3.9040   3.9040   3.9397   3.9657   3.9657
     3.9702   4.0100   4.0100   4.0653   4.0653   4.0933   4.0933   4.1613
     4.1692   4.2609   4.4271   4.4271   4.5457   4.5457   4.7235   4.9124
     5.4432   5.5370   5.5569   5.5719   5.6719   5.6719   5.6821   5.6821
     5.6959   5.6959   5.8149   5.8149   5.9147   5.9281   5.9281   5.9561
     5.9561   5.9897   6.0427   6.0427   6.0560   6.0615   6.1944   6.1944
     6.3417   6.3905   6.5910   6.5910   6.7276   7.0220   7.0220   7.2832
     7.5499   7.5499   7.6564   7.6781   7.6781   8.3236   8.6040   8.6040
     8.7417   8.7417   8.7605   8.8453   8.8453   8.9746   8.9746   9.1294
     9.1879   9.1879   9.3522   9.5120   9.6322   9.6322   9.9982   9.9982
    10.1079  10.1079  10.3788  10.4121

     occupation numbers 
     1.0000   1.0000   1.0000   1.0000   1.0000   1.0000   1.0000   1.0000
     1.0000   1.0000   1.0000   1.0000   1.0000   1.0000   1.0000   1.0000
     1.0000   1.0000   1.0000   1.0000   1.0000   1.0000   1.0000   1.0000
     1.0000   1.0000   1.0000   1.0000   1.0000   1.0000   1.0000   1.0000
     1.0000   1.0000   1.0000   1.0000   1.0000   1.0000   1.0000   1.0000
     1.0000   1.0000   1.0000   1.0000   1.0000   1.0000   1.0000   1.0000
     1.0000   1.0000   1.0000   1.0000   1.0000   1.0000   1.0000   1.0000
     1.0000   1.0000   1.0000   1.0000   1.0000   1.0000   1.0000   1.0000
     1.0000   1.0000   1.0000   1.0000   1.0000   1.0000   1.0000   1.0000
     1.0000   1.0000   1.0000   1.0000   1.0000   1.0000   1.0000   1.0000
     1.0000   1.0000   1.0000   1.0000   1.0000   1.0000   1.0000   1.0000
     1.0000   1.0000   1.0000   1.0000   1.0000   1.0000   1.0000   1.0000
     1.0000   1.0000   1.0000   1.0000   1.0000   1.0000   1.0000   1.0000
     1.0000   1.0000   1.0000   1.0000

          k = 0.0000 0.3849 0.0765 (  9425 PWs)   bands (ev):

    -9.1265  -8.9311  -8.7579  -8.3869  -8.3619  -8.2930  -8.2167  -8.1885
    -8.0687  -8.0161  -7.9933  -7.9666   2.9714   3.0061   3.0634   3.1086
     3.1540   3.1906   3.2037   3.3072   3.3583   3.4701   3.6131   3.6758
     3.8669   3.8779   3.8787   3.8895   3.9234   3.9365   3.9520   3.9647
     3.9736   3.9832   4.0478   4.0507   4.0520   4.0814   4.1350   4.1553
     4.1628   4.2548   4.4049   4.4644   4.4866   4.6140   4.7025   4.8879
     5.4522   5.5227   5.5425   5.6151   5.6385   5.6425   5.6536   5.7208
     5.7296   5.7401   5.8092   5.8135   5.8995   5.9251   5.9312   5.9506
     5.9772   5.9887   6.0312   6.0502   6.0601   6.0788   6.1665   6.2172
     6.3434   6.4342   6.4983   6.6797   6.7540   6.9685   7.0583   7.2803
     7.3774   7.3786   7.6887   7.7411   7.9539   8.3361   8.4271   8.5080
     8.6348   8.7075   8.7737   8.9056   9.0297   9.0500   9.0666   9.0672
     9.1441   9.3200   9.3459   9.4846   9.5831   9.6291   9.8744   9.9235
    10.1086  10.2523  10.3675  10.4169

     occupation numbers 
     1.0000   1.0000   1.0000   1.0000   1.0000   1.0000   1.0000   1.0000
     1.0000   1.0000   1.0000   1.0000   1.0000   1.0000   1.0000   1.0000
     1.0000   1.0000   1.0000   1.0000   1.0000   1.0000   1.0000   1.0000
     1.0000   1.0000   1.0000   1.0000   1.0000   1.0000   1.0000   1.0000
     1.0000   1.0000   1.0000   1.0000   1.0000   1.0000   1.0000   1.0000
     1.0000   1.0000   1.0000   1.0000   1.0000   1.0000   1.0000   1.0000
     1.0000   1.0000   1.0000   1.0000   1.0000   1.0000   1.0000   1.0000
     1.0000   1.0000   1.0000   1.0000   1.0000   1.0000   1.0000   1.0000
     1.0000   1.0000   1.0000   1.0000   1.0000   1.0000   1.0000   1.0000
     1.0000   1.0000   1.0000   1.0000   1.0000   1.0000   1.0000   1.0000
     1.0000   1.0000   1.0000   1.0000   1.0000   1.0000   1.0000   1.0000
     1.0000   1.0000   1.0000   1.0000   1.0000   1.0000   1.0000   1.0000
     1.0000   1.0000   1.0000   1.0000   1.0000   1.0000   1.0000   1.0000
     1.0000   1.0000   1.0000   1.0000

          k = 0.0000 0.3849 0.1529 (  9430 PWs)   bands (ev):

    -9.1008  -9.0017  -8.6606  -8.4594  -8.3741  -8.3260  -8.1768  -8.1178
    -8.1015  -8.0188  -7.9970  -7.9725   2.9336   2.9495   3.0450   3.0948
     3.1889   3.2869   3.3213   3.3279   3.3902   3.4382   3.5500   3.5876
     3.8689   3.8795   3.8901   3.8920   3.9250   3.9407   3.9444   3.9482
     3.9533   4.0021   4.0132   4.0361   4.0845   4.0996   4.1397   4.1448
     4.1747   4.2372   4.3992   4.4408   4.5159   4.6477   4.6872   4.8307
     5.4772   5.5238   5.5580   5.5617   5.5932   5.6153   5.7216   5.7532
     5.7842   5.7858   5.7970   5.8021   5.8655   5.8855   5.9622   5.9671
     5.9852   5.9868   6.0266   6.0389   6.0826   6.1286   6.1373   6.2244
     6.3467   6.4119   6.5705   6.7621   6.8303   6.9066   7.0410   7.0730
     7.2680   7.2686   7.7891   7.9394   8.1791   8.1933   8.3314   8.3734
     8.5238   8.5686   8.8127   8.9621   9.0248   9.1608   9.1883   9.2477
     9.2518   9.3493   9.4107   9.4592   9.4995   9.5642   9.7085   9.7407
    10.2029  10.3338  10.3513  10.4213

     occupation numbers 
     1.0000   1.0000   1.0000   1.0000   1.0000   1.0000   1.0000   1.0000
     1.0000   1.0000   1.0000   1.0000   1.0000   1.0000   1.0000   1.0000
     1.0000   1.0000   1.0000   1.0000   1.0000   1.0000   1.0000   1.0000
     1.0000   1.0000   1.0000   1.0000   1.0000   1.0000   1.0000   1.0000
     1.0000   1.0000   1.0000   1.0000   1.0000   1.0000   1.0000   1.0000
     1.0000   1.0000   1.0000   1.0000   1.0000   1.0000   1.0000   1.0000
     1.0000   1.0000   1.0000   1.0000   1.0000   1.0000   1.0000   1.0000
     1.0000   1.0000   1.0000   1.0000   1.0000   1.0000   1.0000   1.0000
     1.0000   1.0000   1.0000   1.0000   1.0000   1.0000   1.0000   1.0000
     1.0000   1.0000   1.0000   1.0000   1.0000   1.0000   1.0000   1.0000
     1.0000   1.0000   1.0000   1.0000   1.0000   1.0000   1.0000   1.0000
     1.0000   1.0000   1.0000   1.0000   1.0000   1.0000   1.0000   1.0000
     1.0000   1.0000   1.0000   1.0000   1.0000   1.0000   1.0000   1.0000
     1.0000   1.0000   1.0000   1.0000

          k = 0.0000 0.3849-0.2294 (  9426 PWs)   bands (ev):

    -9.0589  -9.0588  -8.5600  -8.5600  -8.3535  -8.3535  -8.1380  -8.1380
    -8.0607  -8.0607  -7.9825  -7.9825   2.9254   2.9254   3.0567   3.0567
     3.2629   3.2629   3.3779   3.3779   3.4497   3.4497   3.4826   3.4826
     3.8729   3.8729   3.9075   3.9075   3.9130   3.9130   3.9449   3.9449
     3.9783   3.9783   4.0201   4.0201   4.1178   4.1178   4.1198   4.1198
     4.2097   4.2097   4.4111   4.4111   4.5796   4.5796   4.7610   4.7610
     5.5149   5.5149   5.5519   5.5519   5.5828   5.5828   5.7747   5.7747
     5.7785   5.7785   5.8265   5.8265   5.8386   5.8386   5.9783   5.9783
     5.9827   5.9827   6.0296   6.0296   6.1089   6.1089   6.1926   6.1926
     6.3598   6.3598   6.7930   6.7930   6.8378   6.8378   6.9411   6.9411
     7.2527   7.2527   7.9572   7.9572   8.1382   8.1382   8.3965   8.3965
     8.4359   8.4359   8.8763   8.8763   9.1194   9.1194   9.3070   9.3070
     9.4079   9.4079   9.4360   9.4360   9.4768   9.4768   9.6009   9.6009
    10.2785  10.2785  10.4050  10.4050

     occupation numbers 
     1.0000   1.0000   1.0000   1.0000   1.0000   1.0000   1.0000   1.0000
     1.0000   1.0000   1.0000   1.0000   1.0000   1.0000   1.0000   1.0000
     1.0000   1.0000   1.0000   1.0000   1.0000   1.0000   1.0000   1.0000
     1.0000   1.0000   1.0000   1.0000   1.0000   1.0000   1.0000   1.0000
     1.0000   1.0000   1.0000   1.0000   1.0000   1.0000   1.0000   1.0000
     1.0000   1.0000   1.0000   1.0000   1.0000   1.0000   1.0000   1.0000
     1.0000   1.0000   1.0000   1.0000   1.0000   1.0000   1.0000   1.0000
     1.0000   1.0000   1.0000   1.0000   1.0000   1.0000   1.0000   1.0000
     1.0000   1.0000   1.0000   1.0000   1.0000   1.0000   1.0000   1.0000
     1.0000   1.0000   1.0000   1.0000   1.0000   1.0000   1.0000   1.0000
     1.0000   1.0000   1.0000   1.0000   1.0000   1.0000   1.0000   1.0000
     1.0000   1.0000   1.0000   1.0000   1.0000   1.0000   1.0000   1.0000
     1.0000   1.0000   1.0000   1.0000   1.0000   1.0000   1.0000   1.0000
     1.0000   1.0000   1.0000   1.0000

          k = 0.0000 0.7698 0.0000 (  9376 PWs)   bands (ev):

    -8.6838  -8.4775  -8.4775  -8.3912  -8.2560  -8.2560  -8.0976  -8.0976
    -8.0400  -8.0400  -7.9647  -7.9316   2.9291   2.9291   3.0326   3.0326
     3.0344   3.0344   3.0929   3.0929   3.1982   3.3709   3.6342   3.6651
     3.9656   3.9656   3.9702   3.9982   4.0298   4.0298   4.0653   4.0653
     4.0893   4.0951   4.0951   4.1613   4.2137   4.2137   4.3984   4.3984
     4.4271   4.4271   4.5456   4.5456   4.6092   4.6373   4.7235   4.9123
     5.4397   5.5570   5.5718   5.6733   5.6821   5.6821   5.7024   5.7024
     5.7644   5.7644   5.8150   5.8150   5.8249   5.9389   5.9389   6.0353
     6.0353   6.0364   6.0427   6.0427   6.0560   6.0615   6.1945   6.1945
     6.3417   6.5223   6.5910   6.5910   6.7275   7.0220   7.0220   7.0252
     7.0252   7.1180   7.2833   7.5499   7.5499   7.5830   7.5830   7.6564
     7.8237   8.1833   8.4271   8.4271   8.4698   8.4698   8.6040   8.6040
     8.8453   8.8453   9.1293   9.3521   9.4486   9.4486   9.6322   9.6322
     9.7105   9.8551   9.8551   9.9120

     occupation numbers 
     1.0000   1.0000   1.0000   1.0000   1.0000   1.0000   1.0000   1.0000
     1.0000   1.0000   1.0000   1.0000   1.0000   1.0000   1.0000   1.0000
     1.0000   1.0000   1.0000   1.0000   1.0000   1.0000   1.0000   1.0000
     1.0000   1.0000   1.0000   1.0000   1.0000   1.0000   1.0000   1.0000
     1.0000   1.0000   1.0000   1.0000   1.0000   1.0000   1.0000   1.0000
     1.0000   1.0000   1.0000   1.0000   1.0000   1.0000   1.0000   1.0000
     1.0000   1.0000   1.0000   1.0000   1.0000   1.0000   1.0000   1.0000
     1.0000   1.0000   1.0000   1.0000   1.0000   1.0000   1.0000   1.0000
     1.0000   1.0000   1.0000   1.0000   1.0000   1.0000   1.0000   1.0000
     1.0000   1.0000   1.0000   1.0000   1.0000   1.0000   1.0000   1.0000
     1.0000   1.0000   1.0000   1.0000   1.0000   1.0000   1.0000   1.0000
     1.0000   1.0000   1.0000   1.0000   1.0000   1.0000   1.0000   1.0000
     1.0000   1.0000   1.0000   1.0000   1.0000   1.0000   1.0000   1.0000
     1.0000   1.0000   1.0000   1.0000

          k = 0.0000 0.7698 0.0765 (  9387 PWs)   bands (ev):

    -8.6774  -8.5356  -8.4142  -8.3869  -8.2930  -8.2167  -8.1538  -8.0687
    -8.0483  -8.0161  -7.9666  -7.9363   2.8809   2.9451   2.9714   2.9902
     3.0062   3.1086   3.1495   3.1883   3.2037   3.3584   3.6131   3.6339
     3.9519   3.9647   3.9832   4.0007   4.0312   4.0372   4.0507   4.0645
     4.0814   4.0840   4.1321   4.1553   4.1604   4.2757   4.3379   4.4048
     4.4585   4.4644   4.4865   4.5793   4.6139   4.6287   4.7026   4.8879
     5.4481   5.5227   5.6366   5.6385   5.6425   5.6762   5.7208   5.7389
     5.7685   5.7922   5.8092   5.8135   5.8682   5.9110   5.9648   5.9969
     6.0312   6.0330   6.0501   6.0601   6.0605   6.0788   6.1665   6.2172
     6.3434   6.4983   6.5361   6.6797   6.7540   6.9096   6.9686   7.0583
     7.1352   7.1459   7.2803   7.3786   7.5172   7.6017   7.6886   7.7410
     7.8437   8.1685   8.2184   8.2644   8.4271   8.5079   8.6006   8.7707
     8.9056   9.0297   9.1441   9.2970   9.3459   9.5831   9.5834   9.6291
     9.7303   9.7469   9.8983   9.8999

     occupation numbers 
     1.0000   1.0000   1.0000   1.0000   1.0000   1.0000   1.0000   1.0000
     1.0000   1.0000   1.0000   1.0000   1.0000   1.0000   1.0000   1.0000
     1.0000   1.0000   1.0000   1.0000   1.0000   1.0000   1.0000   1.0000
     1.0000   1.0000   1.0000   1.0000   1.0000   1.0000   1.0000   1.0000
     1.0000   1.0000   1.0000   1.0000   1.0000   1.0000   1.0000   1.0000
     1.0000   1.0000   1.0000   1.0000   1.0000   1.0000   1.0000   1.0000
     1.0000   1.0000   1.0000   1.0000   1.0000   1.0000   1.0000   1.0000
     1.0000   1.0000   1.0000   1.0000   1.0000   1.0000   1.0000   1.0000
     1.0000   1.0000   1.0000   1.0000   1.0000   1.0000   1.0000   1.0000
     1.0000   1.0000   1.0000   1.0000   1.0000   1.0000   1.0000   1.0000
     1.0000   1.0000   1.0000   1.0000   1.0000   1.0000   1.0000   1.0000
     1.0000   1.0000   1.0000   1.0000   1.0000   1.0000   1.0000   1.0000
     1.0000   1.0000   1.0000   1.0000   1.0000   1.0000   1.0000   1.0000
     1.0000   1.0000   1.0000   1.0000

          k = 0.0000 0.7698 0.1529 (  9382 PWs)   bands (ev):

    -8.6585  -8.5863  -8.3741  -8.3479  -8.3260  -8.2156  -8.1768  -8.1015
    -8.0069  -7.9970  -7.9725  -7.9506   2.8541   2.8848   2.9337   2.9495
     3.0546   3.1592   3.1889   3.2832   3.3214   3.3279   3.5470   3.5500
     3.9443   3.9533   4.0021   4.0084   4.0361   4.0399   4.0403   4.0540
     4.0709   4.0996   4.1159   4.1397   4.1756   4.2795   4.3466   4.3992
     4.4407   4.5083   4.5152   4.5159   4.6037   4.6477   4.6871   4.8306
     5.4748   5.5238   5.5741   5.5932   5.6846   5.7166   5.7216   5.7532
     5.7970   5.8021   5.8217   5.8327   5.8818   5.9486   5.9595   5.9882
     6.0233   6.0266   6.0389   6.0643   6.0826   6.1286   6.1373   6.2245
     6.3467   6.4120   6.5842   6.7622   6.7892   6.8302   6.9066   7.0409
     7.2304   7.2400   7.2680   7.2687   7.4330   7.5206   7.7891   7.9024
     7.9393   8.0938   8.1187   8.1309   8.1791   8.3313   8.7794   9.0247
     9.0716   9.1322   9.1607   9.2518   9.3493   9.4995   9.5642   9.5748
     9.6981   9.7814   9.8574   9.8902

     occupation numbers 
     1.0000   1.0000   1.0000   1.0000   1.0000   1.0000   1.0000   1.0000
     1.0000   1.0000   1.0000   1.0000   1.0000   1.0000   1.0000   1.0000
     1.0000   1.0000   1.0000   1.0000   1.0000   1.0000   1.0000   1.0000
     1.0000   1.0000   1.0000   1.0000   1.0000   1.0000   1.0000   1.0000
     1.0000   1.0000   1.0000   1.0000   1.0000   1.0000   1.0000   1.0000
     1.0000   1.0000   1.0000   1.0000   1.0000   1.0000   1.0000   1.0000
     1.0000   1.0000   1.0000   1.0000   1.0000   1.0000   1.0000   1.0000
     1.0000   1.0000   1.0000   1.0000   1.0000   1.0000   1.0000   1.0000
     1.0000   1.0000   1.0000   1.0000   1.0000   1.0000   1.0000   1.0000
     1.0000   1.0000   1.0000   1.0000   1.0000   1.0000   1.0000   1.0000
     1.0000   1.0000   1.0000   1.0000   1.0000   1.0000   1.0000   1.0000
     1.0000   1.0000   1.0000   1.0000   1.0000   1.0000   1.0000   1.0000
     1.0000   1.0000   1.0000   1.0000   1.0000   1.0000   1.0000   1.0000
     1.0000   1.0000   1.0000   1.0000

          k = 0.0000 0.7698-0.2294 (  9380 PWs)   bands (ev):

    -8.6277  -8.6277  -8.3535  -8.3535  -8.2809  -8.2809  -8.1380  -8.1380
    -7.9825  -7.9825  -7.9741  -7.9741   2.8546   2.8546   2.9254   2.9254
     3.1132   3.1132   3.2629   3.2629   3.4224   3.4224   3.4498   3.4498
     3.9448   3.9448   4.0200   4.0200   4.0214   4.0214   4.0546   4.0546
     4.0804   4.0804   4.1198   4.1198   4.2249   4.2249   4.4111   4.4111
     4.4256   4.4256   4.5648   4.5648   4.5796   4.5796   4.7609   4.7609
     5.5185   5.5185   5.5519   5.5519   5.6983   5.6983   5.7747   5.7747
     5.7785   5.7785   5.8517   5.8517   5.8933   5.8933   6.0079   6.0079
     6.0295   6.0296   6.0337   6.0337   6.1089   6.1089   6.1926   6.1926
     6.3598   6.3598   6.6733   6.6733   6.8378   6.8378   6.9411   6.9411
     7.2528   7.2528   7.3396   7.3396   7.3669   7.3669   7.9572   7.9572
     7.9959   7.9959   8.0912   8.0912   8.1381   8.1381   8.9581   8.9581
     9.1193   9.1193   9.3456   9.3456   9.4079   9.4079   9.4360   9.4360
     9.7901   9.7901   9.8430   9.8430

     occupation numbers 
     1.0000   1.0000   1.0000   1.0000   1.0000   1.0000   1.0000   1.0000
     1.0000   1.0000   1.0000   1.0000   1.0000   1.0000   1.0000   1.0000
     1.0000   1.0000   1.0000   1.0000   1.0000   1.0000   1.0000   1.0000
     1.0000   1.0000   1.0000   1.0000   1.0000   1.0000   1.0000   1.0000
     1.0000   1.0000   1.0000   1.0000   1.0000   1.0000   1.0000   1.0000
     1.0000   1.0000   1.0000   1.0000   1.0000   1.0000   1.0000   1.0000
     1.0000   1.0000   1.0000   1.0000   1.0000   1.0000   1.0000   1.0000
     1.0000   1.0000   1.0000   1.0000   1.0000   1.0000   1.0000   1.0000
     1.0000   1.0000   1.0000   1.0000   1.0000   1.0000   1.0000   1.0000
     1.0000   1.0000   1.0000   1.0000   1.0000   1.0000   1.0000   1.0000
     1.0000   1.0000   1.0000   1.0000   1.0000   1.0000   1.0000   1.0000
     1.0000   1.0000   1.0000   1.0000   1.0000   1.0000   1.0000   1.0000
     1.0000   1.0000   1.0000   1.0000   1.0000   1.0000   1.0000   1.0000
     1.0000   1.0000   1.0000   1.0000

          k = 0.0000-1.1547 0.0000 (  9412 PWs)   bands (ev):

    -8.3777  -8.3777  -8.2474  -8.2474  -8.2474  -8.2474  -8.0429  -8.0429
    -8.0429  -8.0429  -7.9738  -7.9738   2.9008   2.9008   2.9008   2.9008
     2.9057   2.9057   2.9057   2.9057   3.2620   3.2620   3.3963   3.3963
     4.0372   4.0372   4.1419   4.1419   4.1419   4.1419   4.1767   4.1767
     4.1767   4.1767   4.2069   4.2069   4.3286   4.3286   4.3286   4.3286
     4.5846   4.5846   4.5846   4.5846   4.6125   4.6125   4.9055   4.9055
     5.6155   5.6155   5.8413   5.8413   5.8656   5.8656   5.8656   5.8656
     5.8985   5.8985   5.8985   5.8985   5.9388   5.9388   5.9388   5.9388
     6.0548   6.0548   6.0869   6.0869   6.0869   6.0869   6.1073   6.1073
     6.5942   6.5942   6.5973   6.5973   6.5973   6.5973   6.6261   6.6261
     6.6261   6.6261   6.7096   6.7096   7.2599   7.2599   7.3599   7.3599
     8.0140   8.0140   8.0140   8.0140   8.6516   8.6516   8.6516   8.6516
     9.1476   9.1476   9.1476   9.1476   9.2127   9.2127   9.6158   9.6158
     9.6158   9.6158   9.6474   9.6474

     occupation numbers 
     1.0000   1.0000   1.0000   1.0000   1.0000   1.0000   1.0000   1.0000
     1.0000   1.0000   1.0000   1.0000   1.0000   1.0000   1.0000   1.0000
     1.0000   1.0000   1.0000   1.0000   1.0000   1.0000   1.0000   1.0000
     1.0000   1.0000   1.0000   1.0000   1.0000   1.0000   1.0000   1.0000
     1.0000   1.0000   1.0000   1.0000   1.0000   1.0000   1.0000   1.0000
     1.0000   1.0000   1.0000   1.0000   1.0000   1.0000   1.0000   1.0000
     1.0000   1.0000   1.0000   1.0000   1.0000   1.0000   1.0000   1.0000
     1.0000   1.0000   1.0000   1.0000   1.0000   1.0000   1.0000   1.0000
     1.0000   1.0000   1.0000   1.0000   1.0000   1.0000   1.0000   1.0000
     1.0000   1.0000   1.0000   1.0000   1.0000   1.0000   1.0000   1.0000
     1.0000   1.0000   1.0000   1.0000   1.0000   1.0000   1.0000   1.0000
     1.0000   1.0000   1.0000   1.0000   1.0000   1.0000   1.0000   1.0000
     1.0000   1.0000   1.0000   1.0000   1.0000   1.0000   1.0000   1.0000
     1.0000   1.0000   1.0000   1.0000

          k = 0.0000-1.1547 0.0765 (  9400 PWs)   bands (ev):

    -8.3735  -8.3735  -8.2829  -8.2829  -8.2098  -8.2098  -8.0696  -8.0696
    -8.0208  -8.0208  -7.9756  -7.9756   2.8289   2.8289   2.8388   2.8388
     2.9856   2.9856   2.9962   2.9962   3.2481   3.2481   3.3738   3.3738
     4.0409   4.0409   4.1338   4.1338   4.1396   4.1396   4.1527   4.1527
     4.1989   4.1989   4.2280   4.2280   4.2778   4.2778   4.3861   4.3861
     4.5041   4.5041   4.5990   4.5990   4.6648   4.6648   4.8939   4.8939
     5.6311   5.6311   5.8418   5.8418   5.8462   5.8462   5.8585   5.8585
     5.8740   5.8740   5.9218   5.9218   5.9450   5.9450   5.9587   5.9587
     6.0478   6.0478   6.0699   6.0699   6.0989   6.0989   6.1077   6.1077
     6.5962   6.5962   6.5994   6.5994   6.6013   6.6013   6.6230   6.6230
     6.6257   6.6257   6.6941   6.6941   7.2880   7.2880   7.4182   7.4182
     7.8229   7.8229   8.2130   8.2130   8.3588   8.3588   8.9299   8.9299
     8.9833   8.9833   9.2361   9.2361   9.2933   9.2933   9.5737   9.5737
     9.6017   9.6017   9.6326   9.6326

     occupation numbers 
     1.0000   1.0000   1.0000   1.0000   1.0000   1.0000   1.0000   1.0000
     1.0000   1.0000   1.0000   1.0000   1.0000   1.0000   1.0000   1.0000
     1.0000   1.0000   1.0000   1.0000   1.0000   1.0000   1.0000   1.0000
     1.0000   1.0000   1.0000   1.0000   1.0000   1.0000   1.0000   1.0000
     1.0000   1.0000   1.0000   1.0000   1.0000   1.0000   1.0000   1.0000
     1.0000   1.0000   1.0000   1.0000   1.0000   1.0000   1.0000   1.0000
     1.0000   1.0000   1.0000   1.0000   1.0000   1.0000   1.0000   1.0000
     1.0000   1.0000   1.0000   1.0000   1.0000   1.0000   1.0000   1.0000
     1.0000   1.0000   1.0000   1.0000   1.0000   1.0000   1.0000   1.0000
     1.0000   1.0000   1.0000   1.0000   1.0000   1.0000   1.0000   1.0000
     1.0000   1.0000   1.0000   1.0000   1.0000   1.0000   1.0000   1.0000
     1.0000   1.0000   1.0000   1.0000   1.0000   1.0000   1.0000   1.0000
     1.0000   1.0000   1.0000   1.0000   1.0000   1.0000   1.0000   1.0000
     1.0000   1.0000   1.0000   1.0000

          k = 0.0000-1.1547 0.1529 (  9384 PWs)   bands (ev):

    -8.3612  -8.3612  -8.3147  -8.3147  -8.1718  -8.1718  -8.1005  -8.1005
    -8.0032  -8.0032  -7.9809  -7.9809   2.7860   2.7860   2.7931   2.7931
     3.0691   3.0691   3.1056   3.1056   3.2082   3.2082   3.3101   3.3101
     4.0523   4.0523   4.0987   4.0987   4.1458   4.1458   4.1719   4.1719
     4.1801   4.1801   4.2346   4.2346   4.2872   4.2872   4.4265   4.4265
     4.4474   4.4474   4.5616   4.5616   4.7407   4.7407   4.8601   4.8601
     5.6726   5.6726   5.7885   5.7885   5.8441   5.8441   5.8524   5.8524
     5.8837   5.8837   5.9073   5.9073   5.9815   5.9815   5.9853   5.9853
     6.0298   6.0298   6.0476   6.0476   6.1059   6.1059   6.1087   6.1087
     6.6019   6.6019   6.6083   6.6083   6.6099   6.6099   6.6171   6.6171
     6.6221   6.6221   6.6615   6.6615   7.3683   7.3683   7.5755   7.5755
     7.6460   7.6460   8.0690   8.0690   8.4141   8.4141   8.8036   8.8036
     9.1773   9.1773   9.3012   9.3012   9.4170   9.4170   9.4922   9.4922
     9.5228   9.5228   9.5885   9.5885

     occupation numbers 
     1.0000   1.0000   1.0000   1.0000   1.0000   1.0000   1.0000   1.0000
     1.0000   1.0000   1.0000   1.0000   1.0000   1.0000   1.0000   1.0000
     1.0000   1.0000   1.0000   1.0000   1.0000   1.0000   1.0000   1.0000
     1.0000   1.0000   1.0000   1.0000   1.0000   1.0000   1.0000   1.0000
     1.0000   1.0000   1.0000   1.0000   1.0000   1.0000   1.0000   1.0000
     1.0000   1.0000   1.0000   1.0000   1.0000   1.0000   1.0000   1.0000
     1.0000   1.0000   1.0000   1.0000   1.0000   1.0000   1.0000   1.0000
     1.0000   1.0000   1.0000   1.0000   1.0000   1.0000   1.0000   1.0000
     1.0000   1.0000   1.0000   1.0000   1.0000   1.0000   1.0000   1.0000
     1.0000   1.0000   1.0000   1.0000   1.0000   1.0000   1.0000   1.0000
     1.0000   1.0000   1.0000   1.0000   1.0000   1.0000   1.0000   1.0000
     1.0000   1.0000   1.0000   1.0000   1.0000   1.0000   1.0000   1.0000
     1.0000   1.0000   1.0000   1.0000   1.0000   1.0000   1.0000   1.0000
     1.0000   1.0000   1.0000   1.0000

          k = 0.0000-1.1547-0.2294 (  9400 PWs)   bands (ev):

    -8.3413  -8.3413  -8.3413  -8.3413  -8.1349  -8.1349  -8.1349  -8.1349
    -7.9900  -7.9900  -7.9900  -7.9900   2.7743   2.7743   2.7743   2.7743
     3.1462   3.1462   3.1462   3.1462   3.2155   3.2155   3.2155   3.2155
     4.0714   4.0714   4.0714   4.0714   4.1601   4.1601   4.1601   4.1601
     4.1992   4.1992   4.1992   4.1992   4.3536   4.3536   4.3536   4.3536
     4.5082   4.5082   4.5082   4.5082   4.8074   4.8074   4.8074   4.8074
     5.7285   5.7285   5.7285   5.7285   5.8477   5.8477   5.8477   5.8477
     5.8948   5.8948   5.8948   5.8948   6.0060   6.0060   6.0060   6.0060
     6.0194   6.0194   6.0194   6.0194   6.1085   6.1085   6.1085   6.1085
     6.6096   6.6096   6.6096   6.6096   6.6159   6.6159   6.6159   6.6159
     6.6308   6.6308   6.6308   6.6308   7.4912   7.4912   7.4912   7.4912
     7.8009   7.8009   7.8009   7.8009   8.6125   8.6125   8.6125   8.6125
     9.3789   9.3789   9.3789   9.3789   9.3935   9.3935   9.3935   9.3935
     9.5161   9.5161   9.5161   9.5161

     occupation numbers 
     1.0000   1.0000   1.0000   1.0000   1.0000   1.0000   1.0000   1.0000
     1.0000   1.0000   1.0000   1.0000   1.0000   1.0000   1.0000   1.0000
     1.0000   1.0000   1.0000   1.0000   1.0000   1.0000   1.0000   1.0000
     1.0000   1.0000   1.0000   1.0000   1.0000   1.0000   1.0000   1.0000
     1.0000   1.0000   1.0000   1.0000   1.0000   1.0000   1.0000   1.0000
     1.0000   1.0000   1.0000   1.0000   1.0000   1.0000   1.0000   1.0000
     1.0000   1.0000   1.0000   1.0000   1.0000   1.0000   1.0000   1.0000
     1.0000   1.0000   1.0000   1.0000   1.0000   1.0000   1.0000   1.0000
     1.0000   1.0000   1.0000   1.0000   1.0000   1.0000   1.0000   1.0000
     1.0000   1.0000   1.0000   1.0000   1.0000   1.0000   1.0000   1.0000
     1.0000   1.0000   1.0000   1.0000   1.0000   1.0000   1.0000   1.0000
     1.0000   1.0000   1.0000   1.0000   1.0000   1.0000   1.0000   1.0000
     1.0000   1.0000   1.0000   1.0000   1.0000   1.0000   1.0000   1.0000
     1.0000   1.0000   1.0000   1.0000

          k = 0.1667 0.0962 0.0000 (  9415 PWs)   bands (ev):

    -9.2784  -8.9717  -8.9717  -8.4726  -8.3397  -8.3396  -8.3158  -8.3158
    -8.0517  -8.0517  -8.0190  -7.9505   2.8837   2.8837   2.9621   2.9621
     3.1389   3.1389   3.1975   3.3492   3.3492   3.5168   3.5738   3.6735
     3.8039   3.8206   3.8206   3.8292   3.8292   3.8759   3.9719   3.9719
     3.9976   3.9976   4.0286   4.1070   4.1070   4.1148   4.1539   4.1563
     4.1563   4.1727   4.3006   4.3006   4.5321   4.5321   4.6356   4.8257
     5.5061   5.5283   5.5985   5.6902   5.6902   5.6962   5.6962   5.7838
     5.8096   5.8096   5.8299   5.8299   5.9238   5.9238   5.9311   5.9311
     5.9418   5.9418   5.9487   5.9670   6.0486   6.0502   6.0824   6.0824
     6.2513   6.3063   6.6119   6.6119   7.0169   7.0169   7.0936   7.4254
     7.5366   7.6692   7.6692   8.1288   8.1288   8.5809   8.5809   8.9590
     9.0901   9.2308   9.2308   9.2763   9.2763   9.3623   9.3657   9.3657
     9.4620   9.4620   9.6953   9.6953   9.7208  10.1538  10.1865  10.1865
    10.2009  10.2009  10.5300  10.6089

     occupation numbers 
     1.0000   1.0000   1.0000   1.0000   1.0000   1.0000   1.0000   1.0000
     1.0000   1.0000   1.0000   1.0000   1.0000   1.0000   1.0000   1.0000
     1.0000   1.0000   1.0000   1.0000   1.0000   1.0000   1.0000   1.0000
     1.0000   1.0000   1.0000   1.0000   1.0000   1.0000   1.0000   1.0000
     1.0000   1.0000   1.0000   1.0000   1.0000   1.0000   1.0000   1.0000
     1.0000   1.0000   1.0000   1.0000   1.0000   1.0000   1.0000   1.0000
     1.0000   1.0000   1.0000   1.0000   1.0000   1.0000   1.0000   1.0000
     1.0000   1.0000   1.0000   1.0000   1.0000   1.0000   1.0000   1.0000
     1.0000   1.0000   1.0000   1.0000   1.0000   1.0000   1.0000   1.0000
     1.0000   1.0000   1.0000   1.0000   1.0000   1.0000   1.0000   1.0000
     1.0000   1.0000   1.0000   1.0000   1.0000   1.0000   1.0000   1.0000
     1.0000   1.0000   1.0000   1.0000   1.0000   1.0000   1.0000   1.0000
     1.0000   1.0000   1.0000   1.0000   1.0000   1.0000   1.0000   1.0000
     1.0000   1.0000   1.0000   1.0000

          k = 0.1667 0.0962 0.0765 (  9430 PWs)   bands (ev):

    -9.2692  -9.0600  -8.8733  -8.4676  -8.4407  -8.3592  -8.2694  -8.2481
    -8.0883  -8.0288  -8.0204  -7.9532   2.8289   2.8778   2.9531   3.0689
     3.1085   3.1855   3.1983   3.2638   3.4387   3.4912   3.5471   3.6649
     3.8040   3.8171   3.8180   3.8316   3.8451   3.8690   3.9358   3.9596
     4.0086   4.0320   4.0362   4.1058   4.1102   4.1166   4.1171   4.1482
     4.1653   4.2032   4.2465   4.3623   4.4579   4.6057   4.6168   4.8150
     5.5124   5.5338   5.6044   5.6425   5.6518   5.7394   5.7419   5.7560
     5.7851   5.8161   5.8450   5.8627   5.8986   5.9051   5.9201   5.9423
     5.9493   5.9533   5.9643   5.9666   6.0450   6.0467   6.0751   6.1127
     6.2543   6.3580   6.5252   6.6925   6.9620   7.0653   7.1049   7.3427
     7.4505   7.5565   7.9464   7.9913   8.2856   8.3202   8.8727   8.9701
     9.0698   9.0790   9.1014   9.2243   9.3559   9.3734   9.3854   9.4734
     9.5061   9.5789   9.6513   9.6795   9.7063  10.0598  10.0750  10.1137
    10.2862  10.3275  10.5197  10.6008

     occupation numbers 
     1.0000   1.0000   1.0000   1.0000   1.0000   1.0000   1.0000   1.0000
     1.0000   1.0000   1.0000   1.0000   1.0000   1.0000   1.0000   1.0000
     1.0000   1.0000   1.0000   1.0000   1.0000   1.0000   1.0000   1.0000
     1.0000   1.0000   1.0000   1.0000   1.0000   1.0000   1.0000   1.0000
     1.0000   1.0000   1.0000   1.0000   1.0000   1.0000   1.0000   1.0000
     1.0000   1.0000   1.0000   1.0000   1.0000   1.0000   1.0000   1.0000
     1.0000   1.0000   1.0000   1.0000   1.0000   1.0000   1.0000   1.0000
     1.0000   1.0000   1.0000   1.0000   1.0000   1.0000   1.0000   1.0000
     1.0000   1.0000   1.0000   1.0000   1.0000   1.0000   1.0000   1.0000
     1.0000   1.0000   1.0000   1.0000   1.0000   1.0000   1.0000   1.0000
     1.0000   1.0000   1.0000   1.0000   1.0000   1.0000   1.0000   1.0000
     1.0000   1.0000   1.0000   1.0000   1.0000   1.0000   1.0000   1.0000
     1.0000   1.0000   1.0000   1.0000   1.0000   1.0000   1.0000   1.0000
     1.0000   1.0000   1.0000   1.0000

          k = 0.1667 0.0962 0.1529 (  9442 PWs)   bands (ev):

    -9.2418  -9.1358  -8.7677  -8.5480  -8.4530  -8.3975  -8.2216  -8.1691
    -8.1295  -8.0577  -7.9950  -7.9615   2.7973   2.8210   3.0270   3.1082
     3.1503   3.1901   3.1905   3.2817   3.4189   3.4752   3.5225   3.6384
     3.8047   3.8107   3.8212   3.8492   3.8521   3.8663   3.9023   3.9243
     4.0423   4.0433   4.0731   4.0845   4.0964   4.1130   4.1316   4.1362
     4.1474   4.2011   4.2577   4.3863   4.4303   4.5671   4.6752   4.7842
     5.5312   5.5504   5.5984   5.6112   5.6243   5.7045   5.7868   5.7874
     5.7890   5.8047   5.8620   5.8667   5.8719   5.8996   5.9139   5.9546
     5.9599   5.9606   5.9652   5.9875   6.0065   6.0305   6.1256   6.1358
     6.2762   6.4332   6.5089   6.7675   6.9021   7.0267   7.1041   7.1244
     7.5228   7.6311   7.7794   8.0105   8.2981   8.5150   8.8435   8.8942
     9.0033   9.1324   9.1349   9.1409   9.2642   9.4480   9.4948   9.5416
     9.6111   9.6186   9.6630   9.6897   9.7026   9.9102   9.9547  10.0073
    10.3712  10.4340  10.4894  10.5718

     occupation numbers 
     1.0000   1.0000   1.0000   1.0000   1.0000   1.0000   1.0000   1.0000
     1.0000   1.0000   1.0000   1.0000   1.0000   1.0000   1.0000   1.0000
     1.0000   1.0000   1.0000   1.0000   1.0000   1.0000   1.0000   1.0000
     1.0000   1.0000   1.0000   1.0000   1.0000   1.0000   1.0000   1.0000
     1.0000   1.0000   1.0000   1.0000   1.0000   1.0000   1.0000   1.0000
     1.0000   1.0000   1.0000   1.0000   1.0000   1.0000   1.0000   1.0000
     1.0000   1.0000   1.0000   1.0000   1.0000   1.0000   1.0000   1.0000
     1.0000   1.0000   1.0000   1.0000   1.0000   1.0000   1.0000   1.0000
     1.0000   1.0000   1.0000   1.0000   1.0000   1.0000   1.0000   1.0000
     1.0000   1.0000   1.0000   1.0000   1.0000   1.0000   1.0000   1.0000
     1.0000   1.0000   1.0000   1.0000   1.0000   1.0000   1.0000   1.0000
     1.0000   1.0000   1.0000   1.0000   1.0000   1.0000   1.0000   1.0000
     1.0000   1.0000   1.0000   1.0000   1.0000   1.0000   1.0000   1.0000
     1.0000   1.0000   1.0000   1.0000

          k = 0.1667 0.0962-0.2294 (  9450 PWs)   bands (ev):

    -9.1969  -9.1969  -8.6582  -8.6582  -8.4293  -8.4293  -8.1745  -8.1745
    -8.1050  -8.1050  -7.9753  -7.9753   2.7939   2.7939   3.0955   3.0955
     3.1367   3.1367   3.3126   3.3126   3.3794   3.3794   3.5911   3.5911
     3.8067   3.8067   3.8336   3.8336   3.8730   3.8730   3.8929   3.8929
     4.0599   4.0599   4.0735   4.0735   4.1058   4.1058   4.1279   4.1279
     4.1642   4.1642   4.3190   4.3190   4.5010   4.5010   4.7362   4.7362
     5.5603   5.5603   5.5768   5.5768   5.6590   5.6590   5.7957   5.7957
     5.8290   5.8290   5.8322   5.8322   5.8802   5.8802   5.9617   5.9617
     5.9620   5.9620   5.9634   5.9634   6.0104   6.0104   6.1460   6.1460
     6.3422   6.3422   6.7405   6.7405   6.8372   6.8372   7.1264   7.1264
     7.6354   7.6354   7.7838   7.7838   8.5831   8.5831   8.7078   8.7078
     9.0577   9.0577   9.1897   9.1897   9.3685   9.3685   9.5334   9.5334
     9.5920   9.5920   9.7586   9.7586   9.8293   9.8293   9.8599   9.8599
    10.4395  10.4395  10.5164  10.5164

     occupation numbers 
     1.0000   1.0000   1.0000   1.0000   1.0000   1.0000   1.0000   1.0000
     1.0000   1.0000   1.0000   1.0000   1.0000   1.0000   1.0000   1.0000
     1.0000   1.0000   1.0000   1.0000   1.0000   1.0000   1.0000   1.0000
     1.0000   1.0000   1.0000   1.0000   1.0000   1.0000   1.0000   1.0000
     1.0000   1.0000   1.0000   1.0000   1.0000   1.0000   1.0000   1.0000
     1.0000   1.0000   1.0000   1.0000   1.0000   1.0000   1.0000   1.0000
     1.0000   1.0000   1.0000   1.0000   1.0000   1.0000   1.0000   1.0000
     1.0000   1.0000   1.0000   1.0000   1.0000   1.0000   1.0000   1.0000
     1.0000   1.0000   1.0000   1.0000   1.0000   1.0000   1.0000   1.0000
     1.0000   1.0000   1.0000   1.0000   1.0000   1.0000   1.0000   1.0000
     1.0000   1.0000   1.0000   1.0000   1.0000   1.0000   1.0000   1.0000
     1.0000   1.0000   1.0000   1.0000   1.0000   1.0000   1.0000   1.0000
     1.0000   1.0000   1.0000   1.0000   1.0000   1.0000   1.0000   1.0000
     1.0000   1.0000   1.0000   1.0000

          k = 0.1667 0.4811 0.0000 (  9407 PWs)   bands (ev):

    -9.0038  -8.7382  -8.7382  -8.5895  -8.4036  -8.4036  -8.2125  -8.2125
    -8.0717  -8.0717  -7.9594  -7.9328   3.0194   3.0194   3.0844   3.0844
     3.0883   3.0883   3.1431   3.1431   3.3219   3.3973   3.6170   3.6899
     3.9074   3.9074   3.9465   3.9506   3.9506   3.9766   3.9766   3.9935
     4.0100   4.0100   4.0272   4.0706   4.0706   4.1210   4.1860   4.1860
     4.2691   4.3114   4.3114   4.3682   4.4475   4.4475   4.6760   4.7119
     5.3893   5.4086   5.5464   5.5929   5.6603   5.6603   5.6626   5.6626
     5.7077   5.7077   5.8112   5.8112   5.8839   5.9329   5.9329   5.9637
     5.9786   5.9786   5.9794   5.9794   6.0055   6.0432   6.0822   6.0822
     6.4739   6.4823   6.9511   6.9511   7.1311   7.3884   7.4938   7.4938
     7.6188   7.6188   7.9177   7.9396   7.9396   8.0131   8.3467   8.4227
     8.4227   8.4956   8.4956   8.6288   8.6288   8.9257   8.9257   9.0517
     9.0517   9.1440   9.5333   9.5908   9.7709   9.7709   9.8124   9.8124
    10.0583  10.0583  10.1928  10.2248

     occupation numbers 
     1.0000   1.0000   1.0000   1.0000   1.0000   1.0000   1.0000   1.0000
     1.0000   1.0000   1.0000   1.0000   1.0000   1.0000   1.0000   1.0000
     1.0000   1.0000   1.0000   1.0000   1.0000   1.0000   1.0000   1.0000
     1.0000   1.0000   1.0000   1.0000   1.0000   1.0000   1.0000   1.0000
     1.0000   1.0000   1.0000   1.0000   1.0000   1.0000   1.0000   1.0000
     1.0000   1.0000   1.0000   1.0000   1.0000   1.0000   1.0000   1.0000
     1.0000   1.0000   1.0000   1.0000   1.0000   1.0000   1.0000   1.0000
     1.0000   1.0000   1.0000   1.0000   1.0000   1.0000   1.0000   1.0000
[...]
     xc contribution           =    -660.62391606 Ry
     ewald contribution        =   -1392.24162763 Ry

     convergence has been achieved in  20 iterations

     Forces acting on atoms (cartesian axes, Ry/au):

     atom    1 type  1   force =     0.00001250    0.00000722   -0.12003588
     atom    2 type  1   force =    -0.00001352   -0.00000781   -0.12003575
     atom    3 type  2   force =    -0.00000032   -0.00000018    0.12003563
     atom    4 type  2   force =     0.00000046    0.00000026    0.12003561
     atom    5 type  1   force =     0.00001311    0.00000757   -0.12003548
     atom    6 type  1   force =    -0.00001329   -0.00000767   -0.12003587
     atom    7 type  2   force =    -0.00000025   -0.00000014    0.12003620
     atom    8 type  2   force =     0.00000042    0.00000024    0.12003608
     atom    9 type  1   force =     0.00001233    0.00000712   -0.12003551
     atom   10 type  1   force =    -0.00001242   -0.00000717   -0.12003671
     atom   11 type  2   force =    -0.00000014   -0.00000008    0.12003543
     atom   12 type  2   force =     0.00000047    0.00000027    0.12003570
     atom   13 type  1   force =     0.00001333    0.00000770   -0.12003585
     atom   14 type  1   force =    -0.00001267   -0.00000732   -0.12003497
     atom   15 type  2   force =    -0.00000044   -0.00000026    0.12003568
     atom   16 type  2   force =     0.00000029    0.00000017    0.12003539
     atom   17 type  1   force =     0.00001295    0.00000748   -0.12003705
     atom   18 type  1   force =    -0.00001237   -0.00000714   -0.12003464
     atom   19 type  2   force =    -0.00000049   -0.00000028    0.12003607
     atom   20 type  2   force =     0.00000044    0.00000025    0.12003596
     atom   21 type  1   force =     0.00001348    0.00000778   -0.12003498
     atom   22 type  1   force =    -0.00001361   -0.00000786   -0.12003633
     atom   23 type  2   force =    -0.00000045   -0.00000026    0.12003542
     atom   24 type  2   force =     0.00000021    0.00000012    0.12003584
     The non-local contrib.  to forces
     atom    1 type  1   force =    -0.00001675   -0.00000967   -0.34949195
     atom    2 type  1   force =     0.00001638    0.00000945   -0.34949186
     atom    3 type  2   force =    -0.00013790   -0.00007962   -0.20754740
     atom    4 type  2   force =     0.00013826    0.00007982   -0.20754751
     atom    5 type  1   force =    -0.00001650   -0.00000953   -0.34949225
     atom    6 type  1   force =     0.00001646    0.00000951   -0.34949231
     atom    7 type  2   force =    -0.00013802   -0.00007968   -0.20754691
     atom    8 type  2   force =     0.00013808    0.00007972   -0.20754720
     atom    9 type  1   force =    -0.00001697   -0.00000980   -0.34949183
     atom   10 type  1   force =     0.00001679    0.00000969   -0.34949293
     atom   11 type  2   force =    -0.00013770   -0.00007950   -0.20754801
     atom   12 type  2   force =     0.00013810    0.00007973   -0.20754765
     atom   13 type  1   force =    -0.00001644   -0.00000949   -0.34949214
     atom   14 type  1   force =     0.00001684    0.00000972   -0.34949142
     atom   15 type  2   force =    -0.00013839   -0.00007990   -0.20754769
     atom   16 type  2   force =     0.00013807    0.00007972   -0.20754755
     atom   17 type  1   force =    -0.00001670   -0.00000964   -0.34949285
     atom   18 type  1   force =     0.00001670    0.00000964   -0.34949160
     atom   19 type  2   force =    -0.00013820   -0.00007979   -0.20754708
     atom   20 type  2   force =     0.00013824    0.00007981   -0.20754705
     atom   21 type  1   force =    -0.00001631   -0.00000942   -0.34949169
     atom   22 type  1   force =     0.00001631    0.00000941   -0.34949273
     atom   23 type  2   force =    -0.00013835   -0.00007988   -0.20754802
     atom   24 type  2   force =     0.00013793    0.00007963   -0.20754751
     The ionic contribution  to forces
     atom    1 type  1   force =     0.00000001    0.00000001   -2.45246309
     atom    2 type  1   force =     0.00000002    0.00000001   -2.45246304
     atom    3 type  2   force =     0.00000001    0.00000001    2.45246308
     atom    4 type  2   force =     0.00000001    0.00000000    2.45246306
     atom    5 type  1   force =     0.00000001    0.00000001   -2.45246305
     atom    6 type  1   force =     0.00000002    0.00000001   -2.45246309
     atom    7 type  2   force =     0.00000001    0.00000001    2.45246306
     atom    8 type  2   force =     0.00000001    0.00000000    2.45246309
     atom    9 type  1   force =     0.00000001    0.00000001   -2.45246309
     atom   10 type  1   force =     0.00000002    0.00000001   -2.45246309
     atom   11 type  2   force =     0.00000001    0.00000001    2.45246309
     atom   12 type  2   force =     0.00000001    0.00000000    2.45246307
     atom   13 type  1   force =    -0.00000002   -0.00000001   -2.45246309
     atom   14 type  1   force =    -0.00000001   -0.00000001   -2.45246305
     atom   15 type  2   force =    -0.00000001   -0.00000000    2.45246307
     atom   16 type  2   force =    -0.00000001   -0.00000001    2.45246306
     atom   17 type  1   force =    -0.00000002   -0.00000001   -2.45246304
     atom   18 type  1   force =    -0.00000001   -0.00000001   -2.45246309
     atom   19 type  2   force =    -0.00000001   -0.00000000    2.45246306
     atom   20 type  2   force =    -0.00000001   -0.00000001    2.45246309
     atom   21 type  1   force =    -0.00000002   -0.00000001   -2.45246309
     atom   22 type  1   force =    -0.00000001   -0.00000001   -2.45246309
     atom   23 type  2   force =    -0.00000001   -0.00000000    2.45246309
     atom   24 type  2   force =    -0.00000001   -0.00000001    2.45246308
     The local contribution  to forces
     atom    1 type  1   force =     0.00003224    0.00001861    2.64889729
     atom    2 type  1   force =    -0.00003067   -0.00001780    2.64889696
     atom    3 type  2   force =     0.00013688    0.00007903   -2.12599779
     atom    4 type  2   force =    -0.00013669   -0.00007894   -2.12599744
     atom    5 type  1   force =     0.00003140    0.00001813    2.64889748
     atom    6 type  1   force =    -0.00003103   -0.00001801    2.64889790
     atom    7 type  2   force =     0.00013648    0.00007879   -2.12599597
     atom    8 type  2   force =    -0.00013622   -0.00007867   -2.12599674
     atom    9 type  1   force =     0.00003268    0.00001887    2.64889695
     atom   10 type  1   force =    -0.00003217   -0.00001867    2.64889939
     atom   11 type  2   force =     0.00013696    0.00007907   -2.12599785
     atom   12 type  2   force =    -0.00013612   -0.00007862   -2.12599758
     atom   13 type  1   force =     0.00003093    0.00001795    2.64889727
     atom   14 type  1   force =    -0.00003229   -0.00001864    2.64889622
     atom   15 type  2   force =     0.00013636    0.00007875   -2.12599794
     atom   16 type  2   force =    -0.00013655   -0.00007884   -2.12599738
     atom   17 type  1   force =     0.00003165    0.00001837    2.64889942
     atom   18 type  1   force =    -0.00003214   -0.00001855    2.64889635
     atom   19 type  2   force =     0.00013628    0.00007870   -2.12599652
     atom   20 type  2   force =    -0.00013672   -0.00007894   -2.12599657
     atom   21 type  1   force =     0.00003057    0.00001775    2.64889610
     atom   22 type  1   force =    -0.00003071   -0.00001773    2.64889921
     atom   23 type  2   force =     0.00013547    0.00007824   -2.12599791
     atom   24 type  2   force =    -0.00013609   -0.00007857   -2.12599690
     The core correction contribution to forces
     atom    1 type  1   force =    -0.00000202   -0.00000121    0.03301099
     atom    2 type  1   force =     0.00000176    0.00000104    0.03301108
     atom    3 type  2   force =     0.00000158    0.00000092    0.00111739
     atom    4 type  2   force =    -0.00000159   -0.00000093    0.00111739
     atom    5 type  1   force =    -0.00000201   -0.00000120    0.03301098
     atom    6 type  1   force =     0.00000177    0.00000104    0.03301107
     atom    7 type  2   force =     0.00000158    0.00000092    0.00111739
     atom    8 type  2   force =    -0.00000158   -0.00000093    0.00111739
     atom    9 type  1   force =    -0.00000201   -0.00000120    0.03301100
     atom   10 type  1   force =     0.00000178    0.00000105    0.03301107
     atom   11 type  2   force =     0.00000157    0.00000092    0.00111740
     atom   12 type  2   force =    -0.00000158   -0.00000093    0.00111739
     atom   13 type  1   force =    -0.00000176   -0.00000104    0.03301109
     atom   14 type  1   force =     0.00000202    0.00000120    0.03301097
     atom   15 type  2   force =     0.00000159    0.00000093    0.00111739
     atom   16 type  2   force =    -0.00000158   -0.00000092    0.00111739
     atom   17 type  1   force =    -0.00000177   -0.00000105    0.03301107
     atom   18 type  1   force =     0.00000201    0.00000120    0.03301096
     atom   19 type  2   force =     0.00000159    0.00000093    0.00111738
     atom   20 type  2   force =    -0.00000158   -0.00000093    0.00111739
     atom   21 type  1   force =    -0.00000175   -0.00000104    0.03301111
     atom   22 type  1   force =     0.00000200    0.00000120    0.03301096
     atom   23 type  2   force =     0.00000158    0.00000093    0.00111739
     atom   24 type  2   force =    -0.00000158   -0.00000092    0.00111740
     The Hubbard contrib.    to forces
     atom    1 type  1   force =     0.00000000    0.00000000    0.00000000
     atom    2 type  1   force =     0.00000000    0.00000000    0.00000000
     atom    3 type  2   force =     0.00000000    0.00000000    0.00000000
     atom    4 type  2   force =     0.00000000    0.00000000    0.00000000
     atom    5 type  1   force =     0.00000000    0.00000000    0.00000000
     atom    6 type  1   force =     0.00000000    0.00000000    0.00000000
     atom    7 type  2   force =     0.00000000    0.00000000    0.00000000
     atom    8 type  2   force =     0.00000000    0.00000000    0.00000000
     atom    9 type  1   force =     0.00000000    0.00000000    0.00000000
     atom   10 type  1   force =     0.00000000    0.00000000    0.00000000
     atom   11 type  2   force =     0.00000000    0.00000000    0.00000000
     atom   12 type  2   force =     0.00000000    0.00000000    0.00000000
     atom   13 type  1   force =     0.00000000    0.00000000    0.00000000
     atom   14 type  1   force =     0.00000000    0.00000000    0.00000000
     atom   15 type  2   force =     0.00000000    0.00000000    0.00000000
     atom   16 type  2   force =     0.00000000    0.00000000    0.00000000
     atom   17 type  1   force =     0.00000000    0.00000000    0.00000000
     atom   18 type  1   force =     0.00000000    0.00000000    0.00000000
     atom   19 type  2   force =     0.00000000    0.00000000    0.00000000
     atom   20 type  2   force =     0.00000000    0.00000000    0.00000000
     atom   21 type  1   force =     0.00000000    0.00000000    0.00000000
     atom   22 type  1   force =     0.00000000    0.00000000    0.00000000
     atom   23 type  2   force =     0.00000000    0.00000000    0.00000000
     atom   24 type  2   force =     0.00000000    0.00000000    0.00000000
     The SCF correction term to forces
     atom    1 type  1   force =    -0.00000096   -0.00000055    0.00001366
     atom    2 type  1   force =    -0.00000097   -0.00000056    0.00001389
     atom    3 type  2   force =    -0.00000089   -0.00000051    0.00000313
     atom    4 type  2   force =     0.00000048    0.00000028    0.00000289
     atom    5 type  1   force =     0.00000023    0.00000013    0.00001413
     atom    6 type  1   force =    -0.00000047   -0.00000027    0.00001334
     atom    7 type  2   force =    -0.00000029   -0.00000017    0.00000141
     atom    8 type  2   force =     0.00000015    0.00000009    0.00000232
     atom    9 type  1   force =    -0.00000136   -0.00000079    0.00001425
     atom   10 type  1   force =     0.00000119    0.00000069    0.00001163
     atom   11 type  2   force =    -0.00000099   -0.00000057    0.00000358
     atom   12 type  2   force =     0.00000009    0.00000005    0.00000325
     atom   13 type  1   force =     0.00000059    0.00000034    0.00001378
     atom   14 type  1   force =     0.00000076    0.00000044    0.00001508
     atom   15 type  2   force =    -0.00000000   -0.00000000    0.00000362
     atom   16 type  2   force =     0.00000036    0.00000021    0.00000264
     atom   17 type  1   force =    -0.00000024   -0.00000014    0.00001113
     atom   18 type  1   force =     0.00000105    0.00000061    0.00001552
     atom   19 type  2   force =    -0.00000015   -0.00000009    0.00000199
     atom   20 type  2   force =     0.00000052    0.00000030    0.00000188
     atom   21 type  1   force =     0.00000097    0.00000056    0.00001537
     atom   22 type  1   force =    -0.00000120   -0.00000069    0.00001210
     atom   23 type  2   force =     0.00000084    0.00000049    0.00000365
     atom   24 type  2   force =    -0.00000003   -0.00000002    0.00000256

     Total force =     0.588053     Total SCF correction =     0.000049

     init_run     :     21.06s CPU     12.71s WALL (       1 calls)
     electrons    :   1402.31s CPU    842.79s WALL (       1 calls)
     forces       :      9.19s CPU      5.49s WALL (       1 calls)

     Called by init_run:
     wfcinit      :     15.89s CPU      8.89s WALL (       1 calls)
     wfcinit:atom :      0.09s CPU      0.08s WALL (      10 calls)
     wfcinit:wfcr :     15.08s CPU      8.19s WALL (      10 calls)
     potinit      :      1.81s CPU      1.18s WALL (       1 calls)
     hinit0       :      2.99s CPU      2.34s WALL (       1 calls)

     Called by electrons:
     c_bands      :   1273.39s CPU    763.02s WALL (      20 calls)
     sum_band     :    116.64s CPU     71.31s WALL (      20 calls)
     v_of_rho     :      5.89s CPU      4.02s WALL (      21 calls)
     v_h          :      0.29s CPU      0.21s WALL (      21 calls)
     v_xc         :      5.85s CPU      3.99s WALL (      22 calls)
     newd         :      5.56s CPU      3.73s WALL (      21 calls)
     mix_rho      :      0.62s CPU      0.49s WALL (      20 calls)

     Called by c_bands:
     init_us_2    :      5.23s CPU      3.49s WALL (     420 calls)
     init_us_2:cp :      5.22s CPU      3.48s WALL (     420 calls)
     cegterg      :   1196.10s CPU    702.68s WALL (     200 calls)

     Called by sum_band:
     sum_band:wei :      0.01s CPU      0.02s WALL (      20 calls)
     sum_band:loo :    106.88s CPU     63.42s WALL (      20 calls)
     sum_band:buf :      0.71s CPU      0.45s WALL (     200 calls)
     sum_band:ini :      1.91s CPU      1.36s WALL (     200 calls)
     sum_band:cal :     20.13s CPU     10.54s WALL (     200 calls)
     sum_band:bec :      1.48s CPU      1.22s WALL (     200 calls)
     addusdens    :      6.12s CPU      4.62s WALL (      20 calls)
     addusd:skk   :      0.18s CPU      0.14s WALL (      40 calls)
     addusd:dgemm :      0.74s CPU      0.39s WALL (      40 calls)
     addusd:qvan2 :      3.81s CPU      2.88s WALL (      40 calls)

     Called by *egterg:
     cdiaghg      :     78.64s CPU     64.31s WALL (    1508 calls)
     cegterg:over :     93.34s CPU     50.16s WALL (    1308 calls)
     cegterg:upda :     59.32s CPU     34.36s WALL (    1308 calls)
     cegterg:last :    126.07s CPU     69.45s WALL (     792 calls)
     cdiaghg:chol :      3.73s CPU      3.21s WALL (    1508 calls)
     cdiaghg:inve :      1.28s CPU      1.03s WALL (    1508 calls)
     cdiaghg:para :     13.47s CPU      9.76s WALL (    3016 calls)
     h_psi        :    746.30s CPU    433.03s WALL (    1518 calls)
     s_psi        :     75.61s CPU     38.28s WALL (    1518 calls)
     g_psi        :      5.05s CPU      4.16s WALL (    1308 calls)

     Called by h_psi:
     h_psi:calbec :     88.95s CPU     46.46s WALL (    1518 calls)
     vloc_psi     :    578.00s CPU    344.67s WALL (    1518 calls)
     add_vuspsi   :     74.83s CPU     38.24s WALL (    1518 calls)

     General routines
     calbec       :    113.30s CPU     59.34s WALL (    1758 calls)
     fft          :      3.61s CPU      2.87s WALL (     282 calls)
     ffts         :      0.58s CPU      0.50s WALL (      41 calls)
     fftw         :    563.92s CPU    330.91s WALL (  197330 calls)
     interpolate  :      0.58s CPU      0.49s WALL (      21 calls)

     Parallel routines

     PWSCF        :  23m53.11s CPU  14m21.55s WALL


   This run was terminated on:  19:25:29   4Sep2025            

=------------------------------------------------------------------------------=
   JOB DONE.
=------------------------------------------------------------------------------=
Note: The following floating-point exceptions are signalling: IEEE_UNDERFLOW_FLAG IEEE_DENORMAL
Note: The following floating-point exceptions are signalling: IEEE_UNDERFLOW_FLAG IEEE_DENORMAL
Note: The following floating-point exceptions are signalling: IEEE_UNDERFLOW_FLAG IEEE_DENORMAL
Note: The following floating-point exceptions are signalling: IEEE_UNDERFLOW_FLAG IEEE_DENORMAL
Note: The following floating-point exceptions are signalling: IEEE_UNDERFLOW_FLAG IEEE_DENORMAL
Note: The following floating-point exceptions are signalling: IEEE_UNDERFLOW_FLAG IEEE_DENORMAL
Note: The following floating-point exceptions are signalling: IEEE_UNDERFLOW_FLAG IEEE_DENORMAL
Note: The following floating-point exceptions are signalling: IEEE_UNDERFLOW_FLAG IEEE_DENORMAL
Note: The following floating-point exceptions are signalling: IEEE_UNDERFLOW_FLAG IEEE_DENORMAL
Note: The following floating-point exceptions are signalling: IEEE_UNDERFLOW_FLAG IEEE_DENORMAL
Note: The following floating-point exceptions are signalling: IEEE_UNDERFLOW_FLAG IEEE_DENORMAL
Note: The following floating-point exceptions are signalling: IEEE_UNDERFLOW_FLAG IEEE_DENORMAL
Note: The following floating-point exceptions are signalling: IEEE_UNDERFLOW_FLAG IEEE_DENORMAL
Note: The following floating-point exceptions are signalling: IEEE_UNDERFLOW_FLAG IEEE_DENORMAL
Note: The following floating-point exceptions are signalling: IEEE_UNDERFLOW_FLAG IEEE_DENORMAL
Note: The following floating-point exceptions are signalling: IEEE_UNDERFLOW_FLAG IEEE_DENORMAL
Note: The following floating-point exceptions are signalling: IEEE_UNDERFLOW_FLAG IEEE_DENORMAL
Note: The following floating-point exceptions are signalling: IEEE_UNDERFLOW_FLAG IEEE_DENORMAL
Note: The following floating-point exceptions are signalling: IEEE_UNDERFLOW_FLAG IEEE_DENORMAL
Note: The following floating-point exceptions are signalling: IEEE_UNDERFLOW_FLAG IEEE_DENORMAL
Note: The following floating-point exceptions are signalling: IEEE_UNDERFLOW_FLAG IEEE_DENORMAL
Note: The following floating-point exceptions are signalling: IEEE_UNDERFLOW_FLAG IEEE_DENORMAL
Note: The following floating-point exceptions are signalling: IEEE_UNDERFLOW_FLAG IEEE_DENORMAL
Note: The following floating-point exceptions are signalling: IEEE_UNDERFLOW_FLAG IEEE_DENORMAL
Note: The following floating-point exceptions are signalling: IEEE_UNDERFLOW_FLAG IEEE_DENORMAL
Note: The following floating-point exceptions are signalling: IEEE_UNDERFLOW_FLAG IEEE_DENORMAL
Note: The following floating-point exceptions are signalling: IEEE_UNDERFLOW_FLAG IEEE_DENORMAL
Note: The following floating-point exceptions are signalling: IEEE_UNDERFLOW_FLAG IEEE_DENORMAL
Note: The following floating-point exceptions are signalling: IEEE_UNDERFLOW_FLAG IEEE_DENORMAL
Note: The following floating-point exceptions are signalling: IEEE_UNDERFLOW_FLAG IEEE_DENORMAL
Note: The following floating-point exceptions are signalling: IEEE_UNDERFLOW_FLAG IEEE_DENORMAL
Note: The following floating-point exceptions are signalling: IEEE_UNDERFLOW_FLAG IEEE_DENORMAL
