
     Program BANDS v.7.2 starts on 26Apr2025 at 15:22:52 

     This program is part of the open-source Quantum ESPRESSO suite
     for quantum simulation of materials; please cite
         "P. Giannozzi et al., J. Phys.:Condens. Matter 21 395502 (2009);
         "P. Giannozzi et al., J. Phys.:Condens. Matter 29 465901 (2017);
         "P. Giannozzi et al., J. Chem. Phys. 152 154105 (2020);
          URL http://www.quantum-espresso.org", 
     in publications or presentations arising from this work. More details at
     http://www.quantum-espresso.org/quote

     Parallel version (MPI), running on    20 processors

     MPI processes distributed on     1 nodes
     R & G space division:  proc/nbgrp/npool/nimage =      20
     105172 MiB available memory on the printing compute node when the environment starts


     Reading xml data from directory:

     ./ZnO_PBE_bulk.save/
     file Zn.upf: wavefunction(s)  3D renormalized

     IMPORTANT: XC functional enforced from input :
     Exchange-correlation= PBE
                           (   1   4   3   4   0   0   0)
     Any further DFT definition will be discarded
     Please, verify this is what you really want


     Parallelization info
     --------------------
     sticks:   dense  smooth     PW     G-vecs:    dense   smooth      PW
     Min          46      37     12                 1834     1315     234
     Max          47      38     13                 1841     1322     237
     Sum         925     745    241                36755    26357    4711

     Using Slab Decomposition


     Check: negative core charge=   -0.000003
     Reading collected, re-writing distributed wavefunctions
     high-symmetry point:  0.0000 0.0000 0.0000   x coordinate   0.0000
     high-symmetry point:  0.5000 0.2887 0.0000   x coordinate   0.5774
     high-symmetry point:  0.5000 0.2887 0.3097   x coordinate   0.8871
     high-symmetry point:  0.0000 0.0000 0.3097   x coordinate   1.4644
     high-symmetry point:  0.0000 0.0000 0.0000   x coordinate   1.7741
     high-symmetry point:  0.6666 0.7697 0.0000   x coordinate   2.7924
     high-symmetry point:  0.6666 0.7697 0.3097   x coordinate   3.1021
     high-symmetry point:  0.0000 0.0000 0.3097   x coordinate   4.1204

     Plottable bands (eV) written to file ZnO_bulk_bands_noGGApU.dat.gnu
     Bands written to file ZnO_bulk_bands_noGGApU.dat

 **************************************************************************

                    xk=(   0.00000,   0.00000,   0.00000  )

     point group C_6v (6mm) 
     there are  6 classes
     the character table:

       E     2C6   2C3   C2    3s_v  3s_d 
A_1    1.00  1.00  1.00  1.00  1.00  1.00
A_2    1.00  1.00  1.00  1.00 -1.00 -1.00
B_1    1.00 -1.00  1.00 -1.00  1.00 -1.00
B_2    1.00 -1.00  1.00 -1.00 -1.00  1.00
E_1    2.00  1.00 -1.00 -2.00  0.00  0.00
E_2    2.00 -1.00 -1.00  2.00  0.00  0.00

     the symmetry operations in each class and the name of the first element:

     E        1
                                                                 
     2C6      3    4
                                                                 
     2C3      5    6
                                                                 
     C2       2
                                                                 
     3s_v     8   12   11
                                                                 
     3s_d     7    9   10
                                                                 

     Band symmetry, C_6v (6mm)  point group:

     e(  1 -  1) =    -11.05142  eV     1   --> A_1            
     e(  2 -  2) =    -10.38489  eV     1   --> B_1            
     e(  3 -  4) =      1.21754  eV     2   --> E_1            
     e(  5 -  5) =      1.29851  eV     1   --> A_1            
     e(  6 -  7) =      1.38911  eV     2   --> E_2            
     e(  8 -  8) =      1.40096  eV     1   --> B_1            
     e(  9 - 10) =      2.31972  eV     2   --> E_1            
     e( 11 - 12) =      2.51221  eV     2   --> E_2            
     e( 13 - 13) =      2.79558  eV     1   --> B_1            
     e( 14 - 15) =      6.04207  eV     2   --> E_2            
     e( 16 - 16) =      6.67719  eV     1   --> A_1            
     e( 17 - 18) =      6.77388  eV     2   --> E_1            
     e( 19 - 19) =      7.51369  eV     1   --> A_1            
     e( 20 - 20) =     11.86924  eV     1   --> B_1            
     e( 21 - 21) =     14.83347  eV     1   --> B_1            
     e( 22 - 23) =     19.52780  eV     2   --> E_1            
     e( 24 - 24) =     20.53094  eV     1   --> A_1            
     e( 25 - 26) =     20.72160  eV     2   --> E_2            
     e( 27 - 27) =     23.16060  eV     1   --> A_1            
     e( 28 - 29) =     24.80030  eV     2   --> E_1            
     e( 30 - 30) =     26.39340  eV     1   --> B_1            
     e( 31 - 32) =     26.46725  eV     2   --> E_2            
     e( 33 - 33) =     27.46479  eV     1   --> A_1            
     e( 34 - 34) =     29.48905  eV     1   --> B_1            
     e( 35 - 36) =     31.21122  eV     2   --> E_2            

 **************************************************************************

 **************************************************************************

                    xk=(   0.10000,   0.05774,   0.00000  )

     point group C_s (m)    
     there are  2 classes
     the character table:

       E     s    
A'     1.00  1.00
A''    1.00 -1.00

     the symmetry operations in each class and the name of the first element:

     E        1
                                                                 
     s        2
                                                                 

     Band symmetry, C_s (m)     point group:

     e(  1 -  1) =    -10.99993  eV     1   --> A'             
     e(  2 -  2) =    -10.36164  eV     1   --> A'             
     e(  3 -  3) =      1.16350  eV     1   --> A'             
     e(  4 -  4) =      1.24918  eV     1   --> A''            
     e(  5 -  5) =      1.32810  eV     1   --> A'             
     e(  6 -  6) =      1.38506  eV     1   --> A'             
     e(  7 -  7) =      1.43249  eV     1   --> A''            
     e(  8 -  8) =      1.47450  eV     1   --> A'             
     e(  9 -  9) =      2.29845  eV     1   --> A'             
     e( 10 - 10) =      2.31653  eV     1   --> A''            
     e( 11 - 11) =      2.51667  eV     1   --> A''            
     e( 12 - 12) =      2.56146  eV     1   --> A'             
     e( 13 - 13) =      2.78385  eV     1   --> A'             
     e( 14 - 14) =      5.68334  eV     1   --> A'             
     e( 15 - 15) =      5.91286  eV     1   --> A''            
     e( 16 - 16) =      6.15881  eV     1   --> A'             
     e( 17 - 17) =      6.61669  eV     1   --> A'             
     e( 18 - 18) =      6.70268  eV     1   --> A''            
     e( 19 - 19) =      8.25508  eV     1   --> A'             
     e( 20 - 20) =     12.27382  eV     1   --> A'             
     e( 21 - 21) =     14.83559  eV     1   --> A'             
     e( 22 - 22) =     18.53705  eV     1   --> A'             
     e( 23 - 23) =     19.61702  eV     1   --> A''            
     e( 24 - 24) =     19.98846  eV     1   --> A'             
     e( 25 - 25) =     20.67231  eV     1   --> A'             
     e( 26 - 26) =     20.84303  eV     1   --> A''            
     e( 27 - 27) =     22.68053  eV     1   --> A'             
     e( 28 - 28) =     24.19744  eV     1   --> A''            
     e( 29 - 29) =     24.96265  eV     1   --> A'             
     e( 30 - 30) =     26.52595  eV     1   --> A'             
     e( 31 - 31) =     27.56379  eV     1   --> A'             
     e( 32 - 32) =     27.65556  eV     1   --> A''            
     e( 33 - 33) =     28.20156  eV     1   --> A'             
     e( 34 - 34) =     30.12153  eV     1   --> A'             
     e( 35 - 35) =     31.07208  eV     1   --> A'             
     e( 36 - 36) =     31.30823  eV     1   --> A''            

 **************************************************************************

 **************************************************************************

                    xk=(   0.20000,   0.11547,   0.00000  )

     Band symmetry, C_s (m)     point group:

     e(  1 -  1) =    -10.85943  eV     1   --> A'             
     e(  2 -  2) =    -10.30329  eV     1   --> A'             
     e(  3 -  3) =      1.04892  eV     1   --> A'             
     e(  4 -  4) =      1.32793  eV     1   --> A''            
     e(  5 -  5) =      1.33179  eV     1   --> A'             
     e(  6 -  6) =      1.44836  eV     1   --> A'             
     e(  7 -  7) =      1.55463  eV     1   --> A''            
     e(  8 -  8) =      1.68098  eV     1   --> A'             
     e(  9 -  9) =      2.24459  eV     1   --> A'             
     e( 10 - 10) =      2.32226  eV     1   --> A''            
     e( 11 - 11) =      2.52633  eV     1   --> A''            
     e( 12 - 12) =      2.71278  eV     1   --> A'             
     e( 13 - 13) =      2.75106  eV     1   --> A'             
     e( 14 - 14) =      4.83045  eV     1   --> A'             
     e( 15 - 15) =      5.42262  eV     1   --> A'             
     e( 16 - 16) =      5.57616  eV     1   --> A''            
     e( 17 - 17) =      6.42641  eV     1   --> A'             
     e( 18 - 18) =      6.50861  eV     1   --> A''            
     e( 19 - 19) =      9.36591  eV     1   --> A'             
     e( 20 - 20) =     13.18180  eV     1   --> A'             
     e( 21 - 21) =     14.83433  eV     1   --> A'             
     e( 22 - 22) =     16.99574  eV     1   --> A'             
     e( 23 - 23) =     18.72324  eV     1   --> A'             
     e( 24 - 24) =     19.85168  eV     1   --> A''            
     e( 25 - 25) =     20.30734  eV     1   --> A'             
     e( 26 - 26) =     20.88752  eV     1   --> A''            
     e( 27 - 27) =     21.89637  eV     1   --> A'             
     e( 28 - 28) =     24.06396  eV     1   --> A''            
     e( 29 - 29) =     24.89165  eV     1   --> A'             
     e( 30 - 30) =     27.54217  eV     1   --> A'             
     e( 31 - 31) =     29.01359  eV     1   --> A'             
     e( 32 - 32) =     29.62338  eV     1   --> A'             
     e( 33 - 33) =     29.77666  eV     1   --> A''            
     e( 34 - 34) =     30.12777  eV     1   --> A'             
     e( 35 - 35) =     31.62741  eV     1   --> A''            
     e( 36 - 36) =     33.13021  eV     1   --> A'             

 **************************************************************************

 **************************************************************************

                    xk=(   0.30000,   0.17321,   0.00000  )

     Band symmetry, C_s (m)     point group:

     e(  1 -  1) =    -10.67016  eV     1   --> A'             
     e(  2 -  2) =    -10.24022  eV     1   --> A'             
     e(  3 -  3) =      0.96842  eV     1   --> A'             
     e(  4 -  4) =      1.30144  eV     1   --> A'             
     e(  5 -  5) =      1.41133  eV     1   --> A''            
     e(  6 -  6) =      1.59072  eV     1   --> A'             
     e(  7 -  7) =      1.72835  eV     1   --> A''            
     e(  8 -  8) =      1.91672  eV     1   --> A'             
     e(  9 -  9) =      2.20937  eV     1   --> A'             
     e( 10 - 10) =      2.36345  eV     1   --> A''            
     e( 11 - 11) =      2.53770  eV     1   --> A''            
     e( 12 - 12) =      2.71774  eV     1   --> A'             
     e( 13 - 13) =      2.94157  eV     1   --> A'             
     e( 14 - 14) =      3.93968  eV     1   --> A'             
     e( 15 - 15) =      4.73403  eV     1   --> A'             
     e( 16 - 16) =      5.15039  eV     1   --> A''            
     e( 17 - 17) =      6.11333  eV     1   --> A'             
     e( 18 - 18) =      6.25408  eV     1   --> A''            
     e( 19 - 19) =     10.55229  eV     1   --> A'             
     e( 20 - 20) =     13.99608  eV     1   --> A'             
     e( 21 - 21) =     14.75483  eV     1   --> A'             
     e( 22 - 22) =     15.74922  eV     1   --> A'             
     e( 23 - 23) =     17.75953  eV     1   --> A'             
     e( 24 - 24) =     19.29075  eV     1   --> A'             
     e( 25 - 25) =     20.05842  eV     1   --> A''            
     e( 26 - 26) =     20.68090  eV     1   --> A''            
     e( 27 - 27) =     22.17211  eV     1   --> A'             
     e( 28 - 28) =     24.74305  eV     1   --> A'             
     e( 29 - 29) =     24.96667  eV     1   --> A''            
     e( 30 - 30) =     26.58684  eV     1   --> A'             
     e( 31 - 31) =     29.80054  eV     1   --> A'             
     e( 32 - 32) =     30.94690  eV     1   --> A'             
     e( 33 - 33) =     31.59189  eV     1   --> A'             
     e( 34 - 34) =     32.17391  eV     1   --> A''            
     e( 35 - 35) =     32.21730  eV     1   --> A''            
     e( 36 - 36) =     33.86580  eV     1   --> A'             

 **************************************************************************

 **************************************************************************

                    xk=(   0.40000,   0.23094,   0.00000  )

     Band symmetry, C_s (m)     point group:

     e(  1 -  1) =    -10.49323  eV     1   --> A'             
     e(  2 -  2) =    -10.20735  eV     1   --> A'             
     e(  3 -  3) =      0.98678  eV     1   --> A'             
     e(  4 -  4) =      1.26885  eV     1   --> A'             
     e(  5 -  5) =      1.46279  eV     1   --> A''            
     e(  6 -  6) =      1.76326  eV     1   --> A'             
     e(  7 -  7) =      1.89292  eV     1   --> A''            
     e(  8 -  8) =      1.93748  eV     1   --> A'             
     e(  9 -  9) =      2.31482  eV     1   --> A'             
     e( 10 - 10) =      2.43505  eV     1   --> A''            
     e( 11 - 11) =      2.55034  eV     1   --> A''            
     e( 12 - 12) =      2.74624  eV     1   --> A'             
     e( 13 - 13) =      2.97877  eV     1   --> A'             
     e( 14 - 14) =      3.46057  eV     1   --> A'             
     e( 15 - 15) =      4.20051  eV     1   --> A'             
     e( 16 - 16) =      4.78226  eV     1   --> A''            
     e( 17 - 17) =      5.74573  eV     1   --> A'             
     e( 18 - 18) =      6.03511  eV     1   --> A''            
     e( 19 - 19) =     11.69999  eV     1   --> A'             
     e( 20 - 20) =     14.20167  eV     1   --> A'             
     e( 21 - 21) =     14.30578  eV     1   --> A'             
     e( 22 - 22) =     15.16359  eV     1   --> A'             
     e( 23 - 23) =     17.28785  eV     1   --> A'             
     e( 24 - 24) =     18.94736  eV     1   --> A'             
     e( 25 - 25) =     19.96729  eV     1   --> A''            
     e( 26 - 26) =     20.70695  eV     1   --> A''            
     e( 27 - 27) =     22.31444  eV     1   --> A'             
     e( 28 - 28) =     24.87955  eV     1   --> A'             
     e( 29 - 29) =     25.76622  eV     1   --> A'             
     e( 30 - 30) =     26.25944  eV     1   --> A''            
     e( 31 - 31) =     29.61750  eV     1   --> A'             
     e( 32 - 32) =     30.78139  eV     1   --> A'             
     e( 33 - 33) =     32.06575  eV     1   --> A'             
     e( 34 - 34) =     32.67265  eV     1   --> A''            
     e( 35 - 35) =     33.71838  eV     1   --> A''            
     e( 36 - 36) =     34.08544  eV     1   --> A''            

 **************************************************************************

 **************************************************************************

                    xk=(   0.50000,   0.28868,   0.00000  )

     point group C_2v (mm2) 
     there are  4 classes
     the character table:

       E     C2    s_v   s_v' 
A_1    1.00  1.00  1.00  1.00
A_2    1.00  1.00 -1.00 -1.00
B_1    1.00 -1.00  1.00 -1.00
B_2    1.00 -1.00 -1.00  1.00

     the symmetry operations in each class and the name of the first element:

     E        1
                                                                 
     C2       2
                                                                 
     s_v      4
                                                                 
     s_v'     3
                                                                 

     Band symmetry, C_2v (mm2)  point group:

     e(  1 -  1) =    -10.41174  eV     1   --> B_1  D_3  S_3  
     e(  2 -  2) =    -10.20729  eV     1   --> A_1  D_1  S_1  
     e(  3 -  3) =      1.03873  eV     1   --> B_1  D_3  S_3  
     e(  4 -  4) =      1.24158  eV     1   --> A_1  D_1  S_1  
     e(  5 -  5) =      1.47817  eV     1   --> A_2  D_2  S_2  
     e(  6 -  6) =      1.87488  eV     1   --> A_1  D_1  S_1  
     e(  7 -  7) =      1.88535  eV     1   --> B_1  D_3  S_3  
     e(  8 -  8) =      1.96211  eV     1   --> B_2  D_4  S_4  
     e(  9 -  9) =      2.36371  eV     1   --> A_1  D_1  S_1  
     e( 10 - 10) =      2.47580  eV     1   --> A_2  D_2  S_2  
     e( 11 - 11) =      2.55689  eV     1   --> B_2  D_4  S_4  
     e( 12 - 12) =      2.62523  eV     1   --> B_1  D_3  S_3  
     e( 13 - 13) =      3.09794  eV     1   --> A_1  D_1  S_1  
     e( 14 - 14) =      3.29058  eV     1   --> B_1  D_3  S_3  
     e( 15 - 15) =      4.06299  eV     1   --> A_1  D_1  S_1  
     e( 16 - 16) =      4.63098  eV     1   --> B_2  D_4  S_4  
     e( 17 - 17) =      5.55086  eV     1   --> B_1  D_3  S_3  
     e( 18 - 18) =      5.94781  eV     1   --> A_2  D_2  S_2  
     e( 19 - 19) =     12.41356  eV     1   --> B_1  D_3  S_3  
     e( 20 - 20) =     13.60648  eV     1   --> A_1  D_1  S_1  
     e( 21 - 21) =     14.32232  eV     1   --> B_1  D_3  S_3  
     e( 22 - 22) =     15.05834  eV     1   --> A_1  D_1  S_1  
     e( 23 - 23) =     17.13311  eV     1   --> A_1  D_1  S_1  
     e( 24 - 24) =     19.02041  eV     1   --> B_1  D_3  S_3  
     e( 25 - 25) =     19.87587  eV     1   --> A_2  D_2  S_2  
     e( 26 - 26) =     20.77429  eV     1   --> B_2  D_4  S_4  
     e( 27 - 27) =     22.29887  eV     1   --> B_1  D_3  S_3  
     e( 28 - 28) =     24.92619  eV     1   --> A_1  D_1  S_1  
     e( 29 - 29) =     25.54479  eV     1   --> B_1  D_3  S_3  
     e( 30 - 30) =     26.94980  eV     1   --> A_2  D_2  S_2  
     e( 31 - 31) =     29.46046  eV     1   --> A_1  D_1  S_1  
     e( 32 - 32) =     31.22487  eV     1   --> B_1  D_3  S_3  
     e( 33 - 33) =     31.25709  eV     1   --> A_1  D_1  S_1  
     e( 34 - 34) =     32.54495  eV     1   --> B_2  D_4  S_4  
     e( 35 - 35) =     33.83174  eV     1   --> B_2  D_4  S_4  
     e( 36 - 36) =     34.18291  eV     1   --> A_2  D_2  S_2  

 **************************************************************************

 **************************************************************************

                    xk=(   0.50000,   0.28868,   0.06194  )

     Band symmetry, C_2v (mm2)  point group:

     e(  1 -  1) =    -10.40605  eV     1   --> B_1  D_3  S_3  
     e(  2 -  2) =    -10.21153  eV     1   --> A_1  D_1  S_1  
     e(  3 -  3) =      1.02282  eV     1   --> B_1  D_3  S_3  
     e(  4 -  4) =      1.20590  eV     1   --> A_1  D_1  S_1  
     e(  5 -  5) =      1.48729  eV     1   --> A_2  D_2  S_2  
     e(  6 -  6) =      1.85622  eV     1   --> A_1  D_1  S_1  
     e(  7 -  7) =      1.87540  eV     1   --> B_1  D_3  S_3  
     e(  8 -  8) =      1.94693  eV     1   --> B_2  D_4  S_4  
     e(  9 -  9) =      2.38847  eV     1   --> A_1  D_1  S_1  
     e( 10 - 10) =      2.47671  eV     1   --> A_2  D_2  S_2  
     e( 11 - 11) =      2.55197  eV     1   --> B_2  D_4  S_4  
     e( 12 - 12) =      2.62526  eV     1   --> B_1  D_3  S_3  
     e( 13 - 13) =      3.07981  eV     1   --> A_1  D_1  S_1  
     e( 14 - 14) =      3.27250  eV     1   --> B_1  D_3  S_3  
     e( 15 - 15) =      4.17187  eV     1   --> A_1  D_1  S_1  
     e( 16 - 16) =      4.66841  eV     1   --> B_2  D_4  S_4  
     e( 17 - 17) =      5.58600  eV     1   --> B_1  D_3  S_3  
     e( 18 - 18) =      5.91815  eV     1   --> A_2  D_2  S_2  
     e( 19 - 19) =     12.35118  eV     1   --> B_1  D_3  S_3  
     e( 20 - 20) =     13.54440  eV     1   --> A_1  D_1  S_1  
     e( 21 - 21) =     14.39244  eV     1   --> B_1  D_3  S_3  
     e( 22 - 22) =     15.07737  eV     1   --> A_1  D_1  S_1  
     e( 23 - 23) =     17.10700  eV     1   --> A_1  D_1  S_1  
     e( 24 - 24) =     19.08970  eV     1   --> B_1  D_3  S_3  
     e( 25 - 25) =     19.89539  eV     1   --> A_2  D_2  S_2  
     e( 26 - 26) =     20.74991  eV     1   --> B_2  D_4  S_4  
     e( 27 - 27) =     21.95284  eV     1   --> B_1  D_3  S_3  
     e( 28 - 28) =     24.99210  eV     1   --> A_1  D_1  S_1  
     e( 29 - 29) =     25.98904  eV     1   --> B_1  D_3  S_3  
     e( 30 - 30) =     27.05102  eV     1   --> A_2  D_2  S_2  
     e( 31 - 31) =     28.70803  eV     1   --> A_1  D_1  S_1  
     e( 32 - 32) =     31.15877  eV     1   --> B_1  D_3  S_3  
     e( 33 - 33) =     31.98997  eV     1   --> A_1  D_1  S_1  
     e( 34 - 34) =     32.53582  eV     1   --> B_2  D_4  S_4  
     e( 35 - 35) =     33.44049  eV     1   --> B_2  D_4  S_4  
     e( 36 - 36) =     34.09887  eV     1   --> A_2  D_2  S_2  

 **************************************************************************

 **************************************************************************

                    xk=(   0.50000,   0.28868,   0.12389  )

     Band symmetry, C_2v (mm2)  point group:

     e(  1 -  1) =    -10.38970  eV     1   --> B_1  D_3  S_3  
     e(  2 -  2) =    -10.22407  eV     1   --> A_1  D_1  S_1  
     e(  3 -  3) =      0.98093  eV     1   --> B_1  D_3  S_3  
     e(  4 -  4) =      1.11550  eV     1   --> A_1  D_1  S_1  
     e(  5 -  5) =      1.51438  eV     1   --> A_2  D_2  S_2  
     e(  6 -  6) =      1.82138  eV     1   --> A_1  D_1  S_1  
     e(  7 -  7) =      1.85050  eV     1   --> B_1  D_3  S_3  
     e(  8 -  8) =      1.90388  eV     1   --> B_2  D_4  S_4  
     e(  9 -  9) =      2.44283  eV     1   --> A_1  D_1  S_1  
     e( 10 - 10) =      2.47945  eV     1   --> A_2  D_2  S_2  
     e( 11 - 11) =      2.53966  eV     1   --> B_2  D_4  S_4  
     e( 12 - 12) =      2.62419  eV     1   --> B_1  D_3  S_3  
     e( 13 - 13) =      3.04985  eV     1   --> A_1  D_1  S_1  
     e( 14 - 14) =      3.22691  eV     1   --> B_1  D_3  S_3  
     e( 15 - 15) =      4.44856  eV     1   --> A_1  D_1  S_1  
     e( 16 - 16) =      4.77431  eV     1   --> B_2  D_4  S_4  
     e( 17 - 17) =      5.66084  eV     1   --> B_1  D_3  S_3  
     e( 18 - 18) =      5.83178  eV     1   --> A_2  D_2  S_2  
     e( 19 - 19) =     12.22753  eV     1   --> B_1  D_3  S_3  
     e( 20 - 20) =     13.36212  eV     1   --> A_1  D_1  S_1  
     e( 21 - 21) =     14.55461  eV     1   --> B_1  D_3  S_3  
     e( 22 - 22) =     15.11667  eV     1   --> A_1  D_1  S_1  
     e( 23 - 23) =     17.07943  eV     1   --> A_1  D_1  S_1  
     e( 24 - 24) =     19.19703  eV     1   --> B_1  D_3  S_3  
     e( 25 - 25) =     19.95279  eV     1   --> A_2  D_2  S_2  
     e( 26 - 26) =     20.67982  eV     1   --> B_2  D_4  S_4  
     e( 27 - 27) =     21.38678  eV     1   --> B_1  D_3  S_3  
     e( 28 - 28) =     25.03773  eV     1   --> A_1  D_1  S_1  
     e( 29 - 29) =     26.90473  eV     1   --> B_1  D_3  S_3  
     e( 30 - 30) =     27.35147  eV     1   --> A_2  D_2  S_2  
     e( 31 - 31) =     27.71135  eV     1   --> A_1  D_1  S_1  
     e( 32 - 32) =     31.00440  eV     1   --> B_1  D_3  S_3  
     e( 33 - 33) =     32.28961  eV     1   --> B_2  D_4  S_4  
     e( 34 - 34) =     32.76520  eV     1   --> A_1  D_1  S_1  
     e( 35 - 35) =     32.79149  eV     1   --> B_2  D_4  S_4  
     e( 36 - 36) =     33.88084  eV     1   --> A_2  D_2  S_2  

 **************************************************************************

 **************************************************************************

                    xk=(   0.50000,   0.28868,   0.18583  )

     Band symmetry, C_2v (mm2)  point group:

     e(  1 -  1) =    -10.36476  eV     1   --> B_1  D_3  S_3  
     e(  2 -  2) =    -10.24428  eV     1   --> A_1  D_1  S_1  
     e(  3 -  3) =      0.92960  eV     1   --> B_1  D_3  S_3  
     e(  4 -  4) =      1.00994  eV     1   --> A_1  D_1  S_1  
     e(  5 -  5) =      1.55843  eV     1   --> A_2  D_2  S_2  
     e(  6 -  6) =      1.79460  eV     1   --> A_1  D_1  S_1  
     e(  7 -  7) =      1.82134  eV     1   --> B_1  D_3  S_3  
     e(  8 -  8) =      1.83995  eV     1   --> B_2  D_4  S_4  
     e(  9 -  9) =      2.48408  eV     1   --> A_2  D_2  S_2  
     e( 10 - 10) =      2.50022  eV     1   --> A_1  D_1  S_1  
     e( 11 - 11) =      2.52482  eV     1   --> B_2  D_4  S_4  
     e( 12 - 12) =      2.61919  eV     1   --> B_1  D_3  S_3  
     e( 13 - 13) =      3.03574  eV     1   --> A_1  D_1  S_1  
     e( 14 - 14) =      3.17063  eV     1   --> B_1  D_3  S_3  
     e( 15 - 15) =      4.80515  eV     1   --> A_1  D_1  S_1  
     e( 16 - 16) =      4.93260  eV     1   --> B_2  D_4  S_4  
     e( 17 - 17) =      5.69616  eV     1   --> A_2  D_2  S_2  
     e( 18 - 18) =      5.70460  eV     1   --> B_1  D_3  S_3  
     e( 19 - 19) =     12.15766  eV     1   --> B_1  D_3  S_3  
     e( 20 - 20) =     13.07885  eV     1   --> A_1  D_1  S_1  
     e( 21 - 21) =     14.73371  eV     1   --> B_1  D_3  S_3  
     e( 22 - 22) =     15.13441  eV     1   --> A_1  D_1  S_1  
     e( 23 - 23) =     17.16103  eV     1   --> A_1  D_1  S_1  
     e( 24 - 24) =     19.01172  eV     1   --> B_1  D_3  S_3  
     e( 25 - 25) =     20.04433  eV     1   --> A_2  D_2  S_2  
     e( 26 - 26) =     20.57266  eV     1   --> B_2  D_4  S_4  
     e( 27 - 27) =     21.28904  eV     1   --> B_1  D_3  S_3  
     e( 28 - 28) =     24.61703  eV     1   --> A_1  D_1  S_1  
     e( 29 - 29) =     27.33573  eV     1   --> A_1  D_1  S_1  
     e( 30 - 30) =     27.76301  eV     1   --> B_1  D_3  S_3  
     e( 31 - 31) =     27.84195  eV     1   --> A_2  D_2  S_2  
     e( 32 - 32) =     30.91567  eV     1   --> B_1  D_3  S_3  
     e( 33 - 33) =     31.32309  eV     1   --> B_2  D_4  S_4  
     e( 34 - 34) =     32.75832  eV     1   --> B_2  D_4  S_4  
     e( 35 - 35) =     32.78570  eV     1   --> A_1  D_1  S_1  
     e( 36 - 36) =     33.59893  eV     1   --> A_2  D_2  S_2  

 **************************************************************************

 **************************************************************************

                    xk=(   0.50000,   0.28868,   0.24778  )

     Band symmetry, C_2v (mm2)  point group:

     e(  1 -  1) =    -10.33432  eV     1   --> B_1  D_3  S_3  
     e(  2 -  2) =    -10.27092  eV     1   --> A_1  D_1  S_1  
     e(  3 -  3) =      0.89120  eV     1   --> B_1  D_3  S_3  
     e(  4 -  4) =      0.92679  eV     1   --> A_1  D_1  S_1  
     e(  5 -  5) =      1.61745  eV     1   --> A_2  D_2  S_2  
     e(  6 -  6) =      1.76479  eV     1   --> B_2  D_4  S_4  
     e(  7 -  7) =      1.78194  eV     1   --> A_1  D_1  S_1  
     e(  8 -  8) =      1.79714  eV     1   --> B_1  D_3  S_3  
     e(  9 -  9) =      2.49072  eV     1   --> A_2  D_2  S_2  
     e( 10 - 10) =      2.51102  eV     1   --> B_2  D_4  S_4  
     e( 11 - 11) =      2.54858  eV     1   --> A_1  D_1  S_1  
     e( 12 - 12) =      2.60689  eV     1   --> B_1  D_3  S_3  
     e( 13 - 13) =      3.04409  eV     1   --> A_1  D_1  S_1  
     e( 14 - 14) =      3.11660  eV     1   --> B_1  D_3  S_3  
     e( 15 - 15) =      5.12321  eV     1   --> B_2  D_4  S_4  
     e( 16 - 16) =      5.16490  eV     1   --> A_1  D_1  S_1  
     e( 17 - 17) =      5.52276  eV     1   --> A_2  D_2  S_2  
     e( 18 - 18) =      5.64857  eV     1   --> B_1  D_3  S_3  
     e( 19 - 19) =     12.22041  eV     1   --> B_1  D_3  S_3  
     e( 20 - 20) =     12.74302  eV     1   --> A_1  D_1  S_1  
     e( 21 - 21) =     14.89087  eV     1   --> B_1  D_3  S_3  
     e( 22 - 22) =     15.09998  eV     1   --> A_1  D_1  S_1  
     e( 23 - 23) =     17.43178  eV     1   --> A_1  D_1  S_1  
     e( 24 - 24) =     18.47356  eV     1   --> B_1  D_3  S_3  
     e( 25 - 25) =     20.16329  eV     1   --> A_2  D_2  S_2  
     e( 26 - 26) =     20.44109  eV     1   --> B_2  D_4  S_4  
     e( 27 - 27) =     21.82459  eV     1   --> B_1  D_3  S_3  
     e( 28 - 28) =     23.70199  eV     1   --> A_1  D_1  S_1  
     e( 29 - 29) =     27.59006  eV     1   --> A_1  D_1  S_1  
     e( 30 - 30) =     28.14988  eV     1   --> B_1  D_3  S_3  
     e( 31 - 31) =     28.50816  eV     1   --> A_2  D_2  S_2  
     e( 32 - 32) =     30.28432  eV     1   --> B_2  D_4  S_4  
     e( 33 - 33) =     31.15677  eV     1   --> B_1  D_3  S_3  
     e( 34 - 34) =     32.35788  eV     1   --> A_1  D_1  S_1  
     e( 35 - 35) =     32.87681  eV     1   --> B_2  D_4  S_4  
     e( 36 - 36) =     33.31443  eV     1   --> A_2  D_2  S_2  

 **************************************************************************

 **************************************************************************

                    xk=(   0.50000,   0.28868,   0.30972  )

     Band symmetry, C_2v (mm2)  point group:

     e(  1 -  2) =    -10.30189  eV     2   --> A_1  D_1  S_1  
     e(  1 -  2) =    -10.30189  eV     2   --> B_1  D_3  S_3  
     e(  3 -  4) =      0.88639  eV     2   --> A_1  D_1  S_1  
     e(  3 -  4) =      0.88639  eV     2   --> B_1  D_3  S_3  
     e(  5 -  6) =      1.68805  eV     2   --> A_2  D_2  S_2  
     e(  5 -  6) =      1.68805  eV     2   --> B_2  D_4  S_4  
     e(  7 -  8) =      1.78321  eV     2   --> A_1  D_1  S_1  
     e(  7 -  8) =      1.78321  eV     2   --> B_1  D_3  S_3  
     e(  9 - 10) =      2.49962  eV     2   --> A_2  D_2  S_2  
     e(  9 - 10) =      2.49962  eV     2   --> B_2  D_4  S_4  
     e( 11 - 12) =      2.58409  eV     2   --> A_1  D_1  S_1  
     e( 11 - 12) =      2.58409  eV     2   --> B_1  D_3  S_3  
     e( 13 - 14) =      3.07258  eV     2   --> A_1  D_1  S_1  
     e( 13 - 14) =      3.07258  eV     2   --> B_1  D_3  S_3  
     e( 15 - 16) =      5.32617  eV     2   --> A_2  D_2  S_2  
     e( 15 - 16) =      5.32617  eV     2   --> B_2  D_4  S_4  
     e( 17 - 18) =      5.46275  eV     2   --> A_1  D_1  S_1  
     e( 17 - 18) =      5.46275  eV     2   --> B_1  D_3  S_3  
     e( 19 - 20) =     12.43070  eV     2   --> A_1  D_1  S_1  
     e( 19 - 20) =     12.43070  eV     2   --> B_1  D_3  S_3  
     e( 21 - 22) =     15.01496  eV     2   --> A_1  D_1  S_1  
     e( 21 - 22) =     15.01496  eV     2   --> B_1  D_3  S_3  
     e( 23 - 24) =     17.89148  eV     2   --> A_1  D_1  S_1  
     e( 23 - 24) =     17.89148  eV     2   --> B_1  D_3  S_3  
     e( 25 - 26) =     20.29979  eV     2   --> A_2  D_2  S_2  
     e( 25 - 26) =     20.29979  eV     2   --> B_2  D_4  S_4  
     e( 27 - 28) =     22.69676  eV     2   --> A_1  D_1  S_1  
     e( 27 - 28) =     22.69676  eV     2   --> B_1  D_3  S_3  
     e( 29 - 30) =     27.98561  eV     2   --> A_1  D_1  S_1  
     e( 29 - 30) =     27.98561  eV     2   --> B_1  D_3  S_3  
     e( 31 - 32) =     29.33101  eV     2   --> A_2  D_2  S_2  
     e( 31 - 32) =     29.33101  eV     2   --> B_2  D_4  S_4  
     e( 33 - 34) =     31.74045  eV     2   --> A_1  D_1  S_1  
     e( 33 - 34) =     31.74045  eV     2   --> B_1  D_3  S_3  
     e( 35 - 36) =     33.06658  eV     2   --> A_2  D_2  S_2  
     e( 35 - 36) =     33.06658  eV     2   --> B_2  D_4  S_4  

 **************************************************************************

 **************************************************************************

                    xk=(   0.40000,   0.23094,   0.30972  )

     point group C_s (m)    
     there are  2 classes
     the character table:

       E     s    
A'     1.00  1.00
A''    1.00 -1.00

     the symmetry operations in each class and the name of the first element:

     E        1
                                                                 
     s        2
                                                                 

     Band symmetry, C_s (m)     point group:

     e(  1 -  2) =    -10.34425  eV     2   -->   2 A'             
     e(  3 -  4) =      0.88510  eV     2   -->   2 A'             
     e(  5 -  6) =      1.65015  eV     2   -->   2 A''            
     e(  7 -  8) =      1.70391  eV     2   -->   2 A'             
     e(  9 - 10) =      2.48008  eV     2   -->   2 A''            
     e( 11 - 12) =      2.51776  eV     2   -->   2 A'             
     e( 13 - 14) =      3.38005  eV     2   -->   2 A'             
     e( 15 - 16) =      5.43820  eV     2   -->   2 A''            
     e( 17 - 18) =      5.44588  eV     2   -->   2 A'             
     e( 19 - 20) =     12.25480  eV     2   -->   2 A'             
     e( 21 - 22) =     15.21438  eV     2   -->   2 A'             
     e( 23 - 24) =     17.95970  eV     2   -->   2 A'             
     e( 25 - 26) =     20.28623  eV     2   -->   2 A''            
     e( 27 - 28) =     22.70831  eV     2   -->   2 A'             
     e( 29 - 30) =     28.13629  eV     2   -->   2 A'             
     e( 31 - 32) =     28.74932  eV     2   -->   2 A''            
     e( 33 - 34) =     31.96047  eV     2   -->   2 A'             
     e( 35 - 36) =     33.26175  eV     2   -->   2 A''            

 **************************************************************************

 **************************************************************************

                    xk=(   0.30000,   0.17321,   0.30972  )

     Band symmetry, C_s (m)     point group:

     e(  1 -  2) =    -10.45329  eV     2   -->   2 A'             
     e(  3 -  4) =      0.90297  eV     2   -->   2 A'             
     e(  5 -  6) =      1.54745  eV     2   -->   2 A''            
     e(  7 -  8) =      1.55523  eV     2   -->   2 A'             
     e(  9 - 10) =      2.44820  eV     2   -->   2 A''            
     e( 11 - 12) =      2.46435  eV     2   -->   2 A'             
     e( 13 - 14) =      3.96491  eV     2   -->   2 A'             
     e( 15 - 16) =      5.44852  eV     2   -->   2 A'             
     e( 17 - 18) =      5.71941  eV     2   -->   2 A''            
     e( 19 - 20) =     11.77390  eV     2   -->   2 A'             
     e( 21 - 22) =     15.76216  eV     2   -->   2 A'             
     e( 23 - 24) =     18.06746  eV     2   -->   2 A'             
     e( 25 - 26) =     20.22132  eV     2   -->   2 A''            
     e( 27 - 28) =     23.03982  eV     2   -->   2 A'             
     e( 29 - 30) =     27.74807  eV     2   -->   2 A''            
     e( 31 - 32) =     28.47168  eV     2   -->   2 A'             
     e( 33 - 34) =     31.72437  eV     2   -->   2 A'             
     e( 35 - 36) =     33.16088  eV     2   -->   2 A''            

 **************************************************************************

 **************************************************************************

                    xk=(   0.20000,   0.11547,   0.30972  )

     Band symmetry, C_s (m)     point group:

     e(  1 -  2) =    -10.58452  eV     2   -->   2 A'             
     e(  3 -  4) =      0.96210  eV     2   -->   2 A'             
     e(  5 -  6) =      1.41956  eV     2   -->   2 A''            
     e(  7 -  8) =      1.42053  eV     2   -->   2 A'             
     e(  9 - 10) =      2.43359  eV     2   -->   2 A''            
     e( 11 - 12) =      2.44232  eV     2   -->   2 A'             
     e( 13 - 14) =      4.41980  eV     2   -->   2 A'             
     e( 15 - 16) =      5.66709  eV     2   -->   2 A'             
     e( 17 - 18) =      6.05141  eV     2   -->   2 A''            
     e( 19 - 20) =     11.10310  eV     2   -->   2 A'             
     e( 21 - 22) =     16.39613  eV     2   -->   2 A'             
     e( 23 - 24) =     18.33142  eV     2   -->   2 A'             
     e( 25 - 26) =     20.07285  eV     2   -->   2 A''            
     e( 27 - 28) =     23.94100  eV     2   -->   2 A'             
     e( 29 - 30) =     27.04420  eV     2   -->   2 A''            
     e( 31 - 32) =     28.62393  eV     2   -->   2 A'             
     e( 33 - 34) =     29.88007  eV     2   -->   2 A'             
     e( 35 - 36) =     32.48706  eV     2   -->   2 A''            

 **************************************************************************

 **************************************************************************

                    xk=(   0.10000,   0.05774,   0.30972  )

     Band symmetry, C_s (m)     point group:

     e(  1 -  2) =    -10.68798  eV     2   -->   2 A'             
     e(  3 -  4) =      1.04024  eV     2   -->   2 A'             
     e(  5 -  6) =      1.31863  eV     2   -->   2 A''            
     e(  7 -  8) =      1.32226  eV     2   -->   2 A'             
     e(  9 - 10) =      2.43349  eV     2   -->   2 A''            
     e( 11 - 12) =      2.43589  eV     2   -->   2 A'             
     e( 13 - 14) =      4.54324  eV     2   -->   2 A'             
     e( 15 - 16) =      6.14739  eV     2   -->   2 A'             
     e( 17 - 18) =      6.31317  eV     2   -->   2 A''            
     e( 19 - 20) =     10.44394  eV     2   -->   2 A'             
     e( 21 - 22) =     16.65542  eV     2   -->   2 A'             
     e( 23 - 24) =     19.16643  eV     2   -->   2 A'             
     e( 25 - 26) =     19.89120  eV     2   -->   2 A''            
     e( 27 - 28) =     24.87381  eV     2   -->   2 A'             
     e( 29 - 30) =     26.76924  eV     2   -->   2 A''            
     e( 31 - 32) =     27.10479  eV     2   -->   2 A'             
     e( 33 - 34) =     29.98670  eV     2   -->   2 A'             
     e( 35 - 36) =     31.71727  eV     2   -->   2 A''            

 **************************************************************************

 **************************************************************************

                    xk=(   0.00000,   0.00000,   0.30972  )

     point group C_6v (6mm) 
     there are  6 classes
     the character table:

       E     2C6   2C3   C2    3s_v  3s_d 
A_1    1.00  1.00  1.00  1.00  1.00  1.00
A_2    1.00  1.00  1.00  1.00 -1.00 -1.00
B_1    1.00 -1.00  1.00 -1.00  1.00 -1.00
B_2    1.00 -1.00  1.00 -1.00 -1.00  1.00
E_1    2.00  1.00 -1.00 -2.00  0.00  0.00
E_2    2.00 -1.00 -1.00  2.00  0.00  0.00

     the symmetry operations in each class and the name of the first element:

     E        1
                                                                 
     2C6      3    4
                                                                 
     2C3      5    6
                                                                 
     C2       2
                                                                 
     3s_v     8   12   11
                                                                 
     3s_d     7    9   10
                                                                 

     Band symmetry, C_6v (6mm)  point group:

     e(  1 -  2) =    -10.72689  eV     2   --> A_1            
     e(  1 -  2) =    -10.72689  eV     2   --> B_1            
     e(  3 -  4) =      1.08106  eV     2   --> A_1            
     e(  3 -  4) =      1.08106  eV     2   --> B_1            
     e(  5 -  8) =      1.28099  eV     4   --> E_1            
     e(  5 -  8) =      1.28099  eV     4   --> E_2            
     e(  9 - 12) =      2.43527  eV     4   --> E_1            
     e(  9 - 12) =      2.43527  eV     4   --> E_2            
     e( 13 - 14) =      4.54881  eV     2   --> A_1            
     e( 13 - 14) =      4.54881  eV     2   --> B_1            
     e( 15 - 18) =      6.41238  eV     4   --> E_1            
     e( 15 - 18) =      6.41238  eV     4   --> E_2            
     e( 19 - 20) =     10.14151  eV     2   --> A_1            
     e( 19 - 20) =     10.14151  eV     2   --> B_1            
     e( 21 - 22) =     16.67754  eV     2   --> A_1            
     e( 21 - 22) =     16.67754  eV     2   --> B_1            
     e( 23 - 26) =     19.80694  eV     4   --> E_1            
     e( 23 - 26) =     19.80694  eV     4   --> E_2            
     e( 27 - 28) =     24.77384  eV     2   --> A_1            
     e( 27 - 28) =     24.77384  eV     2   --> B_1            
     e( 29 - 32) =     26.72889  eV     4   --> E_1            
     e( 29 - 32) =     26.72889  eV     4   --> E_2            
     e( 33 - 34) =     30.79268  eV     2   --> A_1            
     e( 33 - 34) =     30.79268  eV     2   --> B_1            
     e( 35 - 36) =     31.38261  eV     2   -->   ?

 **************************************************************************

 **************************************************************************

                    xk=(   0.00000,   0.00000,   0.24778  )

     Band symmetry, C_6v (6mm)  point group:

     e(  1 -  1) =    -10.82899  eV     1   --> A_1            
     e(  2 -  2) =    -10.62311  eV     1   --> B_1            
     e(  3 -  3) =      1.08600  eV     1   --> B_1            
     e(  4 -  4) =      1.11591  eV     1   --> A_1            
     e(  5 -  6) =      1.25692  eV     2   --> E_1            
     e(  7 -  8) =      1.30923  eV     2   --> E_2            
     e(  9 - 10) =      2.40336  eV     2   --> E_1            
     e( 11 - 12) =      2.46359  eV     2   --> E_2            
     e( 13 - 13) =      4.07808  eV     1   --> B_1            
     e( 14 - 14) =      5.02261  eV     1   --> A_1            
     e( 15 - 16) =      6.29880  eV     2   --> E_2            
     e( 17 - 18) =      6.52511  eV     2   --> E_1            
     e( 19 - 19) =      9.54973  eV     1   --> A_1            
     e( 20 - 20) =     10.68993  eV     1   --> B_1            
     e( 21 - 21) =     16.01767  eV     1   --> B_1            
     e( 22 - 22) =     17.47500  eV     1   --> A_1            
     e( 23 - 24) =     19.66458  eV     2   --> E_1            
     e( 25 - 26) =     20.00383  eV     2   --> E_2            
     e( 27 - 27) =     24.32177  eV     1   --> A_1            
     e( 28 - 28) =     25.26258  eV     1   --> B_1            
     e( 29 - 30) =     26.19035  eV     2   --> E_1            
     e( 31 - 32) =     27.10397  eV     2   --> E_2            
     e( 33 - 33) =     30.21311  eV     1   --> B_1            
     e( 34 - 35) =     30.76538  eV     2   --> E_2            
     e( 36 - 36) =     31.07145  eV     1   --> A_1            

 **************************************************************************

 **************************************************************************

                    xk=(   0.00000,   0.00000,   0.18583  )

     Band symmetry, C_6v (6mm)  point group:

     e(  1 -  1) =    -10.91968  eV     1   --> A_1            
     e(  2 -  2) =    -10.52805  eV     1   --> B_1            
     e(  3 -  3) =      1.13968  eV     1   --> B_1            
     e(  4 -  4) =      1.17399  eV     1   --> A_1            
     e(  5 -  6) =      1.23868  eV     2   --> E_1            
     e(  7 -  8) =      1.33852  eV     2   --> E_2            
     e(  9 - 10) =      2.37163  eV     2   --> E_1            
     e( 11 - 12) =      2.48581  eV     2   --> E_2            
     e( 13 - 13) =      3.62534  eV     1   --> B_1            
     e( 14 - 14) =      5.49481  eV     1   --> A_1            
     e( 15 - 16) =      6.19565  eV     2   --> E_2            
     e( 17 - 18) =      6.62610  eV     2   --> E_1            
     e( 19 - 19) =      8.94201  eV     1   --> A_1            
     e( 20 - 20) =     11.16651  eV     1   --> B_1            
     e( 21 - 21) =     15.50319  eV     1   --> B_1            
     e( 22 - 22) =     18.38246  eV     1   --> A_1            
     e( 23 - 24) =     19.57898  eV     2   --> E_1            
     e( 25 - 26) =     20.23755  eV     2   --> E_2            
     e( 27 - 27) =     23.92725  eV     1   --> A_1            
     e( 28 - 29) =     25.64867  eV     2   --> E_1            
     e( 30 - 30) =     25.73627  eV     1   --> B_1            
     e( 31 - 32) =     27.13365  eV     2   --> E_2            
     e( 33 - 33) =     29.73644  eV     1   --> B_1            
     e( 34 - 34) =     30.23292  eV     1   --> A_1            
     e( 35 - 36) =     30.59580  eV     2   --> E_2            

 **************************************************************************

 **************************************************************************

                    xk=(   0.00000,   0.00000,   0.12389  )

     Band symmetry, C_6v (6mm)  point group:

     e(  1 -  1) =    -10.99074  eV     1   --> A_1            
     e(  2 -  2) =    -10.45161  eV     1   --> B_1            
     e(  3 -  4) =      1.22645  eV     2   --> E_1            
     e(  5 -  5) =      1.23546  eV     1   --> A_1            
     e(  6 -  6) =      1.23732  eV     1   --> B_1            
     e(  7 -  8) =      1.36452  eV     2   --> E_2            
     e(  9 - 10) =      2.34451  eV     2   --> E_1            
     e( 11 - 12) =      2.50101  eV     2   --> E_2            
     e( 13 - 13) =      3.22018  eV     1   --> B_1            
     e( 14 - 14) =      5.96458  eV     1   --> A_1            
     e( 15 - 16) =      6.11334  eV     2   --> E_2            
     e( 17 - 18) =      6.70559  eV     2   --> E_1            
     e( 19 - 19) =      8.34675  eV     1   --> A_1            
     e( 20 - 20) =     11.54153  eV     1   --> B_1            
     e( 21 - 21) =     15.13376  eV     1   --> B_1            
     e( 22 - 22) =     19.33161  eV     1   --> A_1            
     e( 23 - 24) =     19.53985  eV     2   --> E_1            
     e( 25 - 26) =     20.47189  eV     2   --> E_2            
     e( 27 - 27) =     23.58818  eV     1   --> A_1            
     e( 28 - 29) =     25.19927  eV     2   --> E_1            
     e( 30 - 30) =     26.11369  eV     1   --> B_1            
     e( 31 - 32) =     26.87207  eV     2   --> E_2            
     e( 33 - 33) =     28.91464  eV     1   --> A_1            
     e( 34 - 34) =     29.48644  eV     1   --> B_1            
     e( 35 - 36) =     30.80388  eV     2   --> E_2            

 **************************************************************************

 **************************************************************************

                    xk=(   0.00000,   0.00000,   0.06194  )

     Band symmetry, C_6v (6mm)  point group:

     e(  1 -  1) =    -11.03593  eV     1   --> A_1            
     e(  2 -  2) =    -10.40206  eV     1   --> B_1            
     e(  3 -  4) =      1.21967  eV     2   --> E_1            
     e(  5 -  5) =      1.28150  eV     1   --> A_1            
     e(  6 -  6) =      1.34749  eV     1   --> B_1            
     e(  7 -  8) =      1.38261  eV     2   --> E_2            
     e(  9 - 10) =      2.32620  eV     2   --> E_1            
     e( 11 - 12) =      2.50952  eV     2   --> E_2            
     e( 13 - 13) =      2.91556  eV     1   --> B_1            
     e( 14 - 15) =      6.06034  eV     2   --> E_2            
     e( 16 - 16) =      6.41439  eV     1   --> A_1            
     e( 17 - 18) =      6.75638  eV     2   --> E_1            
     e( 19 - 19) =      7.80839  eV     1   --> A_1            
     e( 20 - 20) =     11.78452  eV     1   --> B_1            
     e( 21 - 21) =     14.90922  eV     1   --> B_1            
     e( 22 - 23) =     19.52887  eV     2   --> E_1            
     e( 24 - 24) =     20.16161  eV     1   --> A_1            
     e( 25 - 26) =     20.65251  eV     2   --> E_2            
     e( 27 - 27) =     23.30151  eV     1   --> A_1            
     e( 28 - 29) =     24.90352  eV     2   --> E_1            
     e( 30 - 30) =     26.32980  eV     1   --> B_1            
     e( 31 - 32) =     26.58464  eV     2   --> E_2            
     e( 33 - 33) =     27.86826  eV     1   --> A_1            
     e( 34 - 34) =     29.45763  eV     1   --> B_1            
     e( 35 - 36) =     31.08823  eV     2   --> E_2            

 **************************************************************************

 **************************************************************************

                    xk=(   0.00000,   0.00000,   0.00000  )

     Band symmetry, C_6v (6mm)  point group:

     e(  1 -  1) =    -11.05142  eV     1   --> A_1            
     e(  2 -  2) =    -10.38489  eV     1   --> B_1            
     e(  3 -  4) =      1.21754  eV     2   --> E_1            
     e(  5 -  5) =      1.29851  eV     1   --> A_1            
     e(  6 -  7) =      1.38911  eV     2   --> E_2            
     e(  8 -  8) =      1.40096  eV     1   --> B_1            
     e(  9 - 10) =      2.31972  eV     2   --> E_1            
     e( 11 - 12) =      2.51221  eV     2   --> E_2            
     e( 13 - 13) =      2.79558  eV     1   --> B_1            
     e( 14 - 15) =      6.04207  eV     2   --> E_2            
     e( 16 - 16) =      6.67719  eV     1   --> A_1            
     e( 17 - 18) =      6.77388  eV     2   --> E_1            
     e( 19 - 19) =      7.51369  eV     1   --> A_1            
     e( 20 - 20) =     11.86924  eV     1   --> B_1            
     e( 21 - 21) =     14.83347  eV     1   --> B_1            
     e( 22 - 23) =     19.52780  eV     2   --> E_1            
     e( 24 - 24) =     20.53094  eV     1   --> A_1            
     e( 25 - 26) =     20.72160  eV     2   --> E_2            
     e( 27 - 27) =     23.16060  eV     1   --> A_1            
     e( 28 - 29) =     24.80030  eV     2   --> E_1            
     e( 30 - 30) =     26.39340  eV     1   --> B_1            
     e( 31 - 32) =     26.46725  eV     2   --> E_2            
     e( 33 - 33) =     27.46479  eV     1   --> A_1            
     e( 34 - 34) =     29.48905  eV     1   --> B_1            
     e( 35 - 36) =     31.21122  eV     2   --> E_2            

 **************************************************************************

 **************************************************************************

                    xk=(   0.13330,   0.15386,   0.00000  )

     point group C_1 (1)    
     there are  1 classes
     the character table:

       E    
A      1.00

     the symmetry operations in each class and the name of the first element:

     E        1
                                                                 

     Band symmetry, C_1 (1)     point group:

     e(  1 -  1) =    -10.89895  eV     1   --> A              
     e(  2 -  2) =    -10.31885  eV     1   --> A              
     e(  3 -  3) =      1.09097  eV     1   --> A              
     e(  4 -  4) =      1.28115  eV     1   --> A              
     e(  5 -  5) =      1.35809  eV     1   --> A              
     e(  6 -  6) =      1.40399  eV     1   --> A              
     e(  7 -  7) =      1.52656  eV     1   --> A              
     e(  8 -  8) =      1.62576  eV     1   --> A              
     e(  9 -  9) =      2.26285  eV     1   --> A              
     e( 10 - 10) =      2.31480  eV     1   --> A              
     e( 11 - 11) =      2.52310  eV     1   --> A              
     e( 12 - 12) =      2.66955  eV     1   --> A              
     e( 13 - 13) =      2.76036  eV     1   --> A              
     e( 14 - 14) =      5.11590  eV     1   --> A              
     e( 15 - 15) =      5.43730  eV     1   --> A              
     e( 16 - 16) =      5.76577  eV     1   --> A              
     e( 17 - 17) =      6.48613  eV     1   --> A              
     e( 18 - 18) =      6.53929  eV     1   --> A              
     e( 19 - 19) =      9.10134  eV     1   --> A              
     e( 20 - 20) =     12.96072  eV     1   --> A              
     e( 21 - 21) =     14.84271  eV     1   --> A              
     e( 22 - 22) =     17.40360  eV     1   --> A              
     e( 23 - 23) =     18.91854  eV     1   --> A              
     e( 24 - 24) =     19.79928  eV     1   --> A              
     e( 25 - 25) =     20.26283  eV     1   --> A              
     e( 26 - 26) =     21.22552  eV     1   --> A              
     e( 27 - 27) =     22.16912  eV     1   --> A              
     e( 28 - 28) =     23.14799  eV     1   --> A              
     e( 29 - 29) =     25.97740  eV     1   --> A              
     e( 30 - 30) =     27.49341  eV     1   --> A              
     e( 31 - 31) =     28.06981  eV     1   --> A              
     e( 32 - 32) =     28.76174  eV     1   --> A              
     e( 33 - 33) =     29.76959  eV     1   --> A              
     e( 34 - 34) =     29.92328  eV     1   --> A              
     e( 35 - 35) =     31.59855  eV     1   --> A              
     e( 36 - 36) =     32.98722  eV     1   --> A              

 **************************************************************************

 **************************************************************************

                    xk=(   0.26660,   0.30784,   0.00000  )

     Band symmetry, C_1 (1)     point group:

     e(  1 -  1) =    -10.56564  eV     1   --> A              
     e(  2 -  2) =    -10.21557  eV     1   --> A              
     e(  3 -  3) =      1.05619  eV     1   --> A              
     e(  4 -  4) =      1.28706  eV     1   --> A              
     e(  5 -  5) =      1.45084  eV     1   --> A              
     e(  6 -  6) =      1.61841  eV     1   --> A              
     e(  7 -  7) =      1.84603  eV     1   --> A              
     e(  8 -  8) =      1.96954  eV     1   --> A              
     e(  9 -  9) =      2.21990  eV     1   --> A              
     e( 10 - 10) =      2.37200  eV     1   --> A              
     e( 11 - 11) =      2.54684  eV     1   --> A              
     e( 12 - 12) =      2.74968  eV     1   --> A              
     e( 13 - 13) =      3.03271  eV     1   --> A              
     e( 14 - 14) =      3.81531  eV     1   --> A              
     e( 15 - 15) =      4.35629  eV     1   --> A              
     e( 16 - 16) =      4.68260  eV     1   --> A              
     e( 17 - 17) =      5.90275  eV     1   --> A              
     e( 18 - 18) =      5.96044  eV     1   --> A              
     e( 19 - 19) =     11.32687  eV     1   --> A              
     e( 20 - 20) =     14.27689  eV     1   --> A              
     e( 21 - 21) =     15.02332  eV     1   --> A              
     e( 22 - 22) =     15.45443  eV     1   --> A              
     e( 23 - 23) =     17.52144  eV     1   --> A              
     e( 24 - 24) =     18.43901  eV     1   --> A              
     e( 25 - 25) =     19.07881  eV     1   --> A              
     e( 26 - 26) =     21.11859  eV     1   --> A              
     e( 27 - 27) =     22.31007  eV     1   --> A              
     e( 28 - 28) =     24.12449  eV     1   --> A              
     e( 29 - 29) =     26.92169  eV     1   --> A              
     e( 30 - 30) =     27.31941  eV     1   --> A              
     e( 31 - 31) =     29.37458  eV     1   --> A              
     e( 32 - 32) =     30.56835  eV     1   --> A              
     e( 33 - 33) =     31.49174  eV     1   --> A              
     e( 34 - 34) =     31.92367  eV     1   --> A              
     e( 35 - 35) =     33.09299  eV     1   --> A              
     e( 36 - 36) =     33.55358  eV     1   --> A              

 **************************************************************************

 **************************************************************************

                    xk=(   0.39990,   0.46171,   0.00000  )

     Band symmetry, C_1 (1)     point group:

     e(  1 -  1) =    -10.34308  eV     1   --> A              
     e(  2 -  2) =    -10.21459  eV     1   --> A              
     e(  3 -  3) =      1.17157  eV     1   --> A              
     e(  4 -  4) =      1.46834  eV     1   --> A              
     e(  5 -  5) =      1.62386  eV     1   --> A              
     e(  6 -  6) =      1.71616  eV     1   --> A              
     e(  7 -  7) =      2.00459  eV     1   --> A              
     e(  8 -  8) =      2.04560  eV     1   --> A              
     e(  9 -  9) =      2.32230  eV     1   --> A              
     e( 10 - 10) =      2.37707  eV     1   --> A              
     e( 11 - 11) =      2.56689  eV     1   --> A              
     e( 12 - 12) =      2.59391  eV     1   --> A              
     e( 13 - 13) =      3.15308  eV     1   --> A              
     e( 14 - 14) =      3.40476  eV     1   --> A              
     e( 15 - 15) =      3.58323  eV     1   --> A              
     e( 16 - 16) =      4.54436  eV     1   --> A              
     e( 17 - 17) =      5.20897  eV     1   --> A              
     e( 18 - 18) =      5.48676  eV     1   --> A              
     e( 19 - 19) =     13.30823  eV     1   --> A              
     e( 20 - 20) =     14.30031  eV     1   --> A              
     e( 21 - 21) =     14.43776  eV     1   --> A              
     e( 22 - 22) =     15.09355  eV     1   --> A              
     e( 23 - 23) =     17.19730  eV     1   --> A              
     e( 24 - 24) =     18.06422  eV     1   --> A              
     e( 25 - 25) =     19.31262  eV     1   --> A              
     e( 26 - 26) =     19.82269  eV     1   --> A              
     e( 27 - 27) =     21.79272  eV     1   --> A              
     e( 28 - 28) =     26.36411  eV     1   --> A              
     e( 29 - 29) =     26.89073  eV     1   --> A              
     e( 30 - 30) =     28.29845  eV     1   --> A              
     e( 31 - 31) =     29.04612  eV     1   --> A              
     e( 32 - 32) =     30.11001  eV     1   --> A              
     e( 33 - 33) =     32.04922  eV     1   --> A              
     e( 34 - 34) =     32.67906  eV     1   --> A              
     e( 35 - 35) =     33.43128  eV     1   --> A              
     e( 36 - 36) =     33.48188  eV     1   --> A              

 **************************************************************************

 **************************************************************************

                    xk=(   0.53330,   0.61574,   0.00000  )

     Band symmetry, C_1 (1)     point group:

     e(  1 -  1) =    -10.46776  eV     1   --> A              
     e(  2 -  2) =    -10.20300  eV     1   --> A              
     e(  3 -  3) =      1.17505  eV     1   --> A              
     e(  4 -  4) =      1.27736  eV     1   --> A              
     e(  5 -  5) =      1.53604  eV     1   --> A              
     e(  6 -  6) =      1.64500  eV     1   --> A              
     e(  7 -  7) =      1.93565  eV     1   --> A              
     e(  8 -  8) =      2.02919  eV     1   --> A              
     e(  9 -  9) =      2.21874  eV     1   --> A              
     e( 10 - 10) =      2.36339  eV     1   --> A              
     e( 11 - 11) =      2.56264  eV     1   --> A              
     e( 12 - 12) =      2.81455  eV     1   --> A              
     e( 13 - 13) =      2.98004  eV     1   --> A              
     e( 14 - 14) =      3.76861  eV     1   --> A              
     e( 15 - 15) =      4.15492  eV     1   --> A              
     e( 16 - 16) =      4.21679  eV     1   --> A              
     e( 17 - 17) =      5.61851  eV     1   --> A              
     e( 18 - 18) =      5.73063  eV     1   --> A              
     e( 19 - 19) =     12.10832  eV     1   --> A              
     e( 20 - 20) =     14.36735  eV     1   --> A              
     e( 21 - 21) =     15.21370  eV     1   --> A              
     e( 22 - 22) =     15.23703  eV     1   --> A              
     e( 23 - 23) =     17.51891  eV     1   --> A              
     e( 24 - 24) =     18.07924  eV     1   --> A              
     e( 25 - 25) =     18.33301  eV     1   --> A              
     e( 26 - 26) =     21.08251  eV     1   --> A              
     e( 27 - 27) =     21.94391  eV     1   --> A              
     e( 28 - 28) =     24.69649  eV     1   --> A              
     e( 29 - 29) =     27.87979  eV     1   --> A              
     e( 30 - 30) =     28.26229  eV     1   --> A              
     e( 31 - 31) =     29.19373  eV     1   --> A              
     e( 32 - 32) =     29.89313  eV     1   --> A              
     e( 33 - 33) =     31.17608  eV     1   --> A              
     e( 34 - 34) =     32.37769  eV     1   --> A              
     e( 35 - 35) =     33.16338  eV     1   --> A              
     e( 36 - 36) =     33.28923  eV     1   --> A              

 **************************************************************************

 **************************************************************************

                    xk=(   0.66660,   0.76972,   0.00000  )

     Band symmetry, C_1 (1)     point group:

     e(  1 -  1) =    -10.60626  eV     1   --> A              
     e(  2 -  2) =    -10.22456  eV     1   --> A              
     e(  3 -  3) =      0.96297  eV     1   --> A              
     e(  4 -  4) =      1.29101  eV     1   --> A              
     e(  5 -  5) =      1.43287  eV     1   --> A              
     e(  6 -  6) =      1.64708  eV     1   --> A              
     e(  7 -  7) =      1.78844  eV     1   --> A              
     e(  8 -  8) =      1.95230  eV     1   --> A              
     e(  9 -  9) =      2.23252  eV     1   --> A              
     e( 10 - 10) =      2.38592  eV     1   --> A              
     e( 11 - 11) =      2.54190  eV     1   --> A              
     e( 12 - 12) =      2.71935  eV     1   --> A              
     e( 13 - 13) =      3.00094  eV     1   --> A              
     e( 14 - 14) =      3.70439  eV     1   --> A              
     e( 15 - 15) =      4.52737  eV     1   --> A              
     e( 16 - 16) =      5.01336  eV     1   --> A              
     e( 17 - 17) =      5.98976  eV     1   --> A              
     e( 18 - 18) =      6.17192  eV     1   --> A              
     e( 19 - 19) =     10.94673  eV     1   --> A              
     e( 20 - 20) =     14.15436  eV     1   --> A              
     e( 21 - 21) =     14.64771  eV     1   --> A              
     e( 22 - 22) =     15.46392  eV     1   --> A              
     e( 23 - 23) =     17.55669  eV     1   --> A              
     e( 24 - 24) =     19.08333  eV     1   --> A              
     e( 25 - 25) =     20.05829  eV     1   --> A              
     e( 26 - 26) =     20.65717  eV     1   --> A              
     e( 27 - 27) =     22.25400  eV     1   --> A              
     e( 28 - 28) =     24.76871  eV     1   --> A              
     e( 29 - 29) =     25.39581  eV     1   --> A              
     e( 30 - 30) =     26.25662  eV     1   --> A              
     e( 31 - 31) =     29.78356  eV     1   --> A              
     e( 32 - 32) =     30.89188  eV     1   --> A              
     e( 33 - 33) =     31.97278  eV     1   --> A              
     e( 34 - 34) =     32.40104  eV     1   --> A              
     e( 35 - 35) =     32.94495  eV     1   --> A              
     e( 36 - 36) =     34.33564  eV     1   --> A              

 **************************************************************************

 **************************************************************************

                    xk=(   0.66660,   0.76972,   0.06194  )

     Band symmetry, C_1 (1)     point group:

     e(  1 -  1) =    -10.59663  eV     1   --> A              
     e(  2 -  2) =    -10.23352  eV     1   --> A              
     e(  3 -  3) =      0.95228  eV     1   --> A              
     e(  4 -  4) =      1.25957  eV     1   --> A              
     e(  5 -  5) =      1.43955  eV     1   --> A              
     e(  6 -  6) =      1.63601  eV     1   --> A              
     e(  7 -  7) =      1.77720  eV     1   --> A              
     e(  8 -  8) =      1.89138  eV     1   --> A              
     e(  9 -  9) =      2.24830  eV     1   --> A              
     e( 10 - 10) =      2.38932  eV     1   --> A              
     e( 11 - 11) =      2.53711  eV     1   --> A              
     e( 12 - 12) =      2.68698  eV     1   --> A              
     e( 13 - 13) =      3.11832  eV     1   --> A              
     e( 14 - 14) =      3.75697  eV     1   --> A              
     e( 15 - 15) =      4.51284  eV     1   --> A              
     e( 16 - 16) =      5.04444  eV     1   --> A              
     e( 17 - 17) =      6.00003  eV     1   --> A              
     e( 18 - 18) =      6.14513  eV     1   --> A              
     e( 19 - 19) =     10.97082  eV     1   --> A              
     e( 20 - 20) =     13.91838  eV     1   --> A              
     e( 21 - 21) =     14.80892  eV     1   --> A              
     e( 22 - 22) =     15.48565  eV     1   --> A              
     e( 23 - 23) =     17.55130  eV     1   --> A              
     e( 24 - 24) =     19.12299  eV     1   --> A              
     e( 25 - 25) =     20.06175  eV     1   --> A              
     e( 26 - 26) =     20.63229  eV     1   --> A              
     e( 27 - 27) =     21.97538  eV     1   --> A              
     e( 28 - 28) =     24.90502  eV     1   --> A              
     e( 29 - 29) =     25.51673  eV     1   --> A              
     e( 30 - 30) =     26.50525  eV     1   --> A              
     e( 31 - 31) =     29.16902  eV     1   --> A              
     e( 32 - 32) =     31.23337  eV     1   --> A              
     e( 33 - 33) =     32.09801  eV     1   --> A              
     e( 34 - 34) =     32.31790  eV     1   --> A              
     e( 35 - 35) =     32.90321  eV     1   --> A              
     e( 36 - 36) =     33.99096  eV     1   --> A              

 **************************************************************************

 **************************************************************************

                    xk=(   0.66660,   0.76972,   0.12389  )

     Band symmetry, C_1 (1)     point group:

     e(  1 -  1) =    -10.56875  eV     1   --> A              
     e(  2 -  2) =    -10.25966  eV     1   --> A              
     e(  3 -  3) =      0.92452  eV     1   --> A              
     e(  4 -  4) =      1.17118  eV     1   --> A              
     e(  5 -  5) =      1.45939  eV     1   --> A              
     e(  6 -  6) =      1.61161  eV     1   --> A              
     e(  7 -  7) =      1.74546  eV     1   --> A              
     e(  8 -  8) =      1.78238  eV     1   --> A              
     e(  9 -  9) =      2.29118  eV     1   --> A              
     e( 10 - 10) =      2.39924  eV     1   --> A              
     e( 11 - 11) =      2.52377  eV     1   --> A              
     e( 12 - 12) =      2.64042  eV     1   --> A              
     e( 13 - 13) =      3.31879  eV     1   --> A              
     e( 14 - 14) =      3.88660  eV     1   --> A              
     e( 15 - 15) =      4.52398  eV     1   --> A              
     e( 16 - 16) =      5.13335  eV     1   --> A              
     e( 17 - 17) =      6.00017  eV     1   --> A              
     e( 18 - 18) =      6.06713  eV     1   --> A              
     e( 19 - 19) =     11.05844  eV     1   --> A              
     e( 20 - 20) =     13.47810  eV     1   --> A              
     e( 21 - 21) =     15.04135  eV     1   --> A              
     e( 22 - 22) =     15.54525  eV     1   --> A              
     e( 23 - 23) =     17.52784  eV     1   --> A              
     e( 24 - 24) =     19.17102  eV     1   --> A              
     e( 25 - 25) =     20.07585  eV     1   --> A              
     e( 26 - 26) =     20.56334  eV     1   --> A              
     e( 27 - 27) =     21.54064  eV     1   --> A              
     e( 28 - 28) =     24.94906  eV     1   --> A              
     e( 29 - 29) =     25.87033  eV     1   --> A              
     e( 30 - 30) =     27.15101  eV     1   --> A              
     e( 31 - 31) =     28.42279  eV     1   --> A              
     e( 32 - 32) =     31.23632  eV     1   --> A              
     e( 33 - 33) =     31.39546  eV     1   --> A              
     e( 34 - 34) =     32.86147  eV     1   --> A              
     e( 35 - 35) =     32.91785  eV     1   --> A              
     e( 36 - 36) =     33.73660  eV     1   --> A              

 **************************************************************************

 **************************************************************************

                    xk=(   0.66660,   0.76972,   0.18583  )

     Band symmetry, C_1 (1)     point group:

     e(  1 -  1) =    -10.52551  eV     1   --> A              
     e(  2 -  2) =    -10.30075  eV     1   --> A              
     e(  3 -  3) =      0.89269  eV     1   --> A              
     e(  4 -  4) =      1.05512  eV     1   --> A              
     e(  5 -  5) =      1.49172  eV     1   --> A              
     e(  6 -  6) =      1.59200  eV     1   --> A              
     e(  7 -  7) =      1.69731  eV     1   --> A              
     e(  8 -  8) =      1.69853  eV     1   --> A              
     e(  9 -  9) =      2.34971  eV     1   --> A              
     e( 10 - 10) =      2.41483  eV     1   --> A              
     e( 11 - 11) =      2.50431  eV     1   --> A              
     e( 12 - 12) =      2.59162  eV     1   --> A              
     e( 13 - 13) =      3.48887  eV     1   --> A              
     e( 14 - 14) =      3.94656  eV     1   --> A              
     e( 15 - 15) =      4.71029  eV     1   --> A              
     e( 16 - 16) =      5.26862  eV     1   --> A              
     e( 17 - 17) =      5.92783  eV     1   --> A              
     e( 18 - 18) =      5.94483  eV     1   --> A              
     e( 19 - 19) =     11.24299  eV     1   --> A              
     e( 20 - 20) =     12.97319  eV     1   --> A              
     e( 21 - 21) =     15.24357  eV     1   --> A              
     e( 22 - 22) =     15.61199  eV     1   --> A              
     e( 23 - 23) =     17.53440  eV     1   --> A              
     e( 24 - 24) =     18.98151  eV     1   --> A              
     e( 25 - 25) =     20.10875  eV     1   --> A              
     e( 26 - 26) =     20.46487  eV     1   --> A              
     e( 27 - 27) =     21.52730  eV     1   --> A              
     e( 28 - 28) =     24.54667  eV     1   --> A              
     e( 29 - 29) =     26.43339  eV     1   --> A              
     e( 30 - 30) =     27.85766  eV     1   --> A              
     e( 31 - 31) =     28.11927  eV     1   --> A              
     e( 32 - 32) =     30.16174  eV     1   --> A              
     e( 33 - 33) =     31.45952  eV     1   --> A              
     e( 34 - 34) =     32.73689  eV     1   --> A              
     e( 35 - 35) =     33.00039  eV     1   --> A              
     e( 36 - 36) =     33.57527  eV     1   --> A              

 **************************************************************************

 **************************************************************************

                    xk=(   0.66660,   0.76972,   0.24778  )

     Band symmetry, C_1 (1)     point group:

     e(  1 -  1) =    -10.47138  eV     1   --> A              
     e(  2 -  2) =    -10.35314  eV     1   --> A              
     e(  3 -  3) =      0.87590  eV     1   --> A              
     e(  4 -  4) =      0.95383  eV     1   --> A              
     e(  5 -  5) =      1.53513  eV     1   --> A              
     e(  6 -  6) =      1.58906  eV     1   --> A              
     e(  7 -  7) =      1.64078  eV     1   --> A              
     e(  8 -  8) =      1.64342  eV     1   --> A              
     e(  9 -  9) =      2.41388  eV     1   --> A              
     e( 10 - 10) =      2.43483  eV     1   --> A              
     e( 11 - 11) =      2.48147  eV     1   --> A              
     e( 12 - 12) =      2.53736  eV     1   --> A              
     e( 13 - 13) =      3.63263  eV     1   --> A              
     e( 14 - 14) =      3.87993  eV     1   --> A              
     e( 15 - 15) =      5.06374  eV     1   --> A              
     e( 16 - 16) =      5.43449  eV     1   --> A              
     e( 17 - 17) =      5.73957  eV     1   --> A              
     e( 18 - 18) =      5.78908  eV     1   --> A              
     e( 19 - 19) =     11.54711  eV     1   --> A              
     e( 20 - 20) =     12.45290  eV     1   --> A              
     e( 21 - 21) =     15.41391  eV     1   --> A              
     e( 22 - 22) =     15.62412  eV     1   --> A              
     e( 23 - 23) =     17.68399  eV     1   --> A              
     e( 24 - 24) =     18.51978  eV     1   --> A              
     e( 25 - 25) =     20.16710  eV     1   --> A              
     e( 26 - 26) =     20.35514  eV     1   --> A              
     e( 27 - 27) =     22.05225  eV     1   --> A              
     e( 28 - 28) =     23.76475  eV     1   --> A              
     e( 29 - 29) =     27.17670  eV     1   --> A              
     e( 30 - 30) =     28.18264  eV     1   --> A              
     e( 31 - 31) =     28.31028  eV     1   --> A              
     e( 32 - 32) =     29.07923  eV     1   --> A              
     e( 33 - 33) =     31.63858  eV     1   --> A              
     e( 34 - 34) =     32.42102  eV     1   --> A              
     e( 35 - 35) =     33.12277  eV     1   --> A              
     e( 36 - 36) =     33.42292  eV     1   --> A              

 **************************************************************************

 **************************************************************************

                    xk=(   0.66660,   0.76972,   0.30972  )

     Band symmetry, C_1 (1)     point group:

     e(  1 -  2) =    -10.41193  eV     2   -->   2 A              
     e(  3 -  4) =      0.89274  eV     2   -->   2 A              
     e(  5 -  6) =      1.58705  eV     2   -->   2 A              
     e(  7 -  8) =      1.60540  eV     2   -->   2 A              
     e(  9 - 10) =      2.45764  eV     2   -->   2 A              
     e( 11 - 12) =      2.47756  eV     2   -->   2 A              
     e( 13 - 14) =      3.76421  eV     2   -->   2 A              
     e( 15 - 16) =      5.43674  eV     2   -->   2 A              
     e( 17 - 18) =      5.61367  eV     2   -->   2 A              
     e( 19 - 20) =     11.96225  eV     2   -->   2 A              
     e( 21 - 22) =     15.54962  eV     2   -->   2 A              
     e( 23 - 24) =     18.03233  eV     2   -->   2 A              
     e( 25 - 26) =     20.25148  eV     2   -->   2 A              
     e( 27 - 28) =     22.86599  eV     2   -->   2 A              
     e( 29 - 30) =     28.06964  eV     2   -->   2 A              
     e( 31 - 32) =     28.35048  eV     2   -->   2 A              
     e( 33 - 34) =     32.00823  eV     2   -->   2 A              
     e( 35 - 36) =     33.26855  eV     2   -->   2 A              

 **************************************************************************

 **************************************************************************

                    xk=(   0.53330,   0.61574,   0.30972  )

     Band symmetry, C_1 (1)     point group:

     e(  1 -  2) =    -10.32893  eV     2   -->   2 A              
     e(  3 -  4) =      1.02952  eV     2   -->   2 A              
     e(  5 -  6) =      1.53560  eV     2   -->   2 A              
     e(  7 -  8) =      1.72073  eV     2   -->   2 A              
     e(  9 - 10) =      2.44696  eV     2   -->   2 A              
     e( 11 - 12) =      2.58779  eV     2   -->   2 A              
     e( 13 - 14) =      3.52278  eV     2   -->   2 A              
     e( 15 - 16) =      4.83448  eV     2   -->   2 A              
     e( 17 - 18) =      5.54805  eV     2   -->   2 A              
     e( 19 - 20) =     12.83111  eV     2   -->   2 A              
     e( 21 - 22) =     15.47093  eV     2   -->   2 A              
     e( 23 - 24) =     16.83820  eV     2   -->   2 A              
     e( 25 - 26) =     20.64082  eV     2   -->   2 A              
     e( 27 - 28) =     23.36896  eV     2   -->   2 A              
     e( 29 - 30) =     26.55722  eV     2   -->   2 A              
     e( 31 - 32) =     29.62832  eV     2   -->   2 A              
     e( 33 - 34) =     31.76675  eV     2   -->   2 A              
     e( 35 - 36) =     34.04167  eV     2   -->   2 A              

 **************************************************************************

 **************************************************************************

                    xk=(   0.39990,   0.46171,   0.30972  )

     Band symmetry, C_1 (1)     point group:

     e(  1 -  2) =    -10.27030  eV     2   -->   2 A              
     e(  3 -  4) =      1.09599  eV     2   -->   2 A              
     e(  5 -  6) =      1.56386  eV     2   -->   2 A              
     e(  7 -  8) =      1.85545  eV     2   -->   2 A              
     e(  9 - 10) =      2.40957  eV     2   -->   2 A              
     e( 11 - 12) =      2.72444  eV     2   -->   2 A              
     e( 13 - 14) =      3.12600  eV     2   -->   2 A              
     e( 15 - 16) =      4.54546  eV     2   -->   2 A              
     e( 17 - 18) =      5.57139  eV     2   -->   2 A              
     e( 19 - 20) =     13.44738  eV     2   -->   2 A              
     e( 21 - 22) =     15.07455  eV     2   -->   2 A              
     e( 23 - 24) =     16.38638  eV     2   -->   2 A              
     e( 25 - 26) =     21.23684  eV     2   -->   2 A              
     e( 27 - 28) =     22.91115  eV     2   -->   2 A              
     e( 29 - 30) =     26.78436  eV     2   -->   2 A              
     e( 31 - 32) =     29.26697  eV     2   -->   2 A              
     e( 33 - 34) =     32.39232  eV     2   -->   2 A              
     e( 35 - 36) =     34.06547  eV     2   -->   2 A              

 **************************************************************************

 **************************************************************************

                    xk=(   0.26660,   0.30784,   0.30972  )

     Band symmetry, C_1 (1)     point group:

     e(  1 -  2) =    -10.38622  eV     2   -->   2 A              
     e(  3 -  4) =      0.95315  eV     2   -->   2 A              
     e(  5 -  6) =      1.52576  eV     2   -->   2 A              
     e(  7 -  8) =      1.65916  eV     2   -->   2 A              
     e(  9 - 10) =      2.45205  eV     2   -->   2 A              
     e( 11 - 12) =      2.51523  eV     2   -->   2 A              
     e( 13 - 14) =      3.74098  eV     2   -->   2 A              
     e( 15 - 16) =      5.21462  eV     2   -->   2 A              
     e( 17 - 18) =      5.54235  eV     2   -->   2 A              
     e( 19 - 20) =     12.29142  eV     2   -->   2 A              
     e( 21 - 22) =     15.60193  eV     2   -->   2 A              
     e( 23 - 24) =     17.49563  eV     2   -->   2 A              
     e( 25 - 26) =     20.28246  eV     2   -->   2 A              
     e( 27 - 28) =     23.39247  eV     2   -->   2 A              
     e( 29 - 30) =     26.73850  eV     2   -->   2 A              
     e( 31 - 32) =     29.39941  eV     2   -->   2 A              
     e( 33 - 34) =     32.11570  eV     2   -->   2 A              
     e( 35 - 36) =     33.29783  eV     2   -->   2 A              

 **************************************************************************

 **************************************************************************

                    xk=(   0.13330,   0.15386,   0.30972  )

     Band symmetry, C_1 (1)     point group:

     e(  1 -  2) =    -10.61319  eV     2   -->   2 A              
     e(  3 -  4) =      0.98481  eV     2   -->   2 A              
     e(  5 -  6) =      1.36287  eV     2   -->   2 A              
     e(  7 -  8) =      1.41781  eV     2   -->   2 A              
     e(  9 - 10) =      2.43163  eV     2   -->   2 A              
     e( 11 - 12) =      2.44133  eV     2   -->   2 A              
     e( 13 - 14) =      4.47741  eV     2   -->   2 A              
     e( 15 - 16) =      5.78341  eV     2   -->   2 A              
     e( 17 - 18) =      6.10009  eV     2   -->   2 A              
     e( 19 - 20) =     10.94414  eV     2   -->   2 A              
     e( 21 - 22) =     16.51287  eV     2   -->   2 A              
     e( 23 - 24) =     18.46819  eV     2   -->   2 A              
     e( 25 - 26) =     19.98202  eV     2   -->   2 A              
     e( 27 - 28) =     24.43896  eV     2   -->   2 A              
     e( 29 - 30) =     26.42339  eV     2   -->   2 A              
     e( 31 - 32) =     28.72972  eV     2   -->   2 A              
     e( 33 - 34) =     29.83733  eV     2   -->   2 A              
     e( 35 - 36) =     32.00578  eV     2   -->   2 A              

 **************************************************************************

 **************************************************************************

                    xk=(   0.00000,   0.00000,   0.30972  )

     point group C_6v (6mm) 
     there are  6 classes
     the character table:

       E     2C6   2C3   C2    3s_v  3s_d 
A_1    1.00  1.00  1.00  1.00  1.00  1.00
A_2    1.00  1.00  1.00  1.00 -1.00 -1.00
B_1    1.00 -1.00  1.00 -1.00  1.00 -1.00
B_2    1.00 -1.00  1.00 -1.00 -1.00  1.00
E_1    2.00  1.00 -1.00 -2.00  0.00  0.00
E_2    2.00 -1.00 -1.00  2.00  0.00  0.00

     the symmetry operations in each class and the name of the first element:

     E        1
                                                                 
     2C6      3    4
                                                                 
     2C3      5    6
                                                                 
     C2       2
                                                                 
     3s_v     8   12   11
                                                                 
     3s_d     7    9   10
                                                                 

     Band symmetry, C_6v (6mm)  point group:

     e(  1 -  2) =    -10.72689  eV     2   --> A_1            
     e(  1 -  2) =    -10.72689  eV     2   --> B_1            
     e(  3 -  4) =      1.08106  eV     2   --> A_1            
     e(  3 -  4) =      1.08106  eV     2   --> B_1            
     e(  5 -  8) =      1.28099  eV     4   --> E_1            
     e(  5 -  8) =      1.28099  eV     4   --> E_2            
     e(  9 - 12) =      2.43527  eV     4   --> E_1            
     e(  9 - 12) =      2.43527  eV     4   --> E_2            
     e( 13 - 14) =      4.54881  eV     2   --> A_1            
     e( 13 - 14) =      4.54881  eV     2   --> B_1            
     e( 15 - 18) =      6.41238  eV     4   --> E_1            
     e( 15 - 18) =      6.41238  eV     4   --> E_2            
     e( 19 - 20) =     10.14151  eV     2   --> A_1            
     e( 19 - 20) =     10.14151  eV     2   --> B_1            
     e( 21 - 22) =     16.67754  eV     2   --> A_1            
     e( 21 - 22) =     16.67754  eV     2   --> B_1            
     e( 23 - 26) =     19.80694  eV     4   --> E_1            
     e( 23 - 26) =     19.80694  eV     4   --> E_2            
     e( 27 - 28) =     24.77384  eV     2   --> A_1            
     e( 27 - 28) =     24.77384  eV     2   --> B_1            
     e( 29 - 32) =     26.72889  eV     4   --> E_1            
     e( 29 - 32) =     26.72889  eV     4   --> E_2            
     e( 33 - 34) =     30.79268  eV     2   --> A_1            
     e( 33 - 34) =     30.79268  eV     2   --> B_1            
     e( 35 - 36) =     31.38261  eV     2   -->   ?

 **************************************************************************

     BANDS        :     33.13s CPU     36.22s WALL


   This run was terminated on:  15:23:29  26Apr2025            

=------------------------------------------------------------------------------=
   JOB DONE.
=------------------------------------------------------------------------------=
