
     Program PWSCF v.7.2 starts on 26Apr2025 at 10:52:18 

     This program is part of the open-source Quantum ESPRESSO suite
     for quantum simulation of materials; please cite
         "P. Giannozzi et al., J. Phys.:Condens. Matter 21 395502 (2009);
         "P. Giannozzi et al., J. Phys.:Condens. Matter 29 465901 (2017);
         "P. Giannozzi et al., J. Chem. Phys. 152 154105 (2020);
          URL http://www.quantum-espresso.org", 
     in publications or presentations arising from this work. More details at
     http://www.quantum-espresso.org/quote

     Parallel version (MPI), running on    64 processors

     MPI processes distributed on     1 nodes
     104859 MiB available memory on the printing compute node when the environment starts

     Waiting for input...
     Reading input from standard input
Warning: card &CELL ignored
Warning: card   CELL_DYNAMICS = 'BFGS', ignored
Warning: card   PRESS_CONV_THR  = 0.5D0, ignored
Warning: card   !CELL_DOFREE='XYZ' ignored
Warning: card   CELL_DOFREE='IBRAV' ignored
Warning: card / ignored

     Current dimensions of program PWSCF are:
     Max number of different atomic species (ntypx) = 10
     Max number of k-points (npk) =  40000
     Max angular momentum in pseudopotentials (lmaxx) =  4
     file Zn.upf: wavefunction(s)  3D renormalized

     K-points division:     npool     =       4
     R & G space division:  proc/nbgrp/npool/nimage =      16
     Subspace diagonalization in iterative solution of the eigenvalue problem:
     a serial algorithm will be used


     Parallelization info
     --------------------
     sticks:   dense  smooth     PW     G-vecs:    dense   smooth      PW
     Min          57      46     13                 2293     1644     259
     Max          58      47     14                 2300     1651     266
     Sum         925     745    211                36755    26357    4175

     Using Slab Decomposition



     bravais-lattice index     =            4
     lattice parameter (alat)  =       6.1946  a.u.
     unit-cell volume          =     332.3260 (a.u.)^3
     number of atoms/cell      =            4
     number of atomic types    =            2
     number of electrons       =        36.00
     number of Kohn-Sham states=           36
     kinetic-energy cutoff     =      70.0000  Ry
     charge density cutoff     =     350.0000  Ry
     scf convergence threshold =      1.0E-09
     mixing beta               =       0.1000
     number of iterations used =            8  local-TF  mixing
     Exchange-correlation= PBE
                           (   1   4   3   4   0   0   0)

     celldm(1)=   6.194571  celldm(2)=   0.000000  celldm(3)=   1.614358
     celldm(4)=   0.000000  celldm(5)=   0.000000  celldm(6)=   0.000000

     crystal axes: (cart. coord. in units of alat)
               a(1) = (   1.000000   0.000000   0.000000 )  
               a(2) = (  -0.500000   0.866025   0.000000 )  
               a(3) = (   0.000000   0.000000   1.614358 )  

     reciprocal axes: (cart. coord. in units 2 pi/alat)
               b(1) = (  1.000000  0.577350 -0.000000 )  
               b(2) = (  0.000000  1.154701  0.000000 )  
               b(3) = (  0.000000 -0.000000  0.619441 )  


     PseudoPot. # 1 for Zn read from file:
     ./Zn.upf
     MD5 check sum: 7f56cabf9682ed8c977c2f7d0c5985c5
     Pseudo is Ultrasoft + core correction, Zval = 12.0
     Generated using &quot;atomic&quot; code by A. Dal Corso  v.6.2.2
     Using radial grid of 1201 points,  6 beta functions with: 
                l(1) =   0
                l(2) =   0
                l(3) =   1
                l(4) =   1
                l(5) =   2
                l(6) =   2
     Q(r) pseudized with 0 coefficients 


     PseudoPot. # 2 for O  read from file:
     ./O.upf
     MD5 check sum: 91400c9766925bcf19f520983a725ff0
     Pseudo is Ultrasoft + core correction, Zval =  6.0
     Generated using &quot;atomic&quot; code by A. Dal Corso  v.6.3MaX
     Using radial grid of 1095 points,  4 beta functions with: 
                l(1) =   0
                l(2) =   0
                l(3) =   1
                l(4) =   1
     Q(r) pseudized with 0 coefficients 


     atomic species   valence    mass     pseudopotential
        Zn            12.00    63.38000     Zn( 1.00)
        O              6.00    15.99900     O ( 1.00)

     12 Sym. Ops. (no inversion) found ( 6 have fractional translation)


                                    s                        frac. trans.

      isym =  1     identity                                     

 cryst.   s( 1) = (     1          0          0      )
                  (     0          1          0      )
                  (     0          0          1      )

 cart.    s( 1) = (  1.0000000  0.0000000  0.0000000 )
                  (  0.0000000  1.0000000  0.0000000 )
                  (  0.0000000  0.0000000  1.0000000 )


      isym =  2     180 deg rotation - cart. axis [0,0,1]        

 cryst.   s( 2) = (    -1          0          0      )    f =(  0.0000000 )
                  (     0         -1          0      )       (  0.0000000 )
                  (     0          0          1      )       (  0.5000000 )

 cart.    s( 2) = ( -1.0000000  0.0000000  0.0000000 )    f =(  0.0000000 )
                  (  0.0000000 -1.0000000  0.0000000 )       (  0.0000000 )
                  (  0.0000000  0.0000000  1.0000000 )       (  0.8071792 )


      isym =  3      60 deg rotation - cryst. axis [0,0,1]       

 cryst.   s( 3) = (     1          1          0      )    f =( -0.0000000 )
                  (    -1          0          0      )       (  0.0000000 )
                  (     0          0          1      )       (  0.5000000 )

 cart.    s( 3) = (  0.5000000 -0.8660254  0.0000000 )    f =( -0.0000000 )
                  (  0.8660254  0.5000000  0.0000000 )       (  0.0000000 )
                  (  0.0000000  0.0000000  1.0000000 )       (  0.8071792 )


      isym =  4      60 deg rotation - cryst. axis [0,0,-1]      

 cryst.   s( 4) = (     0         -1          0      )    f =(  0.0000000 )
                  (     1          1          0      )       (  0.0000000 )
                  (     0          0          1      )       (  0.5000000 )

 cart.    s( 4) = (  0.5000000  0.8660254  0.0000000 )    f =( -0.0000000 )
                  ( -0.8660254  0.5000000  0.0000000 )       (  0.0000000 )
                  (  0.0000000  0.0000000  1.0000000 )       (  0.8071792 )


      isym =  5     120 deg rotation - cryst. axis [0,0,1]       

 cryst.   s( 5) = (     0          1          0      )
                  (    -1         -1          0      )
                  (     0          0          1      )

 cart.    s( 5) = ( -0.5000000 -0.8660254  0.0000000 )
                  (  0.8660254 -0.5000000  0.0000000 )
                  (  0.0000000  0.0000000  1.0000000 )


      isym =  6     120 deg rotation - cryst. axis [0,0,-1]      

 cryst.   s( 6) = (    -1         -1          0      )
                  (     1          0          0      )
                  (     0          0          1      )

 cart.    s( 6) = ( -0.5000000  0.8660254  0.0000000 )
                  ( -0.8660254 -0.5000000  0.0000000 )
                  (  0.0000000  0.0000000  1.0000000 )


      isym =  7     inv. 180 deg rotation - cart. axis [0,1,0]   

 cryst.   s( 7) = (     1          0          0      )    f =( -0.0000000 )
                  (    -1         -1          0      )       (  0.0000000 )
                  (     0          0          1      )       (  0.5000000 )

 cart.    s( 7) = (  1.0000000  0.0000000  0.0000000 )    f =( -0.0000000 )
                  (  0.0000000 -1.0000000  0.0000000 )       (  0.0000000 )
                  (  0.0000000  0.0000000  1.0000000 )       (  0.8071792 )


      isym =  8     inv. 180 deg rotation - cart. axis [1,0,0]   

 cryst.   s( 8) = (    -1          0          0      )
                  (     1          1          0      )
                  (     0          0          1      )

 cart.    s( 8) = ( -1.0000000  0.0000000  0.0000000 )
                  (  0.0000000  1.0000000  0.0000000 )
                  (  0.0000000  0.0000000  1.0000000 )


      isym =  9     inv. 180 deg rotation - cryst. axis [1,-1,0] 

 cryst.   s( 9) = (     0          1          0      )    f =(  0.0000000 )
                  (     1          0          0      )       (  0.0000000 )
                  (     0          0          1      )       (  0.5000000 )

 cart.    s( 9) = ( -0.5000000  0.8660254  0.0000000 )    f =(  0.0000000 )
                  (  0.8660254  0.5000000  0.0000000 )       (  0.0000000 )
                  (  0.0000000  0.0000000  1.0000000 )       (  0.8071792 )


      isym = 10     inv. 180 deg rotation - cryst. axis [2,1,0]  

 cryst.   s(10) = (    -1         -1          0      )    f =(  0.0000000 )
                  (     0          1          0      )       (  0.0000000 )
                  (     0          0          1      )       (  0.5000000 )

 cart.    s(10) = ( -0.5000000 -0.8660254  0.0000000 )    f =( -0.0000000 )
                  ( -0.8660254  0.5000000  0.0000000 )       (  0.0000000 )
                  (  0.0000000  0.0000000  1.0000000 )       (  0.8071792 )


      isym = 11     inv. 180 deg rotation - cryst. axis [0,1,0]  

 cryst.   s(11) = (     1          1          0      )
                  (     0         -1          0      )
                  (     0          0          1      )

 cart.    s(11) = (  0.5000000  0.8660254  0.0000000 )
                  (  0.8660254 -0.5000000  0.0000000 )
                  (  0.0000000  0.0000000  1.0000000 )


      isym = 12     inv. 180 deg rotation - cryst. axis [1,1,0]  

 cryst.   s(12) = (     0         -1          0      )
                  (    -1          0          0      )
                  (     0          0          1      )

 cart.    s(12) = (  0.5000000 -0.8660254  0.0000000 )
                  ( -0.8660254 -0.5000000  0.0000000 )
                  (  0.0000000  0.0000000  1.0000000 )


     point group C_6v (6mm) 
     there are  6 classes
     the character table:

       E     2C6   2C3   C2    3s_v  3s_d 
A_1    1.00  1.00  1.00  1.00  1.00  1.00
A_2    1.00  1.00  1.00  1.00 -1.00 -1.00
B_1    1.00 -1.00  1.00 -1.00  1.00 -1.00
B_2    1.00 -1.00  1.00 -1.00 -1.00  1.00
E_1    2.00  1.00 -1.00 -2.00  0.00  0.00
E_2    2.00 -1.00 -1.00  2.00  0.00  0.00

     the symmetry operations in each class and the name of the first element:

     E        1
          identity                                               
     2C6      3    4
           60 deg rotation - cryst. axis [0,0,1]                 
     2C3      5    6
          120 deg rotation - cryst. axis [0,0,1]                 
     C2       2
          180 deg rotation - cart. axis [0,0,1]                  
     3s_v     8   12   11
          inv. 180 deg rotation - cart. axis [1,0,0]             
     3s_d     7    9   10
          inv. 180 deg rotation - cart. axis [0,1,0]             

   Cartesian axes

     site n.     atom                  positions (alat units)
         1           Zn  tau(   1) = (   0.5000000   0.2886751   0.8059626  )
         2           Zn  tau(   2) = (  -0.0000000   0.5773503  -0.0012166  )
         3           O   tau(   3) = (   0.5000000   0.2886751   1.4223524  )
         4           O   tau(   4) = (  -0.0000000   0.5773503   0.6151732  )

   Crystallographic axes

     site n.     atom                  positions (cryst. coord.)
         1           Zn  tau(   1) = (  0.6666667  0.3333333  0.4992464  )
         2           Zn  tau(   2) = (  0.3333333  0.6666667 -0.0007536  )
         3           O   tau(   3) = (  0.6666667  0.3333333  0.8810636  )
         4           O   tau(   4) = (  0.3333333  0.6666667  0.3810636  )

     number of k points=    84  Gaussian smearing, width (Ry)=  0.0050
                       cart. coord. in units 2pi/alat
        k(    1) = (   0.0000000   0.0000000   0.0000000), wk =   0.0020000
        k(    2) = (   0.0000000   0.0000000   0.0619441), wk =   0.0040000
        k(    3) = (   0.0000000   0.0000000   0.1238882), wk =   0.0040000
        k(    4) = (   0.0000000   0.0000000   0.1858323), wk =   0.0040000
        k(    5) = (   0.0000000   0.0000000   0.2477765), wk =   0.0040000
        k(    6) = (   0.0000000   0.0000000  -0.3097206), wk =   0.0020000
        k(    7) = (   0.0000000   0.1154701   0.0000000), wk =   0.0120000
        k(    8) = (   0.0000000   0.1154701   0.0619441), wk =   0.0240000
        k(    9) = (   0.0000000   0.1154701   0.1238882), wk =   0.0240000
        k(   10) = (   0.0000000   0.1154701   0.1858323), wk =   0.0240000
        k(   11) = (   0.0000000   0.1154701   0.2477765), wk =   0.0240000
        k(   12) = (   0.0000000   0.1154701  -0.3097206), wk =   0.0120000
        k(   13) = (   0.0000000   0.2309401   0.0000000), wk =   0.0120000
        k(   14) = (   0.0000000   0.2309401   0.0619441), wk =   0.0240000
        k(   15) = (   0.0000000   0.2309401   0.1238882), wk =   0.0240000
        k(   16) = (   0.0000000   0.2309401   0.1858323), wk =   0.0240000
        k(   17) = (   0.0000000   0.2309401   0.2477765), wk =   0.0240000
        k(   18) = (   0.0000000   0.2309401  -0.3097206), wk =   0.0120000
        k(   19) = (   0.0000000   0.3464102   0.0000000), wk =   0.0120000
        k(   20) = (   0.0000000   0.3464102   0.0619441), wk =   0.0240000
        k(   21) = (   0.0000000   0.3464102   0.1238882), wk =   0.0240000
        k(   22) = (   0.0000000   0.3464102   0.1858323), wk =   0.0240000
        k(   23) = (   0.0000000   0.3464102   0.2477765), wk =   0.0240000
        k(   24) = (   0.0000000   0.3464102  -0.3097206), wk =   0.0120000
        k(   25) = (   0.0000000   0.4618802   0.0000000), wk =   0.0120000
        k(   26) = (   0.0000000   0.4618802   0.0619441), wk =   0.0240000
        k(   27) = (   0.0000000   0.4618802   0.1238882), wk =   0.0240000
        k(   28) = (   0.0000000   0.4618802   0.1858323), wk =   0.0240000
        k(   29) = (   0.0000000   0.4618802   0.2477765), wk =   0.0240000
        k(   30) = (   0.0000000   0.4618802  -0.3097206), wk =   0.0120000
        k(   31) = (   0.0000000  -0.5773503   0.0000000), wk =   0.0060000
        k(   32) = (   0.0000000  -0.5773503   0.0619441), wk =   0.0120000
        k(   33) = (   0.0000000  -0.5773503   0.1238882), wk =   0.0120000
        k(   34) = (   0.0000000  -0.5773503   0.1858323), wk =   0.0120000
        k(   35) = (   0.0000000  -0.5773503   0.2477765), wk =   0.0120000
        k(   36) = (   0.0000000  -0.5773503  -0.3097206), wk =   0.0060000
        k(   37) = (   0.1000000   0.1732051   0.0000000), wk =   0.0120000
        k(   38) = (   0.1000000   0.1732051   0.0619441), wk =   0.0240000
        k(   39) = (   0.1000000   0.1732051   0.1238882), wk =   0.0240000
        k(   40) = (   0.1000000   0.1732051   0.1858323), wk =   0.0240000
        k(   41) = (   0.1000000   0.1732051   0.2477765), wk =   0.0240000
        k(   42) = (   0.1000000   0.1732051  -0.3097206), wk =   0.0120000
        k(   43) = (   0.1000000   0.2886751   0.0000000), wk =   0.0240000
        k(   44) = (   0.1000000   0.2886751   0.0619441), wk =   0.0480000
        k(   45) = (   0.1000000   0.2886751   0.1238882), wk =   0.0480000
        k(   46) = (   0.1000000   0.2886751   0.1858323), wk =   0.0480000
        k(   47) = (   0.1000000   0.2886751   0.2477765), wk =   0.0480000
        k(   48) = (   0.1000000   0.2886751  -0.3097206), wk =   0.0240000
        k(   49) = (   0.1000000   0.4041452   0.0000000), wk =   0.0240000
        k(   50) = (   0.1000000   0.4041452   0.0619441), wk =   0.0480000
        k(   51) = (   0.1000000   0.4041452   0.1238882), wk =   0.0480000
        k(   52) = (   0.1000000   0.4041452   0.1858323), wk =   0.0480000
        k(   53) = (   0.1000000   0.4041452   0.2477765), wk =   0.0480000
        k(   54) = (   0.1000000   0.4041452  -0.3097206), wk =   0.0240000
        k(   55) = (   0.1000000   0.5196152   0.0000000), wk =   0.0240000
        k(   56) = (   0.1000000   0.5196152   0.0619441), wk =   0.0480000
        k(   57) = (   0.1000000   0.5196152   0.1238882), wk =   0.0480000
        k(   58) = (   0.1000000   0.5196152   0.1858323), wk =   0.0480000
        k(   59) = (   0.1000000   0.5196152   0.2477765), wk =   0.0480000
        k(   60) = (   0.1000000   0.5196152  -0.3097206), wk =   0.0240000
        k(   61) = (   0.2000000   0.3464102   0.0000000), wk =   0.0120000
        k(   62) = (   0.2000000   0.3464102   0.0619441), wk =   0.0240000
        k(   63) = (   0.2000000   0.3464102   0.1238882), wk =   0.0240000
        k(   64) = (   0.2000000   0.3464102   0.1858323), wk =   0.0240000
        k(   65) = (   0.2000000   0.3464102   0.2477765), wk =   0.0240000
        k(   66) = (   0.2000000   0.3464102  -0.3097206), wk =   0.0120000
        k(   67) = (   0.2000000   0.4618802   0.0000000), wk =   0.0240000
        k(   68) = (   0.2000000   0.4618802   0.0619441), wk =   0.0480000
        k(   69) = (   0.2000000   0.4618802   0.1238882), wk =   0.0480000
        k(   70) = (   0.2000000   0.4618802   0.1858323), wk =   0.0480000
        k(   71) = (   0.2000000   0.4618802   0.2477765), wk =   0.0480000
        k(   72) = (   0.2000000   0.4618802  -0.3097206), wk =   0.0240000
        k(   73) = (   0.2000000   0.5773503   0.0000000), wk =   0.0120000
        k(   74) = (   0.2000000   0.5773503   0.0619441), wk =   0.0240000
        k(   75) = (   0.2000000   0.5773503   0.1238882), wk =   0.0240000
        k(   76) = (   0.2000000   0.5773503   0.1858323), wk =   0.0240000
        k(   77) = (   0.2000000   0.5773503   0.2477765), wk =   0.0240000
        k(   78) = (   0.2000000   0.5773503  -0.3097206), wk =   0.0120000
        k(   79) = (   0.3000000   0.5196152   0.0000000), wk =   0.0120000
        k(   80) = (   0.3000000   0.5196152   0.0619441), wk =   0.0240000
        k(   81) = (   0.3000000   0.5196152   0.1238882), wk =   0.0240000
        k(   82) = (   0.3000000   0.5196152   0.1858323), wk =   0.0240000
        k(   83) = (   0.3000000   0.5196152   0.2477765), wk =   0.0240000
        k(   84) = (   0.3000000   0.5196152  -0.3097206), wk =   0.0120000

                       cryst. coord.
        k(    1) = (   0.0000000   0.0000000   0.0000000), wk =   0.0020000
        k(    2) = (   0.0000000   0.0000000   0.1000000), wk =   0.0040000
        k(    3) = (   0.0000000   0.0000000   0.2000000), wk =   0.0040000
        k(    4) = (   0.0000000   0.0000000   0.3000000), wk =   0.0040000
        k(    5) = (   0.0000000   0.0000000   0.4000000), wk =   0.0040000
        k(    6) = (   0.0000000   0.0000000  -0.5000000), wk =   0.0020000
        k(    7) = (   0.0000000   0.1000000   0.0000000), wk =   0.0120000
        k(    8) = (   0.0000000   0.1000000   0.1000000), wk =   0.0240000
        k(    9) = (   0.0000000   0.1000000   0.2000000), wk =   0.0240000
        k(   10) = (   0.0000000   0.1000000   0.3000000), wk =   0.0240000
        k(   11) = (   0.0000000   0.1000000   0.4000000), wk =   0.0240000
        k(   12) = (   0.0000000   0.1000000  -0.5000000), wk =   0.0120000
        k(   13) = (   0.0000000   0.2000000   0.0000000), wk =   0.0120000
        k(   14) = (   0.0000000   0.2000000   0.1000000), wk =   0.0240000
        k(   15) = (   0.0000000   0.2000000   0.2000000), wk =   0.0240000
        k(   16) = (   0.0000000   0.2000000   0.3000000), wk =   0.0240000
        k(   17) = (   0.0000000   0.2000000   0.4000000), wk =   0.0240000
        k(   18) = (   0.0000000   0.2000000  -0.5000000), wk =   0.0120000
        k(   19) = (   0.0000000   0.3000000   0.0000000), wk =   0.0120000
        k(   20) = (   0.0000000   0.3000000   0.1000000), wk =   0.0240000
        k(   21) = (   0.0000000   0.3000000   0.2000000), wk =   0.0240000
        k(   22) = (   0.0000000   0.3000000   0.3000000), wk =   0.0240000
        k(   23) = (   0.0000000   0.3000000   0.4000000), wk =   0.0240000
        k(   24) = (   0.0000000   0.3000000  -0.5000000), wk =   0.0120000
        k(   25) = (   0.0000000   0.4000000   0.0000000), wk =   0.0120000
        k(   26) = (   0.0000000   0.4000000   0.1000000), wk =   0.0240000
        k(   27) = (   0.0000000   0.4000000   0.2000000), wk =   0.0240000
        k(   28) = (   0.0000000   0.4000000   0.3000000), wk =   0.0240000
        k(   29) = (   0.0000000   0.4000000   0.4000000), wk =   0.0240000
        k(   30) = (   0.0000000   0.4000000  -0.5000000), wk =   0.0120000
        k(   31) = (   0.0000000  -0.5000000   0.0000000), wk =   0.0060000
        k(   32) = (   0.0000000  -0.5000000   0.1000000), wk =   0.0120000
        k(   33) = (   0.0000000  -0.5000000   0.2000000), wk =   0.0120000
        k(   34) = (   0.0000000  -0.5000000   0.3000000), wk =   0.0120000
        k(   35) = (   0.0000000  -0.5000000   0.4000000), wk =   0.0120000
        k(   36) = (   0.0000000  -0.5000000  -0.5000000), wk =   0.0060000
        k(   37) = (   0.1000000   0.1000000   0.0000000), wk =   0.0120000
        k(   38) = (   0.1000000   0.1000000   0.1000000), wk =   0.0240000
        k(   39) = (   0.1000000   0.1000000   0.2000000), wk =   0.0240000
        k(   40) = (   0.1000000   0.1000000   0.3000000), wk =   0.0240000
        k(   41) = (   0.1000000   0.1000000   0.4000000), wk =   0.0240000
        k(   42) = (   0.1000000   0.1000000  -0.5000000), wk =   0.0120000
        k(   43) = (   0.1000000   0.2000000   0.0000000), wk =   0.0240000
        k(   44) = (   0.1000000   0.2000000   0.1000000), wk =   0.0480000
        k(   45) = (   0.1000000   0.2000000   0.2000000), wk =   0.0480000
        k(   46) = (   0.1000000   0.2000000   0.3000000), wk =   0.0480000
        k(   47) = (   0.1000000   0.2000000   0.4000000), wk =   0.0480000
        k(   48) = (   0.1000000   0.2000000  -0.5000000), wk =   0.0240000
        k(   49) = (   0.1000000   0.3000000   0.0000000), wk =   0.0240000
        k(   50) = (   0.1000000   0.3000000   0.1000000), wk =   0.0480000
        k(   51) = (   0.1000000   0.3000000   0.2000000), wk =   0.0480000
        k(   52) = (   0.1000000   0.3000000   0.3000000), wk =   0.0480000
        k(   53) = (   0.1000000   0.3000000   0.4000000), wk =   0.0480000
        k(   54) = (   0.1000000   0.3000000  -0.5000000), wk =   0.0240000
        k(   55) = (   0.1000000   0.4000000   0.0000000), wk =   0.0240000
        k(   56) = (   0.1000000   0.4000000   0.1000000), wk =   0.0480000
        k(   57) = (   0.1000000   0.4000000   0.2000000), wk =   0.0480000
        k(   58) = (   0.1000000   0.4000000   0.3000000), wk =   0.0480000
        k(   59) = (   0.1000000   0.4000000   0.4000000), wk =   0.0480000
        k(   60) = (   0.1000000   0.4000000  -0.5000000), wk =   0.0240000
        k(   61) = (   0.2000000   0.2000000   0.0000000), wk =   0.0120000
        k(   62) = (   0.2000000   0.2000000   0.1000000), wk =   0.0240000
        k(   63) = (   0.2000000   0.2000000   0.2000000), wk =   0.0240000
        k(   64) = (   0.2000000   0.2000000   0.3000000), wk =   0.0240000
        k(   65) = (   0.2000000   0.2000000   0.4000000), wk =   0.0240000
        k(   66) = (   0.2000000   0.2000000  -0.5000000), wk =   0.0120000
        k(   67) = (   0.2000000   0.3000000   0.0000000), wk =   0.0240000
        k(   68) = (   0.2000000   0.3000000   0.1000000), wk =   0.0480000
        k(   69) = (   0.2000000   0.3000000   0.2000000), wk =   0.0480000
        k(   70) = (   0.2000000   0.3000000   0.3000000), wk =   0.0480000
        k(   71) = (   0.2000000   0.3000000   0.4000000), wk =   0.0480000
        k(   72) = (   0.2000000   0.3000000  -0.5000000), wk =   0.0240000
        k(   73) = (   0.2000000   0.4000000   0.0000000), wk =   0.0120000
        k(   74) = (   0.2000000   0.4000000   0.1000000), wk =   0.0240000
        k(   75) = (   0.2000000   0.4000000   0.2000000), wk =   0.0240000
        k(   76) = (   0.2000000   0.4000000   0.3000000), wk =   0.0240000
        k(   77) = (   0.2000000   0.4000000   0.4000000), wk =   0.0240000
        k(   78) = (   0.2000000   0.4000000  -0.5000000), wk =   0.0120000
        k(   79) = (   0.3000000   0.3000000   0.0000000), wk =   0.0120000
        k(   80) = (   0.3000000   0.3000000   0.1000000), wk =   0.0240000
        k(   81) = (   0.3000000   0.3000000   0.2000000), wk =   0.0240000
        k(   82) = (   0.3000000   0.3000000   0.3000000), wk =   0.0240000
        k(   83) = (   0.3000000   0.3000000   0.4000000), wk =   0.0240000
        k(   84) = (   0.3000000   0.3000000  -0.5000000), wk =   0.0120000

     Dense  grid:    36755 G-vectors     FFT dimensions: (  40,  40,  60)

     Smooth grid:    26357 G-vectors     FFT dimensions: (  36,  36,  54)

     Dynamical RAM for                 wfc:       0.11 MB

     Dynamical RAM for     wfc (w. buffer):       2.48 MB

     Dynamical RAM for           str. fact:       0.07 MB

     Dynamical RAM for           local pot:       0.00 MB

     Dynamical RAM for          nlocal pot:       0.16 MB

     Dynamical RAM for                qrad:       3.00 MB

     Dynamical RAM for          rho,v,vnew:       0.25 MB

     Dynamical RAM for               rhoin:       0.08 MB

     Dynamical RAM for            rho*nmix:       0.56 MB

     Dynamical RAM for           G-vectors:       0.14 MB

     Dynamical RAM for          h,s,v(r/c):       0.24 MB

     Dynamical RAM for          <psi|beta>:       0.03 MB

     Dynamical RAM for                 psi:       0.23 MB

     Dynamical RAM for                hpsi:       0.23 MB

     Dynamical RAM for                spsi:       0.23 MB

     Dynamical RAM for      wfcinit/wfcrot:       0.26 MB

     Dynamical RAM for           addusdens:       1.67 MB

     Dynamical RAM for          addusforce:       1.69 MB

     Dynamical RAM for         addusstress:       1.77 MB

     Estimated static dynamical RAM per process >       6.54 MB

     Estimated max dynamical RAM per process >       8.88 MB

     Estimated total dynamical RAM >     541.16 MB

     Check: negative core charge=   -0.000003

     Initial potential from superposition of free atoms

     starting charge      35.9925, renormalised to      36.0000
     Starting wfcs are   26 randomized atomic wfcs +   10 random wfcs

     total cpu time spent up to now is       68.5 secs

     Self-consistent Calculation

     iteration #  1     ecut=    70.00 Ry     beta= 0.10
     Davidson diagonalization with overlap

---- Real-time Memory Report at c_bands before calling an iterative solver
            45 MiB given to the printing process from OS
             0 MiB allocation reported by mallinfo(arena+hblkhd)
        103738 MiB available memory on the node where the printing process lives
------------------
     ethr =  1.00E-02,  avg # of iterations =  8.8

     total cpu time spent up to now is      532.2 secs

     total energy              =    -361.78412042 Ry
     estimated scf accuracy    <       0.73416800 Ry

     iteration #  2     ecut=    70.00 Ry     beta= 0.10
     Davidson diagonalization with overlap

---- Real-time Memory Report at c_bands before calling an iterative solver
            48 MiB given to the printing process from OS
             0 MiB allocation reported by mallinfo(arena+hblkhd)
        103702 MiB available memory on the node where the printing process lives
------------------
     ethr =  2.04E-03,  avg # of iterations =  1.0

     total cpu time spent up to now is      679.1 secs

     total energy              =    -361.53791943 Ry
     estimated scf accuracy    <       0.55726255 Ry

     iteration #  3     ecut=    70.00 Ry     beta= 0.10
     Davidson diagonalization with overlap

---- Real-time Memory Report at c_bands before calling an iterative solver
            48 MiB given to the printing process from OS
             0 MiB allocation reported by mallinfo(arena+hblkhd)
        103700 MiB available memory on the node where the printing process lives
------------------
     ethr =  1.55E-03,  avg # of iterations =  1.1

     total cpu time spent up to now is      833.1 secs

     total energy              =    -361.63937642 Ry
     estimated scf accuracy    <       0.01711621 Ry

     iteration #  4     ecut=    70.00 Ry     beta= 0.10
     Davidson diagonalization with overlap

---- Real-time Memory Report at c_bands before calling an iterative solver
            48 MiB given to the printing process from OS
             0 MiB allocation reported by mallinfo(arena+hblkhd)
        103696 MiB available memory on the node where the printing process lives
------------------
     ethr =  4.75E-05,  avg # of iterations =  5.5

     total cpu time spent up to now is     1147.0 secs

     total energy              =    -361.64789909 Ry
     estimated scf accuracy    <       0.01568266 Ry

     iteration #  5     ecut=    70.00 Ry     beta= 0.10
     Davidson diagonalization with overlap

---- Real-time Memory Report at c_bands before calling an iterative solver
            48 MiB given to the printing process from OS
             0 MiB allocation reported by mallinfo(arena+hblkhd)
        103697 MiB available memory on the node where the printing process lives
------------------
     ethr =  4.36E-05,  avg # of iterations =  1.1

     total cpu time spent up to now is     1296.7 secs

     total energy              =    -361.64484844 Ry
     estimated scf accuracy    <       0.01194253 Ry

     iteration #  6     ecut=    70.00 Ry     beta= 0.10
     Davidson diagonalization with overlap

---- Real-time Memory Report at c_bands before calling an iterative solver
            48 MiB given to the printing process from OS
             0 MiB allocation reported by mallinfo(arena+hblkhd)
        103697 MiB available memory on the node where the printing process lives
------------------
     ethr =  3.32E-05,  avg # of iterations =  1.0

     total cpu time spent up to now is     1447.0 secs

     total energy              =    -361.64672941 Ry
     estimated scf accuracy    <       0.00031674 Ry

     iteration #  7     ecut=    70.00 Ry     beta= 0.10
     Davidson diagonalization with overlap

---- Real-time Memory Report at c_bands before calling an iterative solver
            48 MiB given to the printing process from OS
             0 MiB allocation reported by mallinfo(arena+hblkhd)
        103697 MiB available memory on the node where the printing process lives
------------------
     ethr =  8.80E-07,  avg # of iterations =  5.3

     total cpu time spent up to now is     1680.0 secs

     total energy              =    -361.64681846 Ry
     estimated scf accuracy    <       0.00027247 Ry

     iteration #  8     ecut=    70.00 Ry     beta= 0.10
     Davidson diagonalization with overlap

---- Real-time Memory Report at c_bands before calling an iterative solver
            48 MiB given to the printing process from OS
             0 MiB allocation reported by mallinfo(arena+hblkhd)
        103696 MiB available memory on the node where the printing process lives
------------------
     ethr =  7.57E-07,  avg # of iterations =  1.8

     total cpu time spent up to now is     1846.0 secs

     total energy              =    -361.64685055 Ry
     estimated scf accuracy    <       0.00001948 Ry

     iteration #  9     ecut=    70.00 Ry     beta= 0.10
     Davidson diagonalization with overlap

---- Real-time Memory Report at c_bands before calling an iterative solver
            48 MiB given to the printing process from OS
             0 MiB allocation reported by mallinfo(arena+hblkhd)
        103674 MiB available memory on the node where the printing process lives
------------------
     c_bands:  1 eigenvalues not converged
     ethr =  5.41E-08,  avg # of iterations =  4.7

     total cpu time spent up to now is     2154.2 secs

     total energy              =    -361.64685784 Ry
     estimated scf accuracy    <       0.00006546 Ry

     iteration # 10     ecut=    70.00 Ry     beta= 0.10
     Davidson diagonalization with overlap

---- Real-time Memory Report at c_bands before calling an iterative solver
            48 MiB given to the printing process from OS
             0 MiB allocation reported by mallinfo(arena+hblkhd)
        103689 MiB available memory on the node where the printing process lives
------------------
     ethr =  5.41E-08,  avg # of iterations =  1.1

     total cpu time spent up to now is     2302.4 secs

     total energy              =    -361.64685710 Ry
     estimated scf accuracy    <       0.00002037 Ry

     iteration # 11     ecut=    70.00 Ry     beta= 0.10
     Davidson diagonalization with overlap

---- Real-time Memory Report at c_bands before calling an iterative solver
            48 MiB given to the printing process from OS
             0 MiB allocation reported by mallinfo(arena+hblkhd)
        103689 MiB available memory on the node where the printing process lives
------------------
     ethr =  5.41E-08,  avg # of iterations =  1.0

     total cpu time spent up to now is     2448.7 secs

     total energy              =    -361.64685353 Ry
     estimated scf accuracy    <       0.00000886 Ry

     iteration # 12     ecut=    70.00 Ry     beta= 0.10
     Davidson diagonalization with overlap

---- Real-time Memory Report at c_bands before calling an iterative solver
            48 MiB given to the printing process from OS
             0 MiB allocation reported by mallinfo(arena+hblkhd)
        103687 MiB available memory on the node where the printing process lives
------------------
     ethr =  2.46E-08,  avg # of iterations =  1.9

     total cpu time spent up to now is     2618.5 secs

     total energy              =    -361.64685537 Ry
     estimated scf accuracy    <       0.00000012 Ry

     iteration # 13     ecut=    70.00 Ry     beta= 0.10
     Davidson diagonalization with overlap

---- Real-time Memory Report at c_bands before calling an iterative solver
            48 MiB given to the printing process from OS
             0 MiB allocation reported by mallinfo(arena+hblkhd)
        103688 MiB available memory on the node where the printing process lives
------------------
     ethr =  3.39E-10,  avg # of iterations =  4.0

     total cpu time spent up to now is     2931.4 secs

     total energy              =    -361.64685604 Ry
     estimated scf accuracy    <       0.00000023 Ry

     iteration # 14     ecut=    70.00 Ry     beta= 0.10
     Davidson diagonalization with overlap

---- Real-time Memory Report at c_bands before calling an iterative solver
            48 MiB given to the printing process from OS
             0 MiB allocation reported by mallinfo(arena+hblkhd)
        103690 MiB available memory on the node where the printing process lives
------------------
     ethr =  3.39E-10,  avg # of iterations =  1.0

     total cpu time spent up to now is     3078.7 secs

     total energy              =    -361.64685605 Ry
     estimated scf accuracy    <       0.00000033 Ry

     iteration # 15     ecut=    70.00 Ry     beta= 0.10
     Davidson diagonalization with overlap

---- Real-time Memory Report at c_bands before calling an iterative solver
            48 MiB given to the printing process from OS
             0 MiB allocation reported by mallinfo(arena+hblkhd)
        103690 MiB available memory on the node where the printing process lives
------------------
     ethr =  3.39E-10,  avg # of iterations =  1.0

     total cpu time spent up to now is     3226.1 secs

     total energy              =    -361.64685631 Ry
     estimated scf accuracy    <       0.00000030 Ry

     iteration # 16     ecut=    70.00 Ry     beta= 0.10
     Davidson diagonalization with overlap

---- Real-time Memory Report at c_bands before calling an iterative solver
            48 MiB given to the printing process from OS
             0 MiB allocation reported by mallinfo(arena+hblkhd)
        103690 MiB available memory on the node where the printing process lives
------------------
     ethr =  3.39E-10,  avg # of iterations =  4.0

     total cpu time spent up to now is     3467.8 secs

     total energy              =    -361.64685643 Ry
     estimated scf accuracy    <       0.00000157 Ry

     iteration # 17     ecut=    70.00 Ry     beta= 0.10
     Davidson diagonalization with overlap

---- Real-time Memory Report at c_bands before calling an iterative solver
            48 MiB given to the printing process from OS
             0 MiB allocation reported by mallinfo(arena+hblkhd)
        103691 MiB available memory on the node where the printing process lives
------------------
     ethr =  3.39E-10,  avg # of iterations =  1.1

     total cpu time spent up to now is     3618.1 secs

     total energy              =    -361.64685648 Ry
     estimated scf accuracy    <       0.00000172 Ry

     iteration # 18     ecut=    70.00 Ry     beta= 0.10
     Davidson diagonalization with overlap

---- Real-time Memory Report at c_bands before calling an iterative solver
            48 MiB given to the printing process from OS
             0 MiB allocation reported by mallinfo(arena+hblkhd)
        103691 MiB available memory on the node where the printing process lives
------------------
     ethr =  3.39E-10,  avg # of iterations =  1.0

     total cpu time spent up to now is     3766.9 secs

     total energy              =    -361.64685692 Ry
     estimated scf accuracy    <       0.00000190 Ry

     iteration # 19     ecut=    70.00 Ry     beta= 0.10
     Davidson diagonalization with overlap

---- Real-time Memory Report at c_bands before calling an iterative solver
            48 MiB given to the printing process from OS
             0 MiB allocation reported by mallinfo(arena+hblkhd)
        103691 MiB available memory on the node where the printing process lives
------------------
     ethr =  3.39E-10,  avg # of iterations =  2.6

     total cpu time spent up to now is     3966.8 secs

     total energy              =    -361.64685591 Ry
     estimated scf accuracy    <       0.00000378 Ry

     iteration # 20     ecut=    70.00 Ry     beta= 0.10
     Davidson diagonalization with overlap

---- Real-time Memory Report at c_bands before calling an iterative solver
            48 MiB given to the printing process from OS
             0 MiB allocation reported by mallinfo(arena+hblkhd)
        103691 MiB available memory on the node where the printing process lives
------------------
     ethr =  3.39E-10,  avg # of iterations =  4.0

     total cpu time spent up to now is     4238.3 secs

     total energy              =    -361.64685604 Ry
     estimated scf accuracy    <       0.00000038 Ry

     iteration # 21     ecut=    70.00 Ry     beta= 0.10
     Davidson diagonalization with overlap

---- Real-time Memory Report at c_bands before calling an iterative solver
            48 MiB given to the printing process from OS
             0 MiB allocation reported by mallinfo(arena+hblkhd)
        103688 MiB available memory on the node where the printing process lives
------------------
     ethr =  3.39E-10,  avg # of iterations =  2.0

     total cpu time spent up to now is     4418.0 secs

     total energy              =    -361.64685606 Ry
     estimated scf accuracy    <       0.00000004 Ry

     iteration # 22     ecut=    70.00 Ry     beta= 0.10
     Davidson diagonalization with overlap

---- Real-time Memory Report at c_bands before calling an iterative solver
            48 MiB given to the printing process from OS
             0 MiB allocation reported by mallinfo(arena+hblkhd)
        103690 MiB available memory on the node where the printing process lives
------------------
     ethr =  1.11E-10,  avg # of iterations =  3.5

     total cpu time spent up to now is     4653.5 secs

     total energy              =    -361.64685607 Ry
     estimated scf accuracy    <          5.5E-09 Ry

     iteration # 23     ecut=    70.00 Ry     beta= 0.10
     Davidson diagonalization with overlap

---- Real-time Memory Report at c_bands before calling an iterative solver
            48 MiB given to the printing process from OS
             0 MiB allocation reported by mallinfo(arena+hblkhd)
        103691 MiB available memory on the node where the printing process lives
------------------
     ethr =  1.53E-11,  avg # of iterations =  2.8

     total cpu time spent up to now is     4876.0 secs

     End of self-consistent calculation

          k = 0.0000 0.0000 0.0000 (  3297 PWs)   bands (ev):

   -11.0513 -10.3848   1.2175   1.2175   1.2985   1.3891   1.3891   1.4010
     2.3197   2.3197   2.5121   2.5121   2.7955   6.0422   6.0422   6.6773
     6.7740   6.7740   7.5137  11.8693  14.8336  19.5278  19.5278  20.5309
    20.7216  20.7216  23.1606  24.8003  24.8003  26.3934  26.4672  26.4672
    27.4648  29.4891  31.2112  31.2112

     occupation numbers 
     1.0000   1.0000   1.0000   1.0000   1.0000   1.0000   1.0000   1.0000
     1.0000   1.0000   1.0000   1.0000   1.0000   1.0000   1.0000   1.0000
     1.0000   1.0000   0.0000   0.0000   0.0000   0.0000   0.0000   0.0000
     0.0000   0.0000   0.0000   0.0000   0.0000   0.0000   0.0000   0.0000
     0.0000   0.0000   0.0000   0.0000

          k = 0.0000 0.0000 0.0619 (  3315 PWs)   bands (ev):

   -11.0358 -10.4019   1.2197   1.2197   1.2815   1.3475   1.3826   1.3826
     2.3261   2.3261   2.5095   2.5095   2.9155   6.0604   6.0604   6.4145
     6.7565   6.7565   7.8084  11.7845  14.9093  19.5289  19.5289  20.1616
    20.6525  20.6525  23.3015  24.9035  24.9035  26.3298  26.5846  26.5846
    27.8683  29.4577  31.0882  31.0882

     occupation numbers 
     1.0000   1.0000   1.0000   1.0000   1.0000   1.0000   1.0000   1.0000
     1.0000   1.0000   1.0000   1.0000   1.0000   1.0000   1.0000   1.0000
     1.0000   1.0000   0.0000   0.0000   0.0000   0.0000   0.0000   0.0000
     0.0000   0.0000   0.0000   0.0000   0.0000   0.0000   0.0000   0.0000
     0.0000   0.0000   0.0000   0.0000

          k = 0.0000 0.0000 0.1239 (  3303 PWs)   bands (ev):

   -10.9906 -10.4515   1.2264   1.2264   1.2354   1.2374   1.3645   1.3645
     2.3445   2.3445   2.5009   2.5009   3.2202   5.9646   6.1134   6.1134
     6.7057   6.7057   8.3468  11.5416  15.1338  19.3316  19.5398  19.5398
    20.4719  20.4719  23.5882  25.1993  25.1993  26.1137  26.8721  26.8721
    28.9146  29.4865  30.8039  30.8039

     occupation numbers 
     1.0000   1.0000   1.0000   1.0000   1.0000   1.0000   1.0000   1.0000
     1.0000   1.0000   1.0000   1.0000   1.0000   1.0000   1.0000   1.0000
     1.0000   1.0000   0.0000   0.0000   0.0000   0.0000   0.0000   0.0000
     0.0000   0.0000   0.0000   0.0000   0.0000   0.0000   0.0000   0.0000
     0.0000   0.0000   0.0000   0.0000

          k = 0.0000 0.0000 0.1858 (  3273 PWs)   bands (ev):

   -10.9196 -10.5279   1.1397   1.1740   1.2387   1.2387   1.3385   1.3385
     2.3716   2.3716   2.4857   2.4857   3.6253   5.4949   6.1957   6.1957
     6.6262   6.6262   8.9421  11.1666  15.5032  18.3825  19.5790  19.5790
    20.2376  20.2376  23.9273  25.6487  25.6487  25.7363  27.1337  27.1337
    29.7365  30.2329  30.5958  30.5958

     occupation numbers 
     1.0000   1.0000   1.0000   1.0000   1.0000   1.0000   1.0000   1.0000
     1.0000   1.0000   1.0000   1.0000   1.0000   1.0000   1.0000   1.0000
     1.0000   1.0000   0.0000   0.0000   0.0000   0.0000   0.0000   0.0000
     0.0000   0.0000   0.0000   0.0000   0.0000   0.0000   0.0000   0.0000
     0.0000   0.0000   0.0000   0.0000

          k = 0.0000 0.0000 0.2478 (  3272 PWs)   bands (ev):

   -10.8289 -10.6230   1.0860   1.1159   1.2569   1.2569   1.3092   1.3092
     2.4033   2.4033   2.4635   2.4635   4.0781   5.0226   6.2989   6.2989
     6.5252   6.5252   9.5498  10.6900  16.0177  17.4750  19.6646  19.6646
    20.0038  20.0038  24.3218  25.2626  26.1904  26.1904  27.1040  27.1040
    30.2131  30.7654  30.7654  31.0715

     occupation numbers 
     1.0000   1.0000   1.0000   1.0000   1.0000   1.0000   1.0000   1.0000
     1.0000   1.0000   1.0000   1.0000   1.0000   1.0000   1.0000   1.0000
     1.0000   1.0000   0.0000   0.0000   0.0000   0.0000   0.0000   0.0000
     0.0000   0.0000   0.0000   0.0000   0.0000   0.0000   0.0000   0.0000
     0.0000   0.0000   0.0000   0.0000

          k = 0.0000 0.0000-0.3097 (  3266 PWs)   bands (ev):

   -10.7268 -10.7268   1.0811   1.0811   1.2810   1.2810   1.2810   1.2810
     2.4352   2.4352   2.4352   2.4352   4.5488   4.5488   6.4125   6.4125
     6.4125   6.4125  10.1416  10.1416  16.6776  16.6776  19.8069  19.8069
    19.8069  19.8069  24.7738  24.7738  26.7289  26.7289  26.7289  26.7289
    30.7927  30.7927  31.3826  31.3826

     occupation numbers 
     1.0000   1.0000   1.0000   1.0000   1.0000   1.0000   1.0000   1.0000
     1.0000   1.0000   1.0000   1.0000   1.0000   1.0000   1.0000   1.0000
     1.0000   1.0000   0.0000   0.0000   0.0000   0.0000   0.0000   0.0000
     0.0000   0.0000   0.0000   0.0000   0.0000   0.0000   0.0000   0.0000
     0.0000   0.0000   0.0000   0.0000

          k = 0.0000 0.1155 0.0000 (  3307 PWs)   bands (ev):

   -10.9998 -10.3615   1.1635   1.2492   1.3281   1.3850   1.4325   1.4746
     2.2984   2.3165   2.5166   2.5614   2.7838   5.6834   5.9129   6.1589
     6.6168   6.7028   8.2551  12.2738  14.8357  18.5371  19.6170  19.9885
    20.6723  20.8430  22.6805  24.1974  24.9627  26.5260  27.5638  27.6556
    28.2016  30.1215  31.0721  31.3082

     occupation numbers 
     1.0000   1.0000   1.0000   1.0000   1.0000   1.0000   1.0000   1.0000
     1.0000   1.0000   1.0000   1.0000   1.0000   1.0000   1.0000   1.0000
     1.0000   1.0000   0.0000   0.0000   0.0000   0.0000   0.0000   0.0000
     0.0000   0.0000   0.0000   0.0000   0.0000   0.0000   0.0000   0.0000
     0.0000   0.0000   0.0000   0.0000

          k = 0.0000 0.1155 0.0619 (  3308 PWs)   bands (ev):

   -10.9849 -10.3778   1.1573   1.2516   1.3151   1.3541   1.4257   1.4432
     2.3064   2.3229   2.5135   2.5435   2.9225   5.7008   5.9328   6.0419
     6.5997   6.6840   8.4056  12.1771  14.9149  18.5537  19.6184  19.9063
    20.2753  20.7644  22.9744  24.3461  25.0364  26.5159  27.5191  27.7190
    28.5063  30.1301  31.0935  31.1811

     occupation numbers 
     1.0000   1.0000   1.0000   1.0000   1.0000   1.0000   1.0000   1.0000
     1.0000   1.0000   1.0000   1.0000   1.0000   1.0000   1.0000   1.0000
     1.0000   1.0000   0.0000   0.0000   0.0000   0.0000   0.0000   0.0000
     0.0000   0.0000   0.0000   0.0000   0.0000   0.0000   0.0000   0.0000
     0.0000   0.0000   0.0000   0.0000

          k = 0.0000 0.1155 0.1239 (  3290 PWs)   bands (ev):

   -10.9413 -10.4250   1.1358   1.2349   1.2593   1.3107   1.4068   1.4073
     2.3285   2.3412   2.5037   2.5213   3.2448   5.6908   5.8263   5.9902
     6.5371   6.6293   8.7886  11.9057  15.1446  18.5815  19.3483  19.6299
    19.8535  20.5666  23.4937  24.7533  25.2369  26.4280  27.4843  27.8398
    29.2715  30.1550  30.9099  31.1471

     occupation numbers 
     1.0000   1.0000   1.0000   1.0000   1.0000   1.0000   1.0000   1.0000
     1.0000   1.0000   1.0000   1.0000   1.0000   1.0000   1.0000   1.0000
     1.0000   1.0000   0.0000   0.0000   0.0000   0.0000   0.0000   0.0000
     0.0000   0.0000   0.0000   0.0000   0.0000   0.0000   0.0000   0.0000
     0.0000   0.0000   0.0000   0.0000

          k = 0.0000 0.1155 0.1858 (  3290 PWs)   bands (ev):

   -10.8729 -10.4978   1.0971   1.1294   1.2729   1.2994   1.3772   1.3795
     2.3608   2.3685   2.4869   2.4983   3.6545   5.3692   5.8826   6.0792
     6.4305   6.5436   9.2979  11.4998  15.5130  18.2400  18.8786  19.6264
    19.6685  20.3217  23.9895  25.3424  25.4296  26.3180  27.5432  27.8033
    29.8098  30.2972  30.7913  31.4199

     occupation numbers 
     1.0000   1.0000   1.0000   1.0000   1.0000   1.0000   1.0000   1.0000
     1.0000   1.0000   1.0000   1.0000   1.0000   1.0000   1.0000   1.0000
     1.0000   1.0000   0.0000   0.0000   0.0000   0.0000   0.0000   0.0000
     0.0000   0.0000   0.0000   0.0000   0.0000   0.0000   0.0000   0.0000
     0.0000   0.0000   0.0000   0.0000

          k = 0.0000 0.1155 0.2478 (  3277 PWs)   bands (ev):

   -10.7858 -10.5886   1.0547   1.0647   1.2928   1.3046   1.3478   1.3486
     2.3982   2.4006   2.4631   2.4699   4.0981   4.9711   6.0048   6.1907
     6.2949   6.4348   9.8645  11.0005  16.0167  17.4187  18.9770  19.3912
    19.7520  20.0858  24.4420  25.2660  26.0399  26.5913  27.4164  27.4851
    29.7624  30.3499  31.0825  31.9732

     occupation numbers 
     1.0000   1.0000   1.0000   1.0000   1.0000   1.0000   1.0000   1.0000
     1.0000   1.0000   1.0000   1.0000   1.0000   1.0000   1.0000   1.0000
     1.0000   1.0000   0.0000   0.0000   0.0000   0.0000   0.0000   0.0000
     0.0000   0.0000   0.0000   0.0000   0.0000   0.0000   0.0000   0.0000
     0.0000   0.0000   0.0000   0.0000

          k = 0.0000 0.1155-0.3097 (  3282 PWs)   bands (ev):

   -10.6879 -10.6879   1.0402   1.0402   1.3186   1.3186   1.3222   1.3222
     2.4334   2.4334   2.4358   2.4358   4.5433   4.5433   6.1475   6.1475
     6.3133   6.3133  10.4440  10.4440  16.6554  16.6554  19.1664  19.1664
    19.8912  19.8912  24.8738  24.8738  26.7692  26.7692  27.1048  27.1048
    29.9867  29.9867  31.7173  31.7173

     occupation numbers 
     1.0000   1.0000   1.0000   1.0000   1.0000   1.0000   1.0000   1.0000
     1.0000   1.0000   1.0000   1.0000   1.0000   1.0000   1.0000   1.0000
     1.0000   1.0000   0.0000   0.0000   0.0000   0.0000   0.0000   0.0000
     0.0000   0.0000   0.0000   0.0000   0.0000   0.0000   0.0000   0.0000
     0.0000   0.0000   0.0000   0.0000

          k = 0.0000 0.2309 0.0000 (  3278 PWs)   bands (ev):

   -10.8593 -10.3032   1.0489   1.3279   1.3318   1.4483   1.5546   1.6810
     2.2445   2.3222   2.5263   2.7127   2.7510   4.8305   5.4227   5.5762
     6.4265   6.5087   9.3660  13.1818  14.8344  16.9958  18.7232  19.8517
    20.3073  20.8875  21.8964  24.0639  24.8917  27.5422  29.0136  29.6234
    29.7767  30.1278  31.6274  33.1303

     occupation numbers 
     1.0000   1.0000   1.0000   1.0000   1.0000   1.0000   1.0000   1.0000
     1.0000   1.0000   1.0000   1.0000   1.0000   1.0000   1.0000   1.0000
     1.0000   1.0000   0.0000   0.0000   0.0000   0.0000   0.0000   0.0000
     0.0000   0.0000   0.0000   0.0000   0.0000   0.0000   0.0000   0.0000
     0.0000   0.0000   0.0000   0.0000

          k = 0.0000 0.2309 0.0619 (  3284 PWs)   bands (ev):

   -10.8460 -10.3170   1.0399   1.3030   1.3315   1.4380   1.5468   1.6281
     2.2582   2.3281   2.5222   2.6212   2.9693   4.8529   5.3757   5.6000
     6.4061   6.4866   9.4488  13.0460  14.9251  17.0204  18.6801  19.8522
    20.0684  20.8178  21.9890  24.2270  25.0230  27.6169  28.6901  29.7445
    29.8819  30.2854  31.5066  32.9160

     occupation numbers 
     1.0000   1.0000   1.0000   1.0000   1.0000   1.0000   1.0000   1.0000
     1.0000   1.0000   1.0000   1.0000   1.0000   1.0000   1.0000   1.0000
     1.0000   1.0000   0.0000   0.0000   0.0000   0.0000   0.0000   0.0000
     0.0000   0.0000   0.0000   0.0000   0.0000   0.0000   0.0000   0.0000
     0.0000   0.0000   0.0000   0.0000

          k = 0.0000 0.2309 0.1239 (  3294 PWs)   bands (ev):

   -10.8074 -10.3573   1.0149   1.2138   1.3425   1.4171   1.5248   1.5454
     2.2925   2.3449   2.5101   2.5710   3.3188   4.9033   5.2722   5.6688
     6.3271   6.4224   9.6914  12.6942  15.1603  17.0764  18.5274  19.5438
    19.8600  20.6450  22.2599  24.6762  25.1851  27.7796  28.4609  29.4994
    30.0839  30.4517  31.3678  32.7662

     occupation numbers 
     1.0000   1.0000   1.0000   1.0000   1.0000   1.0000   1.0000   1.0000
     1.0000   1.0000   1.0000   1.0000   1.0000   1.0000   1.0000   1.0000
     1.0000   1.0000   0.0000   0.0000   0.0000   0.0000   0.0000   0.0000
     0.0000   0.0000   0.0000   0.0000   0.0000   0.0000   0.0000   0.0000
     0.0000   0.0000   0.0000   0.0000

          k = 0.0000 0.2309 0.1858 (  3291 PWs)   bands (ev):

   -10.7468 -10.4197   0.9821   1.0984   1.3611   1.4036   1.4885   1.4928
     2.3388   2.3703   2.4904   2.5320   3.7125   4.8743   5.2550   5.7749
     6.1672   6.3220  10.0730  12.2144  15.4962  17.0804  18.2811  19.0286
    19.8900  20.4350  22.7046  25.0373  25.3360  27.9452  28.6726  28.8609
    30.0763  30.2139  31.5364  33.2312

     occupation numbers 
     1.0000   1.0000   1.0000   1.0000   1.0000   1.0000   1.0000   1.0000
     1.0000   1.0000   1.0000   1.0000   1.0000   1.0000   1.0000   1.0000
     1.0000   1.0000   0.0000   0.0000   0.0000   0.0000   0.0000   0.0000
     0.0000   0.0000   0.0000   0.0000   0.0000   0.0000   0.0000   0.0000
     0.0000   0.0000   0.0000   0.0000

          k = 0.0000 0.2309 0.2478 (  3286 PWs)   bands (ev):

   -10.6701 -10.4981   0.9580   1.0081   1.3871   1.4048   1.4487   1.4560
     2.3906   2.4011   2.4642   2.4899   4.0912   4.6873   5.4185   5.9069
     5.9346   6.1944  10.5575  11.6689  15.9160  16.8491  18.1750  18.6309
    19.9577  20.2356  23.2886  24.5674  26.1427  27.9821  28.2250  28.9220
    29.6888  30.1441  31.9587  33.0264

     occupation numbers 
     1.0000   1.0000   1.0000   1.0000   1.0000   1.0000   1.0000   1.0000
     1.0000   1.0000   1.0000   1.0000   1.0000   1.0000   1.0000   1.0000
     1.0000   1.0000   0.0000   0.0000   0.0000   0.0000   0.0000   0.0000
     0.0000   0.0000   0.0000   0.0000   0.0000   0.0000   0.0000   0.0000
     0.0000   0.0000   0.0000   0.0000

          k = 0.0000 0.2309-0.3097 (  3278 PWs)   bands (ev):

   -10.5844 -10.5844   0.9621   0.9621   1.4195   1.4195   1.4205   1.4205
     2.4335   2.4335   2.4423   2.4423   4.4198   4.4198   5.6672   5.6672
     6.0515   6.0515  11.1032  11.1032  16.3961  16.3961  18.3314  18.3314
    20.0729  20.0729  23.9410  23.9410  27.0442  27.0442  28.6239  28.6239
    29.8801  29.8801  32.4871  32.4871

     occupation numbers 
     1.0000   1.0000   1.0000   1.0000   1.0000   1.0000   1.0000   1.0000
     1.0000   1.0000   1.0000   1.0000   1.0000   1.0000   1.0000   1.0000
     1.0000   1.0000   0.0000   0.0000   0.0000   0.0000   0.0000   0.0000
     0.0000   0.0000   0.0000   0.0000   0.0000   0.0000   0.0000   0.0000
     0.0000   0.0000   0.0000   0.0000

          k = 0.0000 0.3464 0.0000 (  3282 PWs)   bands (ev):

   -10.6700 -10.2401   0.9684   1.3014   1.4113   1.5907   1.7283   1.9167
     2.2093   2.3634   2.5376   2.7177   2.9416   3.9397   4.7341   5.1505
     6.1134   6.2542  10.5524  13.9961  14.7549  15.7493  17.7595  19.2908
    20.0584  20.6809  22.1721  24.7431  24.9667  26.5868  29.8005  30.9469
    31.5919  32.1739  32.2173  33.8658

     occupation numbers 
     1.0000   1.0000   1.0000   1.0000   1.0000   1.0000   1.0000   1.0000
     1.0000   1.0000   1.0000   1.0000   1.0000   1.0000   1.0000   1.0000
     1.0000   1.0000   0.0000   0.0000   0.0000   0.0000   0.0000   0.0000
     0.0000   0.0000   0.0000   0.0000   0.0000   0.0000   0.0000   0.0000
     0.0000   0.0000   0.0000   0.0000

          k = 0.0000 0.3464 0.0619 (  3281 PWs)   bands (ev):

   -10.6594 -10.2504   0.9585   1.2706   1.4171   1.5805   1.7182   1.8474
     2.2302   2.3676   2.5329   2.6735   3.0960   3.9801   4.7082   5.1796
     6.1153   6.2285  10.5909  13.7929  14.8800  15.7766  17.7512  19.2985
    20.0589  20.6496  21.9445  24.8860  25.0972  26.7821  29.2917  31.0765
    31.7422  32.0780  32.3617  33.6420

     occupation numbers 
     1.0000   1.0000   1.0000   1.0000   1.0000   1.0000   1.0000   1.0000
     1.0000   1.0000   1.0000   1.0000   1.0000   1.0000   1.0000   1.0000
     1.0000   1.0000   0.0000   0.0000   0.0000   0.0000   0.0000   0.0000
     0.0000   0.0000   0.0000   0.0000   0.0000   0.0000   0.0000   0.0000
     0.0000   0.0000   0.0000   0.0000

          k = 0.0000 0.3464 0.1239 (  3274 PWs)   bands (ev):

   -10.6285 -10.2803   0.9325   1.1823   1.4345   1.5580   1.6895   1.7312
     2.2771   2.3796   2.5195   2.6237   3.3698   4.0891   4.6723   5.2633
     6.0919   6.1536  10.7180  13.3599  15.1037  15.8456  17.7094  19.2568
    20.0652  20.5654  21.6248  24.9611  25.4751  27.3150  28.6415  30.8848
    31.1768  32.5120  32.5717  33.7183

     occupation numbers 
     1.0000   1.0000   1.0000   1.0000   1.0000   1.0000   1.0000   1.0000
     1.0000   1.0000   1.0000   1.0000   1.0000   1.0000   1.0000   1.0000
     1.0000   1.0000   0.0000   0.0000   0.0000   0.0000   0.0000   0.0000
     0.0000   0.0000   0.0000   0.0000   0.0000   0.0000   0.0000   0.0000
     0.0000   0.0000   0.0000   0.0000

          k = 0.0000 0.3464 0.1858 (  3286 PWs)   bands (ev):

   -10.5804 -10.3273   0.9023   1.0651   1.4629   1.5402   1.6455   1.6472
     2.3366   2.3983   2.4994   2.5761   3.6151   4.1618   4.7717   5.3912
     5.9872   6.0364  10.9564  12.8412  15.3348  15.9099  17.6721  18.9872
    20.0886  20.4507  21.7114  24.6071  26.0676  27.9435  28.3576  29.8365
    31.2832  32.3174  32.7066  33.5868

     occupation numbers 
     1.0000   1.0000   1.0000   1.0000   1.0000   1.0000   1.0000   1.0000
     1.0000   1.0000   1.0000   1.0000   1.0000   1.0000   1.0000   1.0000
     1.0000   1.0000   0.0000   0.0000   0.0000   0.0000   0.0000   0.0000
     0.0000   0.0000   0.0000   0.0000   0.0000   0.0000   0.0000   0.0000
     0.0000   0.0000   0.0000   0.0000

          k = 0.0000 0.3464 0.2478 (  3284 PWs)   bands (ev):

   -10.5199 -10.3868   0.8863   0.9636   1.5013   1.5385   1.5901   1.5978
     2.4009   2.4219   2.4748   2.5233   3.8064   4.0960   5.0800   5.5487
     5.7689   5.8872  11.3145  12.2974  15.5607  15.8930  17.7662  18.5219
    20.1394  20.3294  22.2541  23.8875  26.8372  28.3441  28.4118  28.7636
    31.4536  32.0225  32.9304  33.3812

     occupation numbers 
     1.0000   1.0000   1.0000   1.0000   1.0000   1.0000   1.0000   1.0000
     1.0000   1.0000   1.0000   1.0000   1.0000   1.0000   1.0000   1.0000
     1.0000   1.0000   0.0000   0.0000   0.0000   0.0000   0.0000   0.0000
     0.0000   0.0000   0.0000   0.0000   0.0000   0.0000   0.0000   0.0000
     0.0000   0.0000   0.0000   0.0000

          k = 0.0000 0.3464-0.3097 (  3294 PWs)   bands (ev):

   -10.4532 -10.4532   0.9030   0.9030   1.5474   1.5474   1.5552   1.5552
     2.4481   2.4481   2.4643   2.4643   3.9649   3.9649   5.4486   5.4486
     5.7195   5.7195  11.7740  11.7740  15.7622  15.7622  18.0675  18.0675
    20.2213  20.2213  23.0398  23.0398  27.7481  27.7481  28.4717  28.4717
    31.7244  31.7244  33.1609  33.1609

     occupation numbers 
     1.0000   1.0000   1.0000   1.0000   1.0000   1.0000   1.0000   1.0000
     1.0000   1.0000   1.0000   1.0000   1.0000   1.0000   1.0000   1.0000
     1.0000   1.0000   0.0000   0.0000   0.0000   0.0000   0.0000   0.0000
     0.0000   0.0000   0.0000   0.0000   0.0000   0.0000   0.0000   0.0000
     0.0000   0.0000   0.0000   0.0000

          k = 0.0000 0.4619 0.0000 (  3286 PWs)   bands (ev):

   -10.4931 -10.2072   0.9868   1.2689   1.4628   1.7633   1.8929   1.9375
     2.3148   2.4350   2.5503   2.7462   2.9788   3.4606   4.2005   4.7823
     5.7458   6.0352  11.7000  14.2017  14.3058  15.1636  17.2879  18.9474
    19.9673  20.7070  22.3144  24.8796  25.7662  26.2594  29.6175  30.7814
    32.0658  32.6727  33.7184  34.0854

     occupation numbers 
     1.0000   1.0000   1.0000   1.0000   1.0000   1.0000   1.0000   1.0000
     1.0000   1.0000   1.0000   1.0000   1.0000   1.0000   1.0000   1.0000
     1.0000   1.0000   0.0000   0.0000   0.0000   0.0000   0.0000   0.0000
     0.0000   0.0000   0.0000   0.0000   0.0000   0.0000   0.0000   0.0000
     0.0000   0.0000   0.0000   0.0000

          k = 0.0000 0.4619 0.0619 (  3280 PWs)   bands (ev):

   -10.4856 -10.2136   0.9736   1.2356   1.4709   1.7499   1.8794   1.9058
     2.3247   2.4369   2.5455   2.7210   3.0153   3.5147   4.2374   4.8170
     5.7710   6.0066  11.6916  13.9097  14.5528  15.1771  17.2731  19.0158
    19.9801  20.6843  21.9834  24.9784  26.1285  26.3671  28.8870  31.1786
    32.3697  32.5393  33.3669  34.0186

     occupation numbers 
     1.0000   1.0000   1.0000   1.0000   1.0000   1.0000   1.0000   1.0000
     1.0000   1.0000   1.0000   1.0000   1.0000   1.0000   1.0000   1.0000
     1.0000   1.0000   0.0000   0.0000   0.0000   0.0000   0.0000   0.0000
     0.0000   0.0000   0.0000   0.0000   0.0000   0.0000   0.0000   0.0000
     0.0000   0.0000   0.0000   0.0000

          k = 0.0000 0.4619 0.1239 (  3281 PWs)   bands (ev):

   -10.4639 -10.2323   0.9395   1.1465   1.4952   1.7211   1.8403   1.8413
     2.3575   2.4427   2.5327   2.6737   3.0912   3.5788   4.4049   4.9157
     5.8147   5.9235  11.6917  13.5252  14.7983  15.2125  17.2546  19.1334
    20.0191  20.6196  21.4389  24.9910  26.6856  26.9565  27.9970  31.2708
    31.8469  32.9438  33.0634  33.8568

     occupation numbers 
     1.0000   1.0000   1.0000   1.0000   1.0000   1.0000   1.0000   1.0000
     1.0000   1.0000   1.0000   1.0000   1.0000   1.0000   1.0000   1.0000
     1.0000   1.0000   0.0000   0.0000   0.0000   0.0000   0.0000   0.0000
     0.0000   0.0000   0.0000   0.0000   0.0000   0.0000   0.0000   0.0000
     0.0000   0.0000   0.0000   0.0000

          k = 0.0000 0.4619 0.1858 (  3288 PWs)   bands (ev):

   -10.4304 -10.2620   0.8996   1.0349   1.5345   1.6979   1.7793   1.7848
     2.4066   2.4520   2.5156   2.6233   3.1814   3.5554   4.7259   5.0643
     5.7930   5.8077  11.7585  13.0987  14.9893  15.2509  17.3142  18.9912
    20.0848  20.5224  21.3363  24.5472  27.2019  27.6464  27.7881  30.7948
    31.2459  32.9281  33.0453  33.6520

     occupation numbers 
     1.0000   1.0000   1.0000   1.0000   1.0000   1.0000   1.0000   1.0000
     1.0000   1.0000   1.0000   1.0000   1.0000   1.0000   1.0000   1.0000
     1.0000   1.0000   0.0000   0.0000   0.0000   0.0000   0.0000   0.0000
     0.0000   0.0000   0.0000   0.0000   0.0000   0.0000   0.0000   0.0000
     0.0000   0.0000   0.0000   0.0000

          k = 0.0000 0.4619 0.2478 (  3290 PWs)   bands (ev):

   -10.3890 -10.3004   0.8751   0.9399   1.5872   1.6916   1.7183   1.7335
     2.4620   2.4647   2.4973   2.5715   3.2792   3.4771   5.1037   5.2448
     5.6265   5.6904  11.9431  12.6587  15.1246  15.2582  17.5419  18.5022
    20.1757  20.4063  21.8555  23.6774  27.8377  27.8974  28.2036  29.7294
    31.4534  32.5259  33.1235  33.4444

     occupation numbers 
     1.0000   1.0000   1.0000   1.0000   1.0000   1.0000   1.0000   1.0000
     1.0000   1.0000   1.0000   1.0000   1.0000   1.0000   1.0000   1.0000
     1.0000   1.0000   0.0000   0.0000   0.0000   0.0000   0.0000   0.0000
     0.0000   0.0000   0.0000   0.0000   0.0000   0.0000   0.0000   0.0000
     0.0000   0.0000   0.0000   0.0000

          k = 0.0000 0.4619-0.3097 (  3302 PWs)   bands (ev):

   -10.3441 -10.3441   0.8851   0.8851   1.6501   1.6501   1.7039   1.7039
     2.4800   2.4800   2.5177   2.5177   3.3800   3.3800   5.4383   5.4383
     5.4460   5.4460  12.2548  12.2548  15.2144  15.2144  17.9597  17.9597
    20.2863  20.2863  22.7083  22.7083  28.1363  28.1363  28.7493  28.7493
    31.9605  31.9605  33.2618  33.2618

     occupation numbers 
     1.0000   1.0000   1.0000   1.0000   1.0000   1.0000   1.0000   1.0000
     1.0000   1.0000   1.0000   1.0000   1.0000   1.0000   1.0000   1.0000
     1.0000   1.0000   0.0000   0.0000   0.0000   0.0000   0.0000   0.0000
     0.0000   0.0000   0.0000   0.0000   0.0000   0.0000   0.0000   0.0000
     0.0000   0.0000   0.0000   0.0000

          k = 0.0000-0.5774 0.0000 (  3298 PWs)   bands (ev):

   -10.4116 -10.2072   1.0387   1.2416   1.4781   1.8749   1.8853   1.9621
     2.3636   2.4757   2.5568   2.6252   3.0979   3.2906   4.0630   4.6310
     5.5509   5.9479  12.4136  13.6065  14.3224  15.0584  17.1332  19.0204
    19.8759  20.7743  22.2989  24.9262  25.5448  26.9498  29.4604  31.2249
    31.2571  32.5450  33.8317  34.1829

     occupation numbers 
     1.0000   1.0000   1.0000   1.0000   1.0000   1.0000   1.0000   1.0000
     1.0000   1.0000   1.0000   1.0000   1.0000   1.0000   1.0000   1.0000
     1.0000   1.0000   0.0000   0.0000   0.0000   0.0000   0.0000   0.0000
     0.0000   0.0000   0.0000   0.0000   0.0000   0.0000   0.0000   0.0000
     0.0000   0.0000   0.0000   0.0000

          k = 0.0000-0.5774 0.0619 (  3290 PWs)   bands (ev):

   -10.4059 -10.2114   1.0228   1.2059   1.4873   1.8562   1.8754   1.9469
     2.3884   2.4766   2.5519   2.6252   3.0798   3.2725   4.1719   4.6685
     5.5861   5.9182  12.3512  13.5444  14.3925  15.0774  17.1070  19.0897
    19.8954  20.7500  21.9528  24.9921  25.9891  27.0510  28.7080  31.1588
    31.9900  32.5358  33.4405  34.0989

     occupation numbers 
     1.0000   1.0000   1.0000   1.0000   1.0000   1.0000   1.0000   1.0000
     1.0000   1.0000   1.0000   1.0000   1.0000   1.0000   1.0000   1.0000
     1.0000   1.0000   0.0000   0.0000   0.0000   0.0000   0.0000   0.0000
     0.0000   0.0000   0.0000   0.0000   0.0000   0.0000   0.0000   0.0000
     0.0000   0.0000   0.0000   0.0000

          k = 0.0000-0.5774 0.1239 (  3294 PWs)   bands (ev):

   -10.3896 -10.2239   0.9809   1.1155   1.5144   1.8214   1.8505   1.9039
     2.4428   2.4794   2.5396   2.6241   3.0498   3.2269   4.4486   4.7744
     5.6609   5.8319  12.2276  13.3621  14.5547  15.1167  17.0795  19.1970
    19.9528  20.6799  21.3868  25.0377  26.9047  27.3515  27.7114  31.0044
    32.2896  32.7652  32.7915  33.8808

     occupation numbers 
     1.0000   1.0000   1.0000   1.0000   1.0000   1.0000   1.0000   1.0000
     1.0000   1.0000   1.0000   1.0000   1.0000   1.0000   1.0000   1.0000
     1.0000   1.0000   0.0000   0.0000   0.0000   0.0000   0.0000   0.0000
     0.0000   0.0000   0.0000   0.0000   0.0000   0.0000   0.0000   0.0000
     0.0000   0.0000   0.0000   0.0000

          k = 0.0000-0.5774 0.1858 (  3286 PWs)   bands (ev):

   -10.3646 -10.2442   0.9296   1.0100   1.5584   1.7946   1.8213   1.8399
     2.4840   2.5002   2.5248   2.6191   3.0357   3.1706   4.8052   4.9327
     5.6962   5.7047  12.1577  13.0789  14.7338  15.1345  17.1611  19.0117
    20.0443  20.5727  21.2891  24.6170  27.3357  27.7630  27.8420  30.9157
    31.3231  32.7583  32.7857  33.5989

     occupation numbers 
     1.0000   1.0000   1.0000   1.0000   1.0000   1.0000   1.0000   1.0000
     1.0000   1.0000   1.0000   1.0000   1.0000   1.0000   1.0000   1.0000
     1.0000   1.0000   0.0000   0.0000   0.0000   0.0000   0.0000   0.0000
     0.0000   0.0000   0.0000   0.0000   0.0000   0.0000   0.0000   0.0000
     0.0000   0.0000   0.0000   0.0000

          k = 0.0000-0.5774 0.2478 (  3302 PWs)   bands (ev):

   -10.3342 -10.2708   0.8912   0.9268   1.6174   1.7648   1.7819   1.7971
     2.4907   2.5110   2.5485   2.6068   3.0441   3.1166   5.1233   5.1650
     5.5228   5.6486  12.2204  12.7430  14.8909  15.1001  17.4318  18.4736
    20.1633  20.4411  21.8246  23.7020  27.5901  28.1499  28.5082  30.2843
    31.1568  32.3579  32.8768  33.3144

     occupation numbers 
     1.0000   1.0000   1.0000   1.0000   1.0000   1.0000   1.0000   1.0000
     1.0000   1.0000   1.0000   1.0000   1.0000   1.0000   1.0000   1.0000
     1.0000   1.0000   0.0000   0.0000   0.0000   0.0000   0.0000   0.0000
     0.0000   0.0000   0.0000   0.0000   0.0000   0.0000   0.0000   0.0000
     0.0000   0.0000   0.0000   0.0000

          k = 0.0000-0.5774-0.3097 (  3300 PWs)   bands (ev):

   -10.3018 -10.3018   0.8864   0.8864   1.6880   1.6880   1.7832   1.7832
     2.4996   2.4996   2.5840   2.5840   3.0726   3.0726   5.3262   5.3262
     5.4628   5.4628  12.4307  12.4307  15.0150  15.0150  17.8915  17.8915
    20.2998  20.2998  22.6968  22.6968  27.9856  27.9856  29.3310  29.3310
    31.7405  31.7405  33.0666  33.0666

     occupation numbers 
     1.0000   1.0000   1.0000   1.0000   1.0000   1.0000   1.0000   1.0000
     1.0000   1.0000   1.0000   1.0000   1.0000   1.0000   1.0000   1.0000
     1.0000   1.0000   0.0000   0.0000   0.0000   0.0000   0.0000   0.0000
     0.0000   0.0000   0.0000   0.0000   0.0000   0.0000   0.0000   0.0000
     0.0000   0.0000   0.0000   0.0000

          k = 0.1000 0.1732 0.0000 (  3281 PWs)   bands (ev):

   -10.9037 -10.3207   1.1004   1.2700   1.3742   1.3848   1.5244   1.6196
     2.2661   2.3130   2.5225   2.6645   2.7616   5.1813   5.4006   5.8027
     6.4939   6.5379   9.0688  12.9334  14.8446  17.4727  18.9073  19.8556
    20.1712  21.3032  22.4911  22.7105  26.6413  26.8927  28.1259  28.5369
    29.7661  29.9480  31.6059  32.9035

     occupation numbers 
     1.0000   1.0000   1.0000   1.0000   1.0000   1.0000   1.0000   1.0000
     1.0000   1.0000   1.0000   1.0000   1.0000   1.0000   1.0000   1.0000
     1.0000   1.0000   0.0000   0.0000   0.0000   0.0000   0.0000   0.0000
     0.0000   0.0000   0.0000   0.0000   0.0000   0.0000   0.0000   0.0000
     0.0000   0.0000   0.0000   0.0000

          k = 0.1000 0.1732 0.0619 (  3288 PWs)   bands (ev):

   -10.8899 -10.3354   1.0915   1.2609   1.3643   1.3682   1.5171   1.5726
     2.2765   2.3204   2.5187   2.6018   2.9499   5.2076   5.3769   5.7840
     6.4727   6.5163   9.1656  12.8109  14.9308  17.4925  18.9159  19.8145
    19.8852  21.1083  22.8050  22.8528  26.7523  26.7582  28.3051  28.6168
    29.8036  29.8227  31.5409  32.9262

     occupation numbers 
     1.0000   1.0000   1.0000   1.0000   1.0000   1.0000   1.0000   1.0000
     1.0000   1.0000   1.0000   1.0000   1.0000   1.0000   1.0000   1.0000
     1.0000   1.0000   0.0000   0.0000   0.0000   0.0000   0.0000   0.0000
     0.0000   0.0000   0.0000   0.0000   0.0000   0.0000   0.0000   0.0000
     0.0000   0.0000   0.0000   0.0000

          k = 0.1000 0.1732 0.1239 (  3292 PWs)   bands (ev):

   -10.8496 -10.3779   1.0654   1.2031   1.3340   1.3560   1.4967   1.5019
     2.3052   2.3395   2.5072   2.5579   3.2957   5.2745   5.2864   5.7815
     6.3943   6.4536   9.4411  12.4842  15.1653  17.5337  18.9139  19.2327
    19.7356  20.7926  23.2481  23.3623  26.4357  27.0338  28.6866  28.7900
    29.4140  29.9341  31.4917  32.9412

     occupation numbers 
     1.0000   1.0000   1.0000   1.0000   1.0000   1.0000   1.0000   1.0000
     1.0000   1.0000   1.0000   1.0000   1.0000   1.0000   1.0000   1.0000
     1.0000   1.0000   0.0000   0.0000   0.0000   0.0000   0.0000   0.0000
     0.0000   0.0000   0.0000   0.0000   0.0000   0.0000   0.0000   0.0000
     0.0000   0.0000   0.0000   0.0000

          k = 0.1000 0.1732 0.1858 (  3283 PWs)   bands (ev):

   -10.7865 -10.4437   1.0285   1.1009   1.3346   1.3483   1.4549   1.4680
     2.3463   2.3667   2.4882   2.5229   3.7007   5.0763   5.4161   5.8438
     6.2469   6.3560   9.8574  12.0251  15.5171  17.4912  18.6012  18.8393
    19.7122  20.4794  23.8172  23.8927  26.0985  27.3281  28.2985  29.0070
    29.7227  29.9146  31.4088  32.8096

     occupation numbers 
     1.0000   1.0000   1.0000   1.0000   1.0000   1.0000   1.0000   1.0000
     1.0000   1.0000   1.0000   1.0000   1.0000   1.0000   1.0000   1.0000
     1.0000   1.0000   0.0000   0.0000   0.0000   0.0000   0.0000   0.0000
     0.0000   0.0000   0.0000   0.0000   0.0000   0.0000   0.0000   0.0000
     0.0000   0.0000   0.0000   0.0000

          k = 0.1000 0.1732 0.2478 (  3289 PWs)   bands (ev):

   -10.7064 -10.5261   0.9962   1.0220   1.3474   1.3499   1.4248   1.4379
     2.3934   2.3986   2.4625   2.4847   4.1089   4.8083   5.5929   5.9396
     6.0580   6.2335  10.3670  11.4907  15.9753  17.1137  18.3808  18.6771
    19.7930  20.1953  24.3240  24.3929  25.9136  26.9865  28.2409  29.1476
    29.7350  30.0759  31.4368  32.3951

     occupation numbers 
     1.0000   1.0000   1.0000   1.0000   1.0000   1.0000   1.0000   1.0000
     1.0000   1.0000   1.0000   1.0000   1.0000   1.0000   1.0000   1.0000
     1.0000   1.0000   0.0000   0.0000   0.0000   0.0000   0.0000   0.0000
     0.0000   0.0000   0.0000   0.0000   0.0000   0.0000   0.0000   0.0000
     0.0000   0.0000   0.0000   0.0000

          k = 0.1000 0.1732-0.3097 (  3278 PWs)   bands (ev):

   -10.6166 -10.6166   0.9886   0.9886   1.3546   1.3546   1.4178   1.4178
     2.4312   2.4312   2.4414   2.4414   4.4840   4.4840   5.8034   5.8034
     6.1009   6.1009  10.9250  10.9250  16.5282  16.5282  18.4887  18.4887
    19.9612  19.9612  24.5769  24.5769  26.2351  26.2351  28.7658  28.7658
    29.9064  29.9064  31.8709  31.8709

     occupation numbers 
     1.0000   1.0000   1.0000   1.0000   1.0000   1.0000   1.0000   1.0000
     1.0000   1.0000   1.0000   1.0000   1.0000   1.0000   1.0000   1.0000
     1.0000   1.0000   0.0000   0.0000   0.0000   0.0000   0.0000   0.0000
     0.0000   0.0000   0.0000   0.0000   0.0000   0.0000   0.0000   0.0000
     0.0000   0.0000   0.0000   0.0000

          k = 0.1000 0.2887 0.0000 (  3289 PWs)   bands (ev):

   -10.7384 -10.2601   1.0305   1.2871   1.3965   1.4954   1.6807   1.8372
     2.2203   2.3330   2.5321   2.7300   2.8688   4.3776   4.8271   5.2854
     6.2488   6.2625  10.1799  13.8077  14.8899  16.2714  17.9865  19.1822
    19.7159  21.3147  22.1286  23.3128  26.3923  27.6419  28.7357  29.9581
    31.2183  31.2778  32.4271  32.8072

     occupation numbers 
     1.0000   1.0000   1.0000   1.0000   1.0000   1.0000   1.0000   1.0000
     1.0000   1.0000   1.0000   1.0000   1.0000   1.0000   1.0000   1.0000
     1.0000   1.0000   0.0000   0.0000   0.0000   0.0000   0.0000   0.0000
     0.0000   0.0000   0.0000   0.0000   0.0000   0.0000   0.0000   0.0000
     0.0000   0.0000   0.0000   0.0000

          k = 0.1000 0.2887 0.0619 (  3290 PWs)   bands (ev):

   -10.7267 -10.2718   1.0201   1.2663   1.3931   1.4868   1.6714   1.7693
     2.2367   2.3425   2.5277   2.6656   3.0547   4.4098   4.8151   5.2904
     6.2289   6.2507  10.2352  13.6379  14.9833  16.2963  18.0259  19.0914
    19.6305  21.2917  22.0968  23.4751  26.3513  27.8199  28.7516  29.9328
    30.6616  31.3593  32.6184  33.1328

     occupation numbers 
     1.0000   1.0000   1.0000   1.0000   1.0000   1.0000   1.0000   1.0000
     1.0000   1.0000   1.0000   1.0000   1.0000   1.0000   1.0000   1.0000
     1.0000   1.0000   0.0000   0.0000   0.0000   0.0000   0.0000   0.0000
     0.0000   0.0000   0.0000   0.0000   0.0000   0.0000   0.0000   0.0000
     0.0000   0.0000   0.0000   0.0000

          k = 0.1000 0.2887 0.1239 (  3288 PWs)   bands (ev):

   -10.6928 -10.3056   0.9920   1.1933   1.3936   1.4678   1.6425   1.6616
     2.2781   2.3617   2.5148   2.6116   3.3784   4.4888   4.7928   5.3287
     6.1527   6.2080  10.4073  13.2326  15.1926  16.3559  18.0594  18.8541
    19.4994  21.0973  22.2314  23.8526  26.1665  28.3040  28.8221  29.1932
    30.6475  31.4661  32.5618  33.4897

     occupation numbers 
     1.0000   1.0000   1.0000   1.0000   1.0000   1.0000   1.0000   1.0000
     1.0000   1.0000   1.0000   1.0000   1.0000   1.0000   1.0000   1.0000
     1.0000   1.0000   0.0000   0.0000   0.0000   0.0000   0.0000   0.0000
     0.0000   0.0000   0.0000   0.0000   0.0000   0.0000   0.0000   0.0000
     0.0000   0.0000   0.0000   0.0000

          k = 0.1000 0.2887 0.1858 (  3289 PWs)   bands (ev):

   -10.6399 -10.3584   0.9572   1.0855   1.4050   1.4530   1.5811   1.6132
     2.3337   2.3853   2.4951   2.5652   3.7063   4.4937   4.8912   5.4216
     6.0278   6.0894  10.7033  12.7173  15.4598  16.3979  17.9661  18.5389
    19.5419  20.7531  22.6371  24.2385  25.9140  28.0547  28.8696  29.1099
    30.9470  31.6869  32.3114  33.0354

     occupation numbers 
     1.0000   1.0000   1.0000   1.0000   1.0000   1.0000   1.0000   1.0000
     1.0000   1.0000   1.0000   1.0000   1.0000   1.0000   1.0000   1.0000
     1.0000   1.0000   0.0000   0.0000   0.0000   0.0000   0.0000   0.0000
     0.0000   0.0000   0.0000   0.0000   0.0000   0.0000   0.0000   0.0000
     0.0000   0.0000   0.0000   0.0000

          k = 0.1000 0.2887 0.2478 (  3281 PWs)   bands (ev):

   -10.5732 -10.4251   0.9337   0.9924   1.4219   1.4466   1.5460   1.5750
     2.3949   2.4122   2.4705   2.5148   3.9801   4.3714   5.1686   5.5518
     5.8358   5.9129  11.1146  12.1617  15.7693  16.3246  17.8753  18.2184
    19.7609  20.3919  23.2094  24.2823  25.9252  27.1426  29.1519  29.4052
    31.2331  31.8156  32.1071  32.6831

     occupation numbers 
     1.0000   1.0000   1.0000   1.0000   1.0000   1.0000   1.0000   1.0000
     1.0000   1.0000   1.0000   1.0000   1.0000   1.0000   1.0000   1.0000
     1.0000   1.0000   0.0000   0.0000   0.0000   0.0000   0.0000   0.0000
     0.0000   0.0000   0.0000   0.0000   0.0000   0.0000   0.0000   0.0000
     0.0000   0.0000   0.0000   0.0000

          k = 0.1000 0.2887-0.3097 (  3276 PWs)   bands (ev):

   -10.4991 -10.4991   0.9412   0.9412   1.4377   1.4377   1.5469   1.5469
     2.4379   2.4379   2.4608   2.4608   4.1968   4.1968   5.4946   5.4946
     5.7523   5.7523  11.6135  11.6135  16.0866  16.0866  17.9677  17.9677
    20.0572  20.0572  23.8310  23.8310  26.4002  26.4002  29.3833  29.3833
    31.5215  31.5215  32.3761  32.3761

     occupation numbers 
     1.0000   1.0000   1.0000   1.0000   1.0000   1.0000   1.0000   1.0000
     1.0000   1.0000   1.0000   1.0000   1.0000   1.0000   1.0000   1.0000
     1.0000   1.0000   0.0000   0.0000   0.0000   0.0000   0.0000   0.0000
     0.0000   0.0000   0.0000   0.0000   0.0000   0.0000   0.0000   0.0000
     0.0000   0.0000   0.0000   0.0000

          k = 0.1000 0.4041 0.0000 (  3285 PWs)   bands (ev):

   -10.5530 -10.2137   1.0212   1.3043   1.4357   1.6560   1.8512   1.9688
     2.2406   2.3848   2.5473   2.7471   3.0262   3.6838   4.3716   4.7223
     5.8863   5.9908  11.3688  14.2795  14.8140  15.3489  17.4829  18.6108
    19.3846  20.8832  22.4030  24.4222  26.3376  26.8684  29.5622  31.0593
    31.3817  32.4540  33.0499  33.7732

     occupation numbers 
     1.0000   1.0000   1.0000   1.0000   1.0000   1.0000   1.0000   1.0000
     1.0000   1.0000   1.0000   1.0000   1.0000   1.0000   1.0000   1.0000
     1.0000   1.0000   0.0000   0.0000   0.0000   0.0000   0.0000   0.0000
     0.0000   0.0000   0.0000   0.0000   0.0000   0.0000   0.0000   0.0000
     0.0000   0.0000   0.0000   0.0000

          k = 0.1000 0.4041 0.0619 (  3285 PWs)   bands (ev):

   -10.5443 -10.2215   1.0091   1.2766   1.4395   1.6465   1.8381   1.9075
     2.2519   2.3990   2.5430   2.7187   3.1130   3.7407   4.3736   4.7538
     5.8931   5.9707  11.3867  14.0833  14.9263  15.3716  17.4759  18.6538
    19.3159  20.9175  22.2932  24.4655  26.2271  27.2691  29.1148  30.9244
    31.5200  32.3752  33.2284  33.7068

     occupation numbers 
     1.0000   1.0000   1.0000   1.0000   1.0000   1.0000   1.0000   1.0000
     1.0000   1.0000   1.0000   1.0000   1.0000   1.0000   1.0000   1.0000
     1.0000   1.0000   0.0000   0.0000   0.0000   0.0000   0.0000   0.0000
     0.0000   0.0000   0.0000   0.0000   0.0000   0.0000   0.0000   0.0000
     0.0000   0.0000   0.0000   0.0000

          k = 0.1000 0.4041 0.1239 (  3286 PWs)   bands (ev):

   -10.5191 -10.2443   0.9774   1.1951   1.4550   1.6248   1.7901   1.8081
     2.2930   2.4195   2.5316   2.6714   3.2658   3.8477   4.4440   4.8488
     5.8430   5.9540  11.4552  13.6825  15.0986  15.4345  17.4244  18.7025
    19.2434  20.9625  22.1028  24.5491  26.1559  27.9728  28.4817  30.2781
    31.7823  32.3974  33.1433  33.8783

     occupation numbers 
     1.0000   1.0000   1.0000   1.0000   1.0000   1.0000   1.0000   1.0000
     1.0000   1.0000   1.0000   1.0000   1.0000   1.0000   1.0000   1.0000
     1.0000   1.0000   0.0000   0.0000   0.0000   0.0000   0.0000   0.0000
     0.0000   0.0000   0.0000   0.0000   0.0000   0.0000   0.0000   0.0000
     0.0000   0.0000   0.0000   0.0000

          k = 0.1000 0.4041 0.1858 (  3283 PWs)   bands (ev):

   -10.4802 -10.2803   0.9399   1.0846   1.4836   1.6046   1.7080   1.7551
     2.3526   2.4369   2.5166   2.6197   3.4066   3.8547   4.6938   5.0016
[...]
     5.3169   5.7134  12.7886  13.4048  15.2589  15.3691  16.5494  16.9130
    20.2087  21.3568  22.6825  23.7483  26.3710  27.1662  29.2710  29.7605
    31.7488  32.1087  33.8070  34.2209

     occupation numbers 
     1.0000   1.0000   1.0000   1.0000   1.0000   1.0000   1.0000   1.0000
     1.0000   1.0000   1.0000   1.0000   1.0000   1.0000   1.0000   1.0000
     1.0000   1.0000   0.0000   0.0000   0.0000   0.0000   0.0000   0.0000
     0.0000   0.0000   0.0000   0.0000   0.0000   0.0000   0.0000   0.0000
     0.0000   0.0000   0.0000   0.0000

          k = 0.2000 0.4619-0.3097 (  3282 PWs)   bands (ev):

   -10.3041 -10.3041   1.0552   1.0552   1.5512   1.5512   1.7614   1.7614
     2.4388   2.4388   2.6299   2.6299   3.3790   3.3790   4.7116   4.7116
     5.5565   5.5565  13.0606  13.0606  15.3377  15.3377  16.6458  16.6458
    20.8523  20.8523  23.1973  23.1973  26.6778  26.6778  29.4814  29.4814
    31.9562  31.9562  34.0663  34.0663

     occupation numbers 
     1.0000   1.0000   1.0000   1.0000   1.0000   1.0000   1.0000   1.0000
     1.0000   1.0000   1.0000   1.0000   1.0000   1.0000   1.0000   1.0000
     1.0000   1.0000   0.0000   0.0000   0.0000   0.0000   0.0000   0.0000
     0.0000   0.0000   0.0000   0.0000   0.0000   0.0000   0.0000   0.0000
     0.0000   0.0000   0.0000   0.0000

          k = 0.2000 0.5774 0.0000 (  3296 PWs)   bands (ev):

   -10.3429 -10.2145   1.1716   1.4684   1.6242   1.7161   2.0047   2.0456
     2.3222   2.3770   2.5668   2.5938   3.1531   3.4048   3.5827   4.5446
     5.2088   5.4865  13.3090  14.3007  14.4379  15.0935  17.1974  18.0633
    19.3129  19.8224  21.7917  26.3651  26.8911  28.3009  29.0458  30.1084
    32.0497  32.6796  33.4308  33.4813

     occupation numbers 
     1.0000   1.0000   1.0000   1.0000   1.0000   1.0000   1.0000   1.0000
     1.0000   1.0000   1.0000   1.0000   1.0000   1.0000   1.0000   1.0000
     1.0000   1.0000   0.0000   0.0000   0.0000   0.0000   0.0000   0.0000
     0.0000   0.0000   0.0000   0.0000   0.0000   0.0000   0.0000   0.0000
     0.0000   0.0000   0.0000   0.0000

          k = 0.2000 0.5774 0.0619 (  3300 PWs)   bands (ev):

   -10.3390 -10.2168   1.1676   1.4610   1.5441   1.7386   1.9818   2.0182
     2.3403   2.3881   2.5791   2.6053   3.1303   3.3836   3.6544   4.6225
     5.2146   5.4878  13.2752  14.2654  14.4897  15.1187  17.0086  17.9181
    19.4286  20.0144  21.9203  26.1426  26.5825  28.6836  28.7576  29.9841
    32.1649  32.6198  33.3392  33.5241

     occupation numbers 
     1.0000   1.0000   1.0000   1.0000   1.0000   1.0000   1.0000   1.0000
     1.0000   1.0000   1.0000   1.0000   1.0000   1.0000   1.0000   1.0000
     1.0000   1.0000   0.0000   0.0000   0.0000   0.0000   0.0000   0.0000
     0.0000   0.0000   0.0000   0.0000   0.0000   0.0000   0.0000   0.0000
     0.0000   0.0000   0.0000   0.0000

          k = 0.2000 0.5774 0.1239 (  3296 PWs)   bands (ev):

   -10.3278 -10.2237   1.1510   1.3996   1.4504   1.7417   1.9351   1.9541
     2.3701   2.4054   2.6131   2.6429   3.0930   3.3295   3.8252   4.8312
     5.1611   5.5383  13.2121  14.1551  14.6154  15.1827  16.6124  17.5655
    19.7518  20.4394  22.2146  25.4710  26.1599  28.3915  29.2656  29.5627
    32.0668  32.5297  33.2913  34.6147

     occupation numbers 
     1.0000   1.0000   1.0000   1.0000   1.0000   1.0000   1.0000   1.0000
     1.0000   1.0000   1.0000   1.0000   1.0000   1.0000   1.0000   1.0000
     1.0000   1.0000   0.0000   0.0000   0.0000   0.0000   0.0000   0.0000
     0.0000   0.0000   0.0000   0.0000   0.0000   0.0000   0.0000   0.0000
     0.0000   0.0000   0.0000   0.0000

          k = 0.2000 0.5774 0.1858 (  3292 PWs)   bands (ev):

   -10.3109 -10.2353   1.1196   1.2569   1.4598   1.7076   1.8927   1.8934
     2.3898   2.4138   2.6575   2.6926   3.0726   3.2602   4.0450   5.0069
     5.1076   5.6239  13.1905  13.9629  14.7679  15.2393  16.2773  17.1370
    20.2421  20.8882  22.4904  24.5255  26.0050  28.0690  29.1243  29.5522
    32.0601  32.5582  33.4954  34.5137

     occupation numbers 
     1.0000   1.0000   1.0000   1.0000   1.0000   1.0000   1.0000   1.0000
     1.0000   1.0000   1.0000   1.0000   1.0000   1.0000   1.0000   1.0000
     1.0000   1.0000   0.0000   0.0000   0.0000   0.0000   0.0000   0.0000
     0.0000   0.0000   0.0000   0.0000   0.0000   0.0000   0.0000   0.0000
     0.0000   0.0000   0.0000   0.0000

          k = 0.2000 0.5774 0.2478 (  3287 PWs)   bands (ev):

   -10.2909 -10.2510   1.0919   1.1506   1.4996   1.6401   1.8616   1.8666
     2.4015   2.4141   2.6983   2.7247   3.0832   3.1891   4.2903   4.7912
     5.3764   5.6530  13.2642  13.7062  14.9231  15.2028  16.1991  16.7228
    20.8174  21.2175  22.6533  23.5823  26.2353  27.4756  29.0741  29.4882
    32.1949  32.5437  33.8453  34.2696

     occupation numbers 
     1.0000   1.0000   1.0000   1.0000   1.0000   1.0000   1.0000   1.0000
     1.0000   1.0000   1.0000   1.0000   1.0000   1.0000   1.0000   1.0000
     1.0000   1.0000   0.0000   0.0000   0.0000   0.0000   0.0000   0.0000
     0.0000   0.0000   0.0000   0.0000   0.0000   0.0000   0.0000   0.0000
     0.0000   0.0000   0.0000   0.0000

          k = 0.2000 0.5774-0.3097 (  3276 PWs)   bands (ev):

   -10.2701 -10.2701   1.0962   1.0962   1.5637   1.5637   1.8555   1.8555
     2.4094   2.4094   2.7245   2.7245   3.1260   3.1260   4.5450   4.5450
     5.5715   5.5715  13.4483  13.4483  15.0746  15.0746  16.3853  16.3853
    21.2376  21.2376  22.9111  22.9111  26.7832  26.7832  29.2680  29.2680
    32.3920  32.3920  34.0655  34.0655

     occupation numbers 
     1.0000   1.0000   1.0000   1.0000   1.0000   1.0000   1.0000   1.0000
     1.0000   1.0000   1.0000   1.0000   1.0000   1.0000   1.0000   1.0000
     1.0000   1.0000   0.0000   0.0000   0.0000   0.0000   0.0000   0.0000
     0.0000   0.0000   0.0000   0.0000   0.0000   0.0000   0.0000   0.0000
     0.0000   0.0000   0.0000   0.0000

          k = 0.3000 0.5196 0.0000 (  3284 PWs)   bands (ev):

   -10.3080 -10.2257   1.2108   1.5145   1.6383   1.8269   2.0642   2.2402
     2.2624   2.2939   2.5214   2.5287   3.1441   3.2611   3.4746   4.6471
     5.1674   5.2003  13.6754  14.4530  14.7108  14.9303  17.3394  17.4748
    19.1651  20.3322  20.8260  26.6082  28.1254  28.3119  29.0402  30.5946
    31.6662  32.5699  32.9871  33.1152

     occupation numbers 
     1.0000   1.0000   1.0000   1.0000   1.0000   1.0000   1.0000   1.0000
     1.0000   1.0000   1.0000   1.0000   1.0000   1.0000   1.0000   1.0000
     1.0000   1.0000   0.0000   0.0000   0.0000   0.0000   0.0000   0.0000
     0.0000   0.0000   0.0000   0.0000   0.0000   0.0000   0.0000   0.0000
     0.0000   0.0000   0.0000   0.0000

          k = 0.3000 0.5196 0.0619 (  3281 PWs)   bands (ev):

   -10.3052 -10.2269   1.2180   1.4834   1.6076   1.8009   2.0370   2.1350
     2.2612   2.3702   2.5443   2.5754   3.1333   3.3107   3.4638   4.7180
     5.1288   5.2540  13.6819  14.4274  14.7597  14.9344  17.0723  17.2928
    19.3654  20.5193  21.0272  26.2857  27.7791  27.9658  29.2898  30.6078
    31.8353  32.2735  33.1415  33.6396

     occupation numbers 
     1.0000   1.0000   1.0000   1.0000   1.0000   1.0000   1.0000   1.0000
     1.0000   1.0000   1.0000   1.0000   1.0000   1.0000   1.0000   1.0000
     1.0000   1.0000   0.0000   0.0000   0.0000   0.0000   0.0000   0.0000
     0.0000   0.0000   0.0000   0.0000   0.0000   0.0000   0.0000   0.0000
     0.0000   0.0000   0.0000   0.0000

          k = 0.3000 0.5196 0.1239 (  3290 PWs)   bands (ev):

   -10.2972 -10.2305   1.2373   1.4027   1.5239   1.7407   1.9806   2.0215
     2.2962   2.3896   2.5908   2.6835   3.1112   3.3592   3.5214   4.8585
     5.0609   5.3860  13.7067  14.3733  14.8758  14.9482  16.5237  16.8701
    19.7976  21.0023  21.4904  25.4712  26.9834  27.5580  29.5107  30.5779
    31.9045  32.1189  33.5794  34.2555

     occupation numbers 
     1.0000   1.0000   1.0000   1.0000   1.0000   1.0000   1.0000   1.0000
     1.0000   1.0000   1.0000   1.0000   1.0000   1.0000   1.0000   1.0000
     1.0000   1.0000   0.0000   0.0000   0.0000   0.0000   0.0000   0.0000
     0.0000   0.0000   0.0000   0.0000   0.0000   0.0000   0.0000   0.0000
     0.0000   0.0000   0.0000   0.0000

          k = 0.3000 0.5196 0.1858 (  3293 PWs)   bands (ev):

   -10.2853 -10.2368   1.2536   1.3077   1.4362   1.6606   1.9332   1.9553
     2.3234   2.3865   2.6556   2.7655   3.1009   3.3088   3.7277   4.7552
     5.2227   5.5291  13.7648  14.2983  14.9768  15.0281  15.9734  16.3913
    20.3640  21.6147  21.9604  24.4490  26.3484  27.0302  29.6476  30.4077
    31.8050  32.2837  33.8399  34.3171

     occupation numbers 
     1.0000   1.0000   1.0000   1.0000   1.0000   1.0000   1.0000   1.0000
     1.0000   1.0000   1.0000   1.0000   1.0000   1.0000   1.0000   1.0000
     1.0000   1.0000   0.0000   0.0000   0.0000   0.0000   0.0000   0.0000
     0.0000   0.0000   0.0000   0.0000   0.0000   0.0000   0.0000   0.0000
     0.0000   0.0000   0.0000   0.0000

          k = 0.3000 0.5196 0.2478 (  3280 PWs)   bands (ev):

   -10.2716 -10.2461   1.2329   1.2365   1.4263   1.5701   1.9095   1.9209
     2.3441   2.3759   2.7198   2.7924   3.1235   3.2420   3.9836   4.5225
     5.4435   5.6121  13.8725  14.1832  15.0333  15.1759  15.5964  15.9623
    21.0530  22.1484  22.2260  23.4811  26.0227  26.4984  29.7762  30.1613
    31.9372  32.2973  33.7802  34.0471

     occupation numbers 
     1.0000   1.0000   1.0000   1.0000   1.0000   1.0000   1.0000   1.0000
     1.0000   1.0000   1.0000   1.0000   1.0000   1.0000   1.0000   1.0000
     1.0000   1.0000   0.0000   0.0000   0.0000   0.0000   0.0000   0.0000
     0.0000   0.0000   0.0000   0.0000   0.0000   0.0000   0.0000   0.0000
     0.0000   0.0000   0.0000   0.0000

          k = 0.3000 0.5196-0.3097 (  3288 PWs)   bands (ev):

   -10.2580 -10.2580   1.2117   1.2117   1.4854   1.4854   1.9065   1.9065
     2.3614   2.3614   2.7702   2.7702   3.1764   3.1764   4.2561   4.2561
     5.5863   5.5863  14.0262  14.0262  15.1355  15.1355  15.6409  15.6409
    21.7688  21.7688  22.7880  22.7880  26.1014  26.1014  29.9416  29.9416
    32.1505  32.1505  33.8270  33.8270

     occupation numbers 
     1.0000   1.0000   1.0000   1.0000   1.0000   1.0000   1.0000   1.0000
     1.0000   1.0000   1.0000   1.0000   1.0000   1.0000   1.0000   1.0000
     1.0000   1.0000   0.0000   0.0000   0.0000   0.0000   0.0000   0.0000
     0.0000   0.0000   0.0000   0.0000   0.0000   0.0000   0.0000   0.0000
     0.0000   0.0000   0.0000   0.0000

     the Fermi energy is     7.1893 ev

!    total energy              =    -361.64685609 Ry
     estimated scf accuracy    <          6.5E-10 Ry
     smearing contrib. (-TS)   =      -0.00000000 Ry
     internal energy E=F+TS    =    -361.64685609 Ry

     The total energy is F=E-TS. E is the sum of the following terms:
     one-electron contribution =    -155.42021337 Ry
     hartree contribution      =     118.60058058 Ry
     xc contribution           =    -109.52747918 Ry
     ewald contribution        =    -215.29974412 Ry

     convergence has been achieved in  23 iterations

     Forces acting on atoms (cartesian axes, Ry/au):

     atom    1 type  1   force =     0.00000000    0.00000000    0.00312101
     atom    2 type  1   force =     0.00000000   -0.00000000    0.00312101
     atom    3 type  2   force =     0.00000000    0.00000000   -0.00312101
     atom    4 type  2   force =     0.00000000    0.00000000   -0.00312101
     The non-local contrib.  to forces
     atom    1 type  1   force =    -0.00000000    0.00000000    0.00944088
     atom    2 type  1   force =     0.00000000    0.00000000    0.00944088
     atom    3 type  2   force =     0.00000000    0.00000000    0.01819509
     atom    4 type  2   force =     0.00000000    0.00000000    0.01819509
     The ionic contribution  to forces
     atom    1 type  1   force =    -0.00000000    0.00000000    0.15935144
     atom    2 type  1   force =     0.00000000   -0.00000000    0.15935144
     atom    3 type  2   force =    -0.00000000    0.00000000   -0.15935144
     atom    4 type  2   force =     0.00000000   -0.00000000   -0.15935144
     The local contribution  to forces
     atom    1 type  1   force =    -0.00000002    0.00000001   -0.16494078
     atom    2 type  1   force =     0.00000006   -0.00000004   -0.16494078
     atom    3 type  2   force =    -0.00000001    0.00000000    0.13820009
     atom    4 type  2   force =     0.00000002   -0.00000001    0.13820010
     The core correction contribution to forces
     atom    1 type  1   force =    -0.00000000    0.00000000   -0.00073163
     atom    2 type  1   force =     0.00000001   -0.00000000   -0.00073163
     atom    3 type  2   force =     0.00000000   -0.00000000   -0.00016140
     atom    4 type  2   force =    -0.00000000    0.00000000   -0.00016140
     The Hubbard contrib.    to forces
     atom    1 type  1   force =     0.00000000    0.00000000    0.00000000
     atom    2 type  1   force =     0.00000000    0.00000000    0.00000000
     atom    3 type  2   force =     0.00000000    0.00000000    0.00000000
     atom    4 type  2   force =     0.00000000    0.00000000    0.00000000
     The SCF correction term to forces
     atom    1 type  1   force =     0.00000000   -0.00000000    0.00000826
     atom    2 type  1   force =    -0.00000000    0.00000000    0.00000826
     atom    3 type  2   force =     0.00000000   -0.00000000    0.00000380
     atom    4 type  2   force =    -0.00000000    0.00000000    0.00000380

     Total force =     0.006242     Total SCF correction =     0.000013


     Computing stress (Cartesian axis) and pressure

          total   stress  (Ry/bohr**3)                   (kbar)     P=        0.62
   0.00002763   0.00000000   0.00000000            4.06        0.00        0.00
   0.00000000   0.00002763   0.00000000            0.00        4.06        0.00
   0.00000000   0.00000000  -0.00004256            0.00        0.00       -6.26

     kinetic stress (kbar)  23917.14      0.00      0.00
                                0.00  23917.14     -0.00
                                0.00     -0.00  23958.51

     local   stress (kbar)   2987.92     -0.00     -0.00
                               -0.00   2987.92      0.00
                               -0.00      0.00   2251.66

     nonloc. stress (kbar)  -3114.93     -0.00      0.00
                               -0.00  -3114.93      0.00
                                0.00      0.00  -3128.94

     hartree stress (kbar)  17344.02     -0.00     -0.00
                               -0.00  17344.02     -0.00
                               -0.00     -0.00  17810.84

     exc-cor stress (kbar)  13372.01      0.00      0.00
                                0.00  13372.01     -0.00
                                0.00     -0.00  13370.28

     corecor stress (kbar) -22656.91     -0.00     -0.00
                               -0.00 -22656.91      0.00
                               -0.00      0.00 -22655.94

     ewald   stress (kbar) -31845.19      0.00      0.00
                                0.00 -31845.19      0.00
                                0.00      0.00 -31612.67

     hubbard stress (kbar)      0.00      0.00      0.00
                                0.00      0.00      0.00
                                0.00      0.00      0.00

     DFT-D   stress (kbar)      0.00      0.00      0.00
                                0.00      0.00      0.00
                                0.00      0.00      0.00

     XDM     stress (kbar)      0.00      0.00      0.00
                                0.00      0.00      0.00
                                0.00      0.00      0.00

     dft-nl  stress (kbar)      0.00      0.00      0.00
                                0.00      0.00      0.00
                                0.00      0.00      0.00

     TS-vdW  stress (kbar)      0.00      0.00      0.00
                                0.00      0.00      0.00
                                0.00      0.00      0.00

     MDB     stress (kbar)      0.00      0.00      0.00
                                0.00      0.00      0.00
                                0.00      0.00      0.00

     3D-RISM stress (kbar)      0.00      0.00      0.00
                                0.00      0.00      0.00
                                0.00      0.00      0.00


     Writing all to output data dir ./ZnO_PBE_bulk.save/

     init_run     :     37.08s CPU     59.27s WALL (       1 calls)
     electrons    :   3218.37s CPU   4807.71s WALL (       1 calls)
     forces       :     26.79s CPU     45.91s WALL (       1 calls)
     stress       :      8.79s CPU     13.50s WALL (       1 calls)

     Called by init_run:
     wfcinit      :     34.57s CPU     56.45s WALL (       1 calls)
     wfcinit:atom :      0.01s CPU      0.00s WALL (      21 calls)
     wfcinit:wfcr :     34.55s CPU     56.43s WALL (      21 calls)
     potinit      :      0.33s CPU      0.33s WALL (       1 calls)
     hinit0       :      0.75s CPU      0.76s WALL (       1 calls)

     Called by electrons:
     c_bands      :   2909.96s CPU   4377.51s WALL (      23 calls)
     sum_band     :    282.16s CPU    397.49s WALL (      23 calls)
     v_of_rho     :      2.83s CPU      4.58s WALL (      24 calls)
     v_h          :      0.73s CPU      1.16s WALL (      24 calls)
     v_xc         :      2.14s CPU      3.47s WALL (      26 calls)
     newd         :     20.06s CPU     24.63s WALL (      24 calls)
     mix_rho      :      1.02s CPU      1.05s WALL (      23 calls)

     Called by c_bands:
     init_us_2    :      0.31s CPU      0.38s WALL (    1029 calls)
     init_us_2:cp :      0.31s CPU      0.38s WALL (    1029 calls)
     cegterg      :   2438.30s CPU   3700.38s WALL (     483 calls)

     Called by sum_band:
     sum_band:wei :      1.91s CPU      1.96s WALL (      23 calls)
     sum_band:loo :    245.88s CPU    346.28s WALL (      23 calls)
     sum_band:buf :      0.02s CPU      0.06s WALL (     483 calls)
     sum_band:ini :      0.09s CPU      0.11s WALL (     483 calls)
     sum_band:cal :    129.19s CPU    167.14s WALL (     483 calls)
     sum_band:bec :      0.02s CPU      0.03s WALL (     483 calls)
     addusdens    :      3.18s CPU      5.42s WALL (      23 calls)
                                        0.00s GPU  (      23 calls)
     addusd:skk   :      0.00s CPU      0.00s WALL (      46 calls)
                                        0.00s GPU  (      46 calls)

     Called by *egterg:
     cdiaghg      :    111.27s CPU    200.13s WALL (    1811 calls)
     cegterg:over :    575.66s CPU    786.57s WALL (    1328 calls)
     cegterg:upda :     15.48s CPU     44.69s WALL (    1328 calls)
     cegterg:last :     18.52s CPU     49.38s WALL (     830 calls)
     h_psi        :   1174.72s CPU   1907.05s WALL (    1832 calls)
     s_psi        :      8.15s CPU     21.26s WALL (    1832 calls)
     g_psi        :      0.11s CPU      0.06s WALL (    1328 calls)

     Called by h_psi:
     h_psi:calbec :    433.11s CPU    603.61s WALL (    1832 calls)
     vloc_psi     :    718.34s CPU   1227.39s WALL (    1832 calls)
     add_vuspsi   :     23.19s CPU     75.94s WALL (    1832 calls)

     General routines
     calbec       :    595.45s CPU    826.86s WALL (    2420 calls)
     fft          :      1.89s CPU      2.86s WALL (     335 calls)
     ffts         :      1.95s CPU      2.10s WALL (     745 calls)
     fftw         :    833.04s CPU   1403.80s WALL (  100480 calls)
     interpolate  :      0.26s CPU      0.36s WALL (      24 calls)

     Parallel routines

     PWSCF        :  54m59.24s CPU      1h22m WALL


   This run was terminated on:  12:14:34  26Apr2025            

=------------------------------------------------------------------------------=
   JOB DONE.
=------------------------------------------------------------------------------=
