
     Program PWSCF v.7.2 starts on  4Jul2025 at  0:29: 0 

     This program is part of the open-source Quantum ESPRESSO suite
     for quantum simulation of materials; please cite
         "P. Giannozzi et al., J. Phys.:Condens. Matter 21 395502 (2009);
         "P. Giannozzi et al., J. Phys.:Condens. Matter 29 465901 (2017);
         "P. Giannozzi et al., J. Chem. Phys. 152 154105 (2020);
          URL http://www.quantum-espresso.org", 
     in publications or presentations arising from this work. More details at
     http://www.quantum-espresso.org/quote

     Parallel version (MPI), running on    16 processors

     MPI processes distributed on     1 nodes
     90137 MiB available memory on the printing compute node when the environment starts

     Reading input from ZnO-232.in
Warning: card &CELL ignored
Warning: card / ignored
Warning: card &FCP ignored
Warning: card / ignored
Warning: card &RISM ignored
Warning: card / ignored

     Current dimensions of program PWSCF are:
     Max number of different atomic species (ntypx) = 10
     Max number of k-points (npk) =  40000
     Max angular momentum in pseudopotentials (lmaxx) =  4
     file Zn.upf: wavefunction(s)  3D renormalized
     Found identity + (  0.0000  0.0000  0.5000) symmetry
     This is a supercell, fractional translations are disabled

     K-points division:     npool     =       2
     R & G space division:  proc/nbgrp/npool/nimage =       8
     Subspace diagonalization in iterative solution of the eigenvalue problem:
     one sub-group per band group will be used
     custom distributed-memory algorithm (size of sub-group:  2*  2 procs)


     Parallelization info
     --------------------
     sticks:   dense  smooth     PW     G-vecs:    dense   smooth      PW
     Min         788     394    111                66821    23618    3559
     Max         791     395    112                66822    23621    3562
     Sum        6311    3155    895               534573   188955   28489

     Using Slab Decomposition



     bravais-lattice index     =            0
     lattice parameter (alat)  =      12.3577  a.u.
     unit-cell volume          =    3957.6339 (a.u.)^3
     number of atoms/cell      =           48
     number of atomic types    =            2
     number of electrons       =       432.00
     number of Kohn-Sham states=          216
     kinetic-energy cutoff     =      50.0000  Ry
     charge density cutoff     =     400.0000  Ry
     scf convergence threshold =      1.0E-08
     mixing beta               =       0.3000
     number of iterations used =            8  plain     mixing
     Exchange-correlation= PBE
                           (   1   4   3   4   0   0   0)

     celldm(1)=  12.357708  celldm(2)=   0.000000  celldm(3)=   0.000000
     celldm(4)=   0.000000  celldm(5)=   0.000000  celldm(6)=   0.000000

     crystal axes: (cart. coord. in units of alat)
               a(1) = (   1.000000   0.000000   0.000000 )  
               a(2) = (  -0.750000   1.299038   0.000000 )  
               a(3) = (   0.000000   0.000000   1.614358 )  

     reciprocal axes: (cart. coord. in units 2 pi/alat)
               b(1) = (  1.000000  0.577350 -0.000000 )  
               b(2) = (  0.000000  0.769800  0.000000 )  
               b(3) = (  0.000000 -0.000000  0.619441 )  


     PseudoPot. # 1 for Zn read from file:
     ../pseudos/Zn.upf
     MD5 check sum: 7f56cabf9682ed8c977c2f7d0c5985c5
     Pseudo is Ultrasoft + core correction, Zval = 12.0
     Generated using &quot;atomic&quot; code by A. Dal Corso  v.6.2.2
     Using radial grid of 1201 points,  6 beta functions with: 
                l(1) =   0
                l(2) =   0
                l(3) =   1
                l(4) =   1
                l(5) =   2
                l(6) =   2
     Q(r) pseudized with 0 coefficients 


     PseudoPot. # 2 for O  read from file:
     ../pseudos/O.upf
     MD5 check sum: 91400c9766925bcf19f520983a725ff0
     Pseudo is Ultrasoft + core correction, Zval =  6.0
     Generated using &quot;atomic&quot; code by A. Dal Corso  v.6.3MaX
     Using radial grid of 1095 points,  4 beta functions with: 
                l(1) =   0
                l(2) =   0
                l(3) =   1
                l(4) =   1
     Q(r) pseudized with 0 coefficients 


     atomic species   valence    mass     pseudopotential
        Zn            12.00    65.38000     Zn( 1.00)
        O              6.00    15.99900     O ( 1.00)

     No symmetry found



   Cartesian axes

     site n.     atom                  positions (alat units)
         1           Zn  tau(   1) = (   0.0000000   0.0000000   0.0000000  )
         2           O   tau(   2) = (   0.0000000   0.2886751   0.0985546  )
         3           Zn  tau(   3) = (   0.0000000   0.2886751   0.4035896  )
         4           O   tau(   4) = (   0.0000000   0.0000000   0.5021442  )
         5           Zn  tau(   5) = (   0.0000000   0.0000000   0.8071792  )
         6           O   tau(   6) = (   0.0000000   0.2886751   0.9057338  )
         7           Zn  tau(   7) = (   0.0000000   0.2886751   1.2107688  )
         8           O   tau(   8) = (   0.0000000   0.0000000   1.3093234  )
         9           Zn  tau(   9) = (  -0.2500000   0.4330127   0.0000000  )
        10           O   tau(  10) = (  -0.2500000   0.7216878   0.0985546  )
        11           Zn  tau(  11) = (  -0.2500000   0.7216878   0.4035896  )
        12           O   tau(  12) = (  -0.2500000   0.4330127   0.5021442  )
        13           Zn  tau(  13) = (  -0.2500000   0.4330127   0.8071792  )
        14           O   tau(  14) = (  -0.2500000   0.7216878   0.9057338  )
        15           Zn  tau(  15) = (  -0.2500000   0.7216878   1.2107688  )
        16           O   tau(  16) = (  -0.2500000   0.4330127   1.3093234  )
        17           Zn  tau(  17) = (  -0.5000000   0.8660254   0.0000000  )
        18           O   tau(  18) = (  -0.5000000   1.1547005   0.0985546  )
        19           Zn  tau(  19) = (  -0.5000000   1.1547005   0.4035896  )
        20           O   tau(  20) = (  -0.5000000   0.8660254   0.5021442  )
        21           Zn  tau(  21) = (  -0.5000000   0.8660254   0.8071792  )
        22           O   tau(  22) = (  -0.5000000   1.1547005   0.9057338  )
        23           Zn  tau(  23) = (  -0.5000000   1.1547005   1.2107688  )
        24           O   tau(  24) = (  -0.5000000   0.8660254   1.3093234  )
        25           Zn  tau(  25) = (   0.5000000   0.0000000   0.0000000  )
        26           O   tau(  26) = (   0.5000000   0.2886751   0.0985546  )
        27           Zn  tau(  27) = (   0.5000000   0.2886751   0.4035896  )
        28           O   tau(  28) = (   0.5000000   0.0000000   0.5021442  )
        29           Zn  tau(  29) = (   0.5000000   0.0000000   0.8071792  )
        30           O   tau(  30) = (   0.5000000   0.2886751   0.9057338  )
        31           Zn  tau(  31) = (   0.5000000   0.2886751   1.2107688  )
        32           O   tau(  32) = (   0.5000000   0.0000000   1.3093234  )
        33           Zn  tau(  33) = (   0.2500000   0.4330127   0.0000000  )
        34           O   tau(  34) = (   0.2500000   0.7216878   0.0985546  )
        35           Zn  tau(  35) = (   0.2500000   0.7216878   0.4035896  )
        36           O   tau(  36) = (   0.2500000   0.4330127   0.5021442  )
        37           Zn  tau(  37) = (   0.2500000   0.4330127   0.8071792  )
        38           O   tau(  38) = (   0.2500000   0.7216878   0.9057338  )
        39           Zn  tau(  39) = (   0.2500000   0.7216878   1.2107688  )
        40           O   tau(  40) = (   0.2500000   0.4330127   1.3093234  )
        41           Zn  tau(  41) = (   0.0000000   0.8660254   0.0000000  )
        42           O   tau(  42) = (   0.0000000   1.1547005   0.0985546  )
        43           Zn  tau(  43) = (   0.0000000   1.1547005   0.4035896  )
        44           O   tau(  44) = (   0.0000000   0.8660254   0.5021442  )
        45           Zn  tau(  45) = (   0.0000000   0.8660254   0.8071792  )
        46           O   tau(  46) = (   0.0000000   1.1547005   0.9057338  )
        47           Zn  tau(  47) = (   0.0000000   1.1547005   1.2107688  )
        48           O   tau(  48) = (   0.0000000   0.8660254   1.3093234  )

     number of k points=   112

     Number of k-points >= 100: set verbosity='high' to print them.

     Dense  grid:   534573 G-vectors     FFT dimensions: (  80, 120, 128)

     Smooth grid:   188955 G-vectors     FFT dimensions: (  60,  90,  90)

     Estimated max dynamical RAM per process >     757.25 MB

     Estimated total dynamical RAM >      11.70 GB

     Check: negative core charge=   -0.000002

     Initial potential from superposition of free atoms

     starting charge     431.9106, renormalised to     432.0000
     Starting wfcs are  312 randomized atomic wfcs

     total cpu time spent up to now is      164.8 secs

     Self-consistent Calculation

     iteration #  1     ecut=    50.00 Ry     beta= 0.30
     Davidson diagonalization with overlap
     ethr =  1.00E-02,  avg # of iterations =  2.0

     total cpu time spent up to now is      484.4 secs

     total energy              =   -4337.75888018 Ry
     estimated scf accuracy    <       8.27632656 Ry

     iteration #  2     ecut=    50.00 Ry     beta= 0.30
     Davidson diagonalization with overlap
     ethr =  1.92E-03,  avg # of iterations =  2.0

     total cpu time spent up to now is      896.4 secs

     total energy              =   -4338.96500073 Ry
     estimated scf accuracy    <       1.04600440 Ry

     iteration #  3     ecut=    50.00 Ry     beta= 0.30
     Davidson diagonalization with overlap
     ethr =  2.42E-04,  avg # of iterations =  8.0

     total cpu time spent up to now is     1683.6 secs

     total energy              =   -4339.35630788 Ry
     estimated scf accuracy    <       0.64220580 Ry

     iteration #  4     ecut=    50.00 Ry     beta= 0.30
     Davidson diagonalization with overlap
     ethr =  1.49E-04,  avg # of iterations =  9.7

     total cpu time spent up to now is     2658.0 secs

     total energy              =   -4339.71892958 Ry
     estimated scf accuracy    <       2.42237167 Ry

     iteration #  5     ecut=    50.00 Ry     beta= 0.30
     Davidson diagonalization with overlap
     ethr =  1.49E-04,  avg # of iterations =  2.0

     total cpu time spent up to now is     2988.5 secs

     total energy              =   -4338.73074329 Ry
     estimated scf accuracy    <       1.32640367 Ry

     iteration #  6     ecut=    50.00 Ry     beta= 0.30
     Davidson diagonalization with overlap
     c_bands:  1 eigenvalues not converged
     c_bands:  2 eigenvalues not converged
     c_bands:  1 eigenvalues not converged
     ethr =  1.49E-04,  avg # of iterations = 14.0

     total cpu time spent up to now is     4228.3 secs

     total energy              =   -4338.04754010 Ry
     estimated scf accuracy    <      14.96786866 Ry

     iteration #  7     ecut=    50.00 Ry     beta= 0.30
     Davidson diagonalization with overlap
     c_bands:  1 eigenvalues not converged
     ethr =  1.49E-04,  avg # of iterations = 12.5

     total cpu time spent up to now is     5353.2 secs

     total energy              =   -4339.58727667 Ry
     estimated scf accuracy    <       0.65001156 Ry

     iteration #  8     ecut=    50.00 Ry     beta= 0.30
     Davidson diagonalization with overlap
     ethr =  1.49E-04,  avg # of iterations =  2.0

     total cpu time spent up to now is     5676.7 secs

     total energy              =   -4339.58095080 Ry
     estimated scf accuracy    <       0.29916567 Ry

     iteration #  9     ecut=    50.00 Ry     beta= 0.30
     Davidson diagonalization with overlap
     ethr =  6.93E-05,  avg # of iterations =  5.6

     total cpu time spent up to now is     6101.7 secs

     total energy              =   -4339.57327044 Ry
     estimated scf accuracy    <       0.12576605 Ry

     iteration # 10     ecut=    50.00 Ry     beta= 0.30
     Davidson diagonalization with overlap
     ethr =  2.91E-05,  avg # of iterations =  8.0

     total cpu time spent up to now is     6758.3 secs

     total energy              =   -4339.64230550 Ry
     estimated scf accuracy    <       0.00942765 Ry

     iteration # 11     ecut=    50.00 Ry     beta= 0.30
     Davidson diagonalization with overlap
     ethr =  2.18E-06,  avg # of iterations =  5.7

     total cpu time spent up to now is     7250.5 secs

     total energy              =   -4339.64067179 Ry
     estimated scf accuracy    <       0.00467851 Ry

     iteration # 12     ecut=    50.00 Ry     beta= 0.30
     Davidson diagonalization with overlap
     ethr =  1.08E-06,  avg # of iterations =  9.8

     total cpu time spent up to now is     8215.9 secs

     total energy              =   -4339.64463579 Ry
     estimated scf accuracy    <       0.01622188 Ry

     iteration # 13     ecut=    50.00 Ry     beta= 0.30
     Davidson diagonalization with overlap
     ethr =  1.08E-06,  avg # of iterations =  2.0

     total cpu time spent up to now is     8548.5 secs

     total energy              =   -4339.64122613 Ry
     estimated scf accuracy    <       0.00891161 Ry

     iteration # 14     ecut=    50.00 Ry     beta= 0.30
     Davidson diagonalization with overlap
     ethr =  1.08E-06,  avg # of iterations =  8.2

     total cpu time spent up to now is     9274.7 secs

     total energy              =   -4339.64400040 Ry
     estimated scf accuracy    <       0.00007167 Ry

     iteration # 15     ecut=    50.00 Ry     beta= 0.30
     Davidson diagonalization with overlap
     ethr =  1.66E-08,  avg # of iterations =  9.9

     total cpu time spent up to now is    10209.4 secs

     total energy              =   -4339.64415302 Ry
     estimated scf accuracy    <       0.00008275 Ry

     iteration # 16     ecut=    50.00 Ry     beta= 0.30
     Davidson diagonalization with overlap
     ethr =  1.66E-08,  avg # of iterations =  5.8

     total cpu time spent up to now is    10710.5 secs

     total energy              =   -4339.64422666 Ry
     estimated scf accuracy    <       0.00000594 Ry

     iteration # 17     ecut=    50.00 Ry     beta= 0.30
     Davidson diagonalization with overlap
     c_bands:  1 eigenvalues not converged
     c_bands:  1 eigenvalues not converged
     c_bands:  1 eigenvalues not converged
     c_bands:  1 eigenvalues not converged
     c_bands:  1 eigenvalues not converged
     c_bands:  1 eigenvalues not converged
     c_bands:  1 eigenvalues not converged
     c_bands:  1 eigenvalues not converged
     c_bands:  1 eigenvalues not converged
     ethr =  1.37E-09,  avg # of iterations = 15.1

     total cpu time spent up to now is    12099.4 secs

     total energy              =   -4339.64425495 Ry
     estimated scf accuracy    <       0.00042075 Ry

     iteration # 18     ecut=    50.00 Ry     beta= 0.30
     Davidson diagonalization with overlap
     ethr =  1.37E-09,  avg # of iterations =  4.7

     total cpu time spent up to now is    12576.7 secs

     total energy              =   -4339.64416762 Ry
     estimated scf accuracy    <       0.00034987 Ry

     iteration # 19     ecut=    50.00 Ry     beta= 0.30
     Davidson diagonalization with overlap
     c_bands:  1 eigenvalues not converged
     ethr =  1.37E-09,  avg # of iterations = 11.9

     total cpu time spent up to now is    13717.0 secs

     total energy              =   -4339.64421108 Ry
     estimated scf accuracy    <       0.00006599 Ry

     iteration # 20     ecut=    50.00 Ry     beta= 0.30
     Davidson diagonalization with overlap
     ethr =  1.37E-09,  avg # of iterations =  6.3

     total cpu time spent up to now is    14414.9 secs

     total energy              =   -4339.64417512 Ry
     estimated scf accuracy    <       0.00015259 Ry

     iteration # 21     ecut=    50.00 Ry     beta= 0.30
     Davidson diagonalization with overlap
     ethr =  1.37E-09,  avg # of iterations =  8.4

     total cpu time spent up to now is    15288.2 secs

     total energy              =   -4339.64417202 Ry
     estimated scf accuracy    <       0.00003828 Ry

     iteration # 22     ecut=    50.00 Ry     beta= 0.30
     Davidson diagonalization with overlap
     ethr =  1.37E-09,  avg # of iterations =  6.9

     total cpu time spent up to now is    15921.8 secs

     total energy              =   -4339.64417412 Ry
     estimated scf accuracy    <       0.00000687 Ry

     iteration # 23     ecut=    50.00 Ry     beta= 0.30
     Davidson diagonalization with overlap
     ethr =  1.37E-09,  avg # of iterations =  2.0

     total cpu time spent up to now is    16248.4 secs

     total energy              =   -4339.64417193 Ry
     estimated scf accuracy    <       0.00000462 Ry

     iteration # 24     ecut=    50.00 Ry     beta= 0.30
     Davidson diagonalization with overlap
     ethr =  1.07E-09,  avg # of iterations =  6.8

     total cpu time spent up to now is    16891.6 secs

     total energy              =   -4339.64417370 Ry
     estimated scf accuracy    <       0.00000071 Ry

     iteration # 25     ecut=    50.00 Ry     beta= 0.30
     Davidson diagonalization with overlap
     ethr =  1.64E-10,  avg # of iterations =  5.0

     total cpu time spent up to now is    17362.8 secs

     total energy              =   -4339.64417382 Ry
     estimated scf accuracy    <       0.00000006 Ry

     iteration # 26     ecut=    50.00 Ry     beta= 0.30
     Davidson diagonalization with overlap
     ethr =  1.43E-11,  avg # of iterations =  9.2

     total cpu time spent up to now is    18339.4 secs

     total energy              =   -4339.64417394 Ry
     estimated scf accuracy    <       0.00000024 Ry

     iteration # 27     ecut=    50.00 Ry     beta= 0.30
     Davidson diagonalization with overlap
     ethr =  1.43E-11,  avg # of iterations =  1.3

     total cpu time spent up to now is    18643.7 secs

     total energy              =   -4339.64417382 Ry
     estimated scf accuracy    <       0.00000018 Ry

     iteration # 28     ecut=    50.00 Ry     beta= 0.30
     Davidson diagonalization with overlap
     ethr =  1.43E-11,  avg # of iterations = 11.1

     total cpu time spent up to now is    19700.3 secs

     total energy              =   -4339.64417387 Ry
     estimated scf accuracy    <       0.00000020 Ry

     iteration # 29     ecut=    50.00 Ry     beta= 0.30
     Davidson diagonalization with overlap
     ethr =  1.43E-11,  avg # of iterations =  6.3

     total cpu time spent up to now is    20359.2 secs

     End of self-consistent calculation

     Number of k-points >= 100: set verbosity='high' to print the bands.

     highest occupied level (ev):     6.8835

!    total energy              =   -4339.64417391 Ry
     estimated scf accuracy    <          2.0E-09 Ry

     The total energy is the sum of the following terms:
     one-electron contribution =   -1854.26081518 Ry
     hartree contribution      =    1419.41368832 Ry
     xc contribution           =   -1314.54230657 Ry
     ewald contribution        =   -2590.25474048 Ry

     convergence has been achieved in  29 iterations

     Forces acting on atoms (cartesian axes, Ry/au):

     atom    1 type  1   force =     0.00000017   -0.00000394    0.00136079
     atom    2 type  2   force =    -0.00000006    0.00000019   -0.00135977
     atom    3 type  1   force =     0.00000101    0.00000290    0.00136348
     atom    4 type  2   force =    -0.00000018    0.00000032   -0.00135966
     atom    5 type  1   force =     0.00000105   -0.00000627    0.00135850
     atom    6 type  2   force =    -0.00000010    0.00000022   -0.00135882
     atom    7 type  1   force =     0.00000065   -0.00000146    0.00135639
     atom    8 type  2   force =    -0.00000005    0.00000017   -0.00135910
     atom    9 type  1   force =    -0.00000069    0.00000273    0.00136408
     atom   10 type  2   force =     0.00000019   -0.00000002   -0.00135981
     atom   11 type  1   force =    -0.00000594    0.00000298    0.00136587
     atom   12 type  2   force =     0.00000013   -0.00000034   -0.00135965
     atom   13 type  1   force =    -0.00000322    0.00000289    0.00135363
     atom   14 type  2   force =     0.00000026   -0.00000016   -0.00135870
     atom   15 type  1   force =     0.00000065    0.00000367    0.00135438
     atom   16 type  2   force =    -0.00000008   -0.00000016   -0.00135910
     atom   17 type  1   force =     0.00000117    0.00000224    0.00136564
     atom   18 type  2   force =    -0.00000005    0.00000043   -0.00135985
     atom   19 type  1   force =     0.00000211   -0.00000774    0.00136588
     atom   20 type  2   force =    -0.00000023   -0.00000004   -0.00135963
     atom   21 type  1   force =     0.00000075    0.00000186    0.00135216
     atom   22 type  2   force =    -0.00000015    0.00000044   -0.00135884
     atom   23 type  1   force =    -0.00000059   -0.00000284    0.00135287
     atom   24 type  2   force =    -0.00000011   -0.00000027   -0.00135884
     atom   25 type  1   force =    -0.00000001   -0.00000383    0.00136307
     atom   26 type  2   force =     0.00000006    0.00000017   -0.00135991
     atom   27 type  1   force =    -0.00000054    0.00000205    0.00136531
     atom   28 type  2   force =    -0.00000009    0.00000022   -0.00135979
     atom   29 type  1   force =    -0.00000085   -0.00000374    0.00135647
     atom   30 type  2   force =     0.00000012    0.00000013   -0.00135865
     atom   31 type  1   force =    -0.00000113   -0.00000101    0.00135252
     atom   32 type  2   force =    -0.00000006    0.00000008   -0.00135898
     atom   33 type  1   force =     0.00000103    0.00000112    0.00136310
     atom   34 type  2   force =    -0.00000030   -0.00000001   -0.00135982
     atom   35 type  1   force =     0.00000571    0.00000185    0.00136679
     atom   36 type  2   force =    -0.00000042   -0.00000025   -0.00135971
     atom   37 type  1   force =     0.00000363    0.00000294    0.00135363
     atom   38 type  2   force =    -0.00000017   -0.00000001   -0.00135891
     atom   39 type  1   force =    -0.00000044    0.00000298    0.00135338
     atom   40 type  2   force =    -0.00000010   -0.00000005   -0.00135896
     atom   41 type  1   force =    -0.00000098    0.00000316    0.00136111
     atom   42 type  2   force =     0.00000007    0.00000020   -0.00135953
     atom   43 type  1   force =    -0.00000268   -0.00000295    0.00136403
     atom   44 type  2   force =     0.00000011   -0.00000017   -0.00135976
     atom   45 type  1   force =    -0.00000017    0.00000262    0.00135754
     atom   46 type  2   force =     0.00000019    0.00000043   -0.00135907
     atom   47 type  1   force =     0.00000049   -0.00000344    0.00135340
     atom   48 type  2   force =    -0.00000014   -0.00000026   -0.00135915
     The non-local contrib.  to forces
     atom    1 type  1   force =    -0.00000042   -0.00000042    0.01087502
     atom    2 type  2   force =     0.00000003    0.00000563   -0.00011906
     atom    3 type  1   force =     0.00000066   -0.00000033    0.01087568
     atom    4 type  2   force =    -0.00000119   -0.00000243   -0.00011802
     atom    5 type  1   force =     0.00000058   -0.00000189    0.01087212
     atom    6 type  2   force =    -0.00000049    0.00000528   -0.00011302
     atom    7 type  1   force =     0.00000065   -0.00000283    0.01087194
     atom    8 type  2   force =     0.00000003   -0.00000226   -0.00011498
     atom    9 type  1   force =    -0.00000056    0.00000296    0.01087690
     atom   10 type  2   force =     0.00000103    0.00000319   -0.00012023
     atom   11 type  1   force =    -0.00000348   -0.00000058    0.01087727
     atom   12 type  2   force =     0.00000184   -0.00000721   -0.00011745
     atom   13 type  1   force =    -0.00000251    0.00000388    0.01086917
     atom   14 type  2   force =     0.00000160    0.00000228   -0.00011260
     atom   15 type  1   force =     0.00000022    0.00000061    0.01087081
     atom   16 type  2   force =     0.00000001   -0.00000615   -0.00011469
     atom   17 type  1   force =     0.00000062    0.00000363    0.01087790
     atom   18 type  2   force =    -0.00000032    0.00000671   -0.00011969
     atom   19 type  1   force =     0.00000156   -0.00000624    0.01087719
     atom   20 type  2   force =    -0.00000066   -0.00000468   -0.00011867
     atom   21 type  1   force =     0.00000020    0.00000323    0.01086907
     atom   22 type  2   force =    -0.00000081    0.00000743   -0.00011349
     atom   23 type  1   force =    -0.00000038   -0.00000395    0.01087050
     atom   24 type  2   force =     0.00000009   -0.00000648   -0.00011373
     atom   25 type  1   force =     0.00000034   -0.00000038    0.01087652
     atom   26 type  2   force =     0.00000023    0.00000555   -0.00012037
     atom   27 type  1   force =    -0.00000041   -0.00000031    0.01087674
     atom   28 type  2   force =     0.00000085   -0.00000348   -0.00011880
     atom   29 type  1   force =    -0.00000059   -0.00000040    0.01087088
     atom   30 type  2   force =     0.00000085    0.00000565   -0.00011270
     atom   31 type  1   force =    -0.00000053   -0.00000244    0.01087010
     atom   32 type  2   force =    -0.00000018   -0.00000313   -0.00011418
     atom   33 type  1   force =     0.00000051    0.00000235    0.01087657
     atom   34 type  2   force =    -0.00000089    0.00000343   -0.00012014
     atom   35 type  1   force =     0.00000359   -0.00000159    0.01087776
     atom   36 type  2   force =    -0.00000231   -0.00000707   -0.00011829
     atom   37 type  1   force =     0.00000255    0.00000371    0.01086917
     atom   38 type  2   force =    -0.00000140    0.00000296   -0.00011317
     atom   39 type  1   force =    -0.00000010    0.00000010    0.01087031
     atom   40 type  2   force =    -0.00000041   -0.00000599   -0.00011439
     atom   41 type  1   force =    -0.00000066    0.00000455    0.01087568
     atom   42 type  2   force =     0.00000064    0.00000584   -0.00011776
     atom   43 type  1   force =    -0.00000146   -0.00000383    0.01087592
     atom   44 type  2   force =     0.00000045   -0.00000477   -0.00011830
     atom   45 type  1   force =    -0.00000017    0.00000405    0.01087197
     atom   46 type  2   force =     0.00000090    0.00000648   -0.00011546
     atom   47 type  1   force =     0.00000057   -0.00000439    0.01087065
     atom   48 type  2   force =    -0.00000051   -0.00000640   -0.00011490
     The ionic contribution  to forces
     atom    1 type  1   force =    -0.00000000    0.00000000   -0.02077733
     atom    2 type  2   force =     0.00000000    0.00000000    0.02077733
     atom    3 type  1   force =     0.00000000    0.00000000   -0.02077733
     atom    4 type  2   force =    -0.00000000   -0.00000000    0.02077733
     atom    5 type  1   force =    -0.00000000    0.00000000   -0.02077733
     atom    6 type  2   force =     0.00000000    0.00000000    0.02077733
     atom    7 type  1   force =     0.00000000    0.00000000   -0.02077733
     atom    8 type  2   force =    -0.00000000   -0.00000000    0.02077733
     atom    9 type  1   force =    -0.00000000    0.00000000   -0.02077733
     atom   10 type  2   force =    -0.00000000   -0.00000000    0.02077733
     atom   11 type  1   force =    -0.00000000   -0.00000000   -0.02077733
     atom   12 type  2   force =     0.00000000    0.00000000    0.02077733
     atom   13 type  1   force =    -0.00000000    0.00000000   -0.02077733
     atom   14 type  2   force =    -0.00000000   -0.00000000    0.02077733
     atom   15 type  1   force =    -0.00000000   -0.00000000   -0.02077733
     atom   16 type  2   force =     0.00000000    0.00000000    0.02077733
     atom   17 type  1   force =    -0.00000000   -0.00000000   -0.02077733
     atom   18 type  2   force =     0.00000000    0.00000000    0.02077733
     atom   19 type  1   force =     0.00000000   -0.00000000   -0.02077733
     atom   20 type  2   force =    -0.00000000   -0.00000000    0.02077733
     atom   21 type  1   force =    -0.00000000   -0.00000000   -0.02077733
     atom   22 type  2   force =     0.00000000    0.00000000    0.02077733
     atom   23 type  1   force =    -0.00000000   -0.00000000   -0.02077733
     atom   24 type  2   force =     0.00000000   -0.00000000    0.02077733
     atom   25 type  1   force =    -0.00000000    0.00000000   -0.02077733
     atom   26 type  2   force =    -0.00000000    0.00000000    0.02077733
     atom   27 type  1   force =    -0.00000000    0.00000000   -0.02077733
     atom   28 type  2   force =    -0.00000000   -0.00000000    0.02077733
     atom   29 type  1   force =    -0.00000000    0.00000000   -0.02077733
     atom   30 type  2   force =    -0.00000000    0.00000000    0.02077733
     atom   31 type  1   force =     0.00000000    0.00000000   -0.02077733
     atom   32 type  2   force =    -0.00000000   -0.00000000    0.02077733
     atom   33 type  1   force =    -0.00000000    0.00000000   -0.02077733
     atom   34 type  2   force =    -0.00000000   -0.00000000    0.02077733
     atom   35 type  1   force =    -0.00000000   -0.00000000   -0.02077733
     atom   36 type  2   force =    -0.00000000    0.00000000    0.02077733
     atom   37 type  1   force =    -0.00000000    0.00000000   -0.02077733
     atom   38 type  2   force =    -0.00000000   -0.00000000    0.02077733
     atom   39 type  1   force =    -0.00000000   -0.00000000   -0.02077733
     atom   40 type  2   force =    -0.00000000    0.00000000    0.02077733
     atom   41 type  1   force =    -0.00000000   -0.00000000   -0.02077733
     atom   42 type  2   force =     0.00000000    0.00000000    0.02077733
     atom   43 type  1   force =     0.00000000   -0.00000000   -0.02077733
     atom   44 type  2   force =    -0.00000000   -0.00000000    0.02077733
     atom   45 type  1   force =    -0.00000000   -0.00000000   -0.02077733
     atom   46 type  2   force =    -0.00000000    0.00000000    0.02077733
     atom   47 type  1   force =     0.00000000   -0.00000000   -0.02077733
     atom   48 type  2   force =    -0.00000000   -0.00000000    0.02077733
     The local contribution  to forces
     atom    1 type  1   force =     0.00000050    0.00000500    0.01225243
     atom    2 type  2   force =    -0.00000019   -0.00000531   -0.02203911
     atom    3 type  1   force =    -0.00000163   -0.00000353    0.01224804
     atom    4 type  2   force =     0.00000020    0.00000549   -0.02203979
     atom    5 type  1   force =    -0.00000148    0.00000916    0.01225662
     atom    6 type  2   force =     0.00000008   -0.00000461   -0.02203800
     atom    7 type  1   force =    -0.00000152    0.00000441    0.01225879
     atom    8 type  2   force =    -0.00000014    0.00000497   -0.02203633
     atom    9 type  1   force =     0.00000138   -0.00000501    0.01224728
     atom   10 type  2   force =     0.00000037   -0.00000567   -0.02203900
     atom   11 type  1   force =     0.00001003   -0.00000277    0.01224483
     atom   12 type  2   force =     0.00000073    0.00000355   -0.02204029
     atom   13 type  1   force =     0.00000628   -0.00000641    0.01226483
     atom   14 type  2   force =    -0.00000017   -0.00000563   -0.02203654
     atom   15 type  1   force =    -0.00000117   -0.00000522    0.01226236
     atom   16 type  2   force =    -0.00000013    0.00000483   -0.02203703
     atom   17 type  1   force =    -0.00000183   -0.00000530    0.01224548
     atom   18 type  2   force =    -0.00000025   -0.00000371   -0.02203830
     atom   19 type  1   force =    -0.00000444    0.00001394    0.01224531
     atom   20 type  2   force =    -0.00000066    0.00000453   -0.02204003
     atom   21 type  1   force =    -0.00000030   -0.00000487    0.01226714
     atom   22 type  2   force =     0.00000078   -0.00000389   -0.02203650
     atom   23 type  1   force =     0.00000126    0.00000561    0.01226423
     atom   24 type  2   force =    -0.00000035    0.00000407   -0.02203713
     atom   25 type  1   force =    -0.00000058    0.00000455    0.01224855
     atom   26 type  2   force =     0.00000001   -0.00000546   -0.02203888
     atom   27 type  1   force =     0.00000128   -0.00000195    0.01224544
     atom   28 type  2   force =    -0.00000038    0.00000597   -0.02203895
     atom   29 type  1   force =     0.00000130    0.00000474    0.01226024
     atom   30 type  2   force =     0.00000021   -0.00000608   -0.02203729
     atom   31 type  1   force =     0.00000172    0.00000308    0.01226454
     atom   32 type  2   force =    -0.00000012    0.00000555   -0.02203658
     atom   33 type  1   force =    -0.00000156   -0.00000300    0.01224873
     atom   34 type  2   force =    -0.00000011   -0.00000551   -0.02203903
     atom   35 type  1   force =    -0.00000990   -0.00000050    0.01224308
     atom   36 type  2   force =    -0.00000028    0.00000419   -0.02204010
     atom   37 type  1   force =    -0.00000662   -0.00000660    0.01226507
     atom   38 type  2   force =     0.00000029   -0.00000508   -0.02203618
     atom   39 type  1   force =     0.00000105   -0.00000379    0.01226384
     atom   40 type  2   force =     0.00000015    0.00000484   -0.02203642
     atom   41 type  1   force =     0.00000173   -0.00000711    0.01225147
     atom   42 type  2   force =     0.00000015   -0.00000333   -0.02203917
     atom   43 type  1   force =     0.00000455    0.00000581    0.01224901
     atom   44 type  2   force =    -0.00000005    0.00000351   -0.02204001
     atom   45 type  1   force =    -0.00000003   -0.00000637    0.01225782
     atom   46 type  2   force =    -0.00000013   -0.00000284   -0.02203566
     atom   47 type  1   force =    -0.00000133    0.00000734    0.01226330
     atom   48 type  2   force =     0.00000030    0.00000367   -0.02203572
     The core correction contribution to forces
     atom    1 type  1   force =    -0.00000000   -0.00000035   -0.00098934
     atom    2 type  2   force =    -0.00000000   -0.00000006    0.00002005
     atom    3 type  1   force =     0.00000002    0.00000037   -0.00098906
     atom    4 type  2   force =     0.00000002    0.00000001    0.00002004
     atom    5 type  1   force =     0.00000000   -0.00000042   -0.00098921
     atom    6 type  2   force =     0.00000001   -0.00000005    0.00001996
     atom    7 type  1   force =     0.00000002    0.00000019   -0.00098922
     atom    8 type  2   force =     0.00000000    0.00000001    0.00002000
     atom    9 type  1   force =    -0.00000002   -0.00000021   -0.00098927
     atom   10 type  2   force =    -0.00000002   -0.00000003    0.00002007
     atom   11 type  1   force =    -0.00000014    0.00000034   -0.00098910
     atom   12 type  2   force =    -0.00000002    0.00000008    0.00002003
     atom   13 type  1   force =    -0.00000008   -0.00000022   -0.00098933
     atom   14 type  2   force =    -0.00000002   -0.00000001    0.00001996
     atom   15 type  1   force =     0.00000005    0.00000036   -0.00098930
     atom   16 type  2   force =     0.00000000    0.00000007    0.00001999
     atom   17 type  1   force =     0.00000002   -0.00000026   -0.00098933
     atom   18 type  2   force =     0.00000000   -0.00000007    0.00002006
     atom   19 type  1   force =     0.00000010    0.00000010   -0.00098914
     atom   20 type  2   force =     0.00000001    0.00000005    0.00002005
     atom   21 type  1   force =    -0.00000004   -0.00000023   -0.00098944
     atom   22 type  2   force =     0.00000001   -0.00000008    0.00001997
     atom   23 type  1   force =    -0.00000003    0.00000031   -0.00098936
     atom   24 type  2   force =    -0.00000000    0.00000007    0.00001998
     atom   25 type  1   force =     0.00000000   -0.00000032   -0.00098930
     atom   26 type  2   force =    -0.00000000   -0.00000006    0.00002007
     atom   27 type  1   force =    -0.00000003    0.00000026   -0.00098906
     atom   28 type  2   force =    -0.00000001    0.00000003    0.00002005
     atom   29 type  1   force =    -0.00000001   -0.00000034   -0.00098928
     atom   30 type  2   force =    -0.00000001   -0.00000006    0.00001996
     atom   31 type  1   force =    -0.00000002    0.00000024   -0.00098931
     atom   32 type  2   force =     0.00000000    0.00000002    0.00001999
     atom   33 type  1   force =     0.00000002   -0.00000024   -0.00098932
     atom   34 type  2   force =     0.00000001   -0.00000003    0.00002006
     atom   35 type  1   force =     0.00000014    0.00000032   -0.00098906
     atom   36 type  2   force =     0.00000003    0.00000008    0.00002004
     atom   37 type  1   force =     0.00000007   -0.00000018   -0.00098935
     atom   38 type  2   force =     0.00000002   -0.00000002    0.00001997
     atom   39 type  1   force =    -0.00000005    0.00000033   -0.00098931
     atom   40 type  2   force =     0.00000001    0.00000006    0.00001999
     atom   41 type  1   force =    -0.00000003   -0.00000027   -0.00098936
     atom   42 type  2   force =    -0.00000001   -0.00000006    0.00002003
     atom   43 type  1   force =    -0.00000009    0.00000028   -0.00098920
     atom   44 type  2   force =    -0.00000001    0.00000005    0.00002004
     atom   45 type  1   force =     0.00000003   -0.00000025   -0.00098925
     atom   46 type  2   force =    -0.00000001   -0.00000007    0.00002000
     atom   47 type  1   force =     0.00000003    0.00000024   -0.00098931
     atom   48 type  2   force =     0.00000001    0.00000007    0.00002000
     The Hubbard contrib.    to forces
     atom    1 type  1   force =     0.00000000    0.00000000    0.00000000
     atom    2 type  2   force =     0.00000000    0.00000000    0.00000000
     atom    3 type  1   force =     0.00000000    0.00000000    0.00000000
     atom    4 type  2   force =     0.00000000    0.00000000    0.00000000
     atom    5 type  1   force =     0.00000000    0.00000000    0.00000000
     atom    6 type  2   force =     0.00000000    0.00000000    0.00000000
     atom    7 type  1   force =     0.00000000    0.00000000    0.00000000
     atom    8 type  2   force =     0.00000000    0.00000000    0.00000000
     atom    9 type  1   force =     0.00000000    0.00000000    0.00000000
     atom   10 type  2   force =     0.00000000    0.00000000    0.00000000
     atom   11 type  1   force =     0.00000000    0.00000000    0.00000000
     atom   12 type  2   force =     0.00000000    0.00000000    0.00000000
     atom   13 type  1   force =     0.00000000    0.00000000    0.00000000
     atom   14 type  2   force =     0.00000000    0.00000000    0.00000000
     atom   15 type  1   force =     0.00000000    0.00000000    0.00000000
     atom   16 type  2   force =     0.00000000    0.00000000    0.00000000
     atom   17 type  1   force =     0.00000000    0.00000000    0.00000000
     atom   18 type  2   force =     0.00000000    0.00000000    0.00000000
     atom   19 type  1   force =     0.00000000    0.00000000    0.00000000
     atom   20 type  2   force =     0.00000000    0.00000000    0.00000000
     atom   21 type  1   force =     0.00000000    0.00000000    0.00000000
     atom   22 type  2   force =     0.00000000    0.00000000    0.00000000
     atom   23 type  1   force =     0.00000000    0.00000000    0.00000000
     atom   24 type  2   force =     0.00000000    0.00000000    0.00000000
     atom   25 type  1   force =     0.00000000    0.00000000    0.00000000
     atom   26 type  2   force =     0.00000000    0.00000000    0.00000000
     atom   27 type  1   force =     0.00000000    0.00000000    0.00000000
     atom   28 type  2   force =     0.00000000    0.00000000    0.00000000
     atom   29 type  1   force =     0.00000000    0.00000000    0.00000000
     atom   30 type  2   force =     0.00000000    0.00000000    0.00000000
     atom   31 type  1   force =     0.00000000    0.00000000    0.00000000
     atom   32 type  2   force =     0.00000000    0.00000000    0.00000000
     atom   33 type  1   force =     0.00000000    0.00000000    0.00000000
     atom   34 type  2   force =     0.00000000    0.00000000    0.00000000
     atom   35 type  1   force =     0.00000000    0.00000000    0.00000000
     atom   36 type  2   force =     0.00000000    0.00000000    0.00000000
     atom   37 type  1   force =     0.00000000    0.00000000    0.00000000
     atom   38 type  2   force =     0.00000000    0.00000000    0.00000000
     atom   39 type  1   force =     0.00000000    0.00000000    0.00000000
     atom   40 type  2   force =     0.00000000    0.00000000    0.00000000
     atom   41 type  1   force =     0.00000000    0.00000000    0.00000000
     atom   42 type  2   force =     0.00000000    0.00000000    0.00000000
     atom   43 type  1   force =     0.00000000    0.00000000    0.00000000
     atom   44 type  2   force =     0.00000000    0.00000000    0.00000000
     atom   45 type  1   force =     0.00000000    0.00000000    0.00000000
     atom   46 type  2   force =     0.00000000    0.00000000    0.00000000
     atom   47 type  1   force =     0.00000000    0.00000000    0.00000000
     atom   48 type  2   force =     0.00000000    0.00000000    0.00000000
     The SCF correction term to forces
     atom    1 type  1   force =     0.00000012   -0.00000822    0.00000260
     atom    2 type  2   force =     0.00000014   -0.00000012    0.00000360
     atom    3 type  1   force =     0.00000199    0.00000634    0.00000873
     atom    4 type  2   force =     0.00000083   -0.00000279    0.00000336
     atom    5 type  1   force =     0.00000198   -0.00001317   -0.00000112
     atom    6 type  2   force =     0.00000034   -0.00000045   -0.00000252
     atom    7 type  1   force =     0.00000153   -0.00000328   -0.00000522
     atom    8 type  2   force =     0.00000009   -0.00000260   -0.00000253
     atom    9 type  1   force =    -0.00000146    0.00000494    0.00000909
     atom   10 type  2   force =    -0.00000116    0.00000243    0.00000461
     atom   11 type  1   force =    -0.00001232    0.00000595    0.00001279
     atom   12 type  2   force =    -0.00000238    0.00000319    0.00000331
     atom   13 type  1   force =    -0.00000688    0.00000559   -0.00001114
     atom   14 type  2   force =    -0.00000110    0.00000316   -0.00000427
     atom   15 type  1   force =     0.00000158    0.00000787   -0.00000958
     atom   16 type  2   force =     0.00000007    0.00000105   -0.00000213
     atom   17 type  1   force =     0.00000239    0.00000413    0.00001150
     atom   18 type  2   force =     0.00000055   -0.00000254    0.00000333
     atom   19 type  1   force =     0.00000492   -0.00001559    0.00001242
     atom   20 type  2   force =     0.00000111    0.00000002    0.00000427
     atom   21 type  1   force =     0.00000093    0.00000369   -0.00001470
     atom   22 type  2   force =    -0.00000009   -0.00000306   -0.00000358
     atom   23 type  1   force =    -0.00000141   -0.00000485   -0.00001259
     atom   24 type  2   force =     0.00000017    0.00000202   -0.00000271
     atom   25 type  1   force =     0.00000026   -0.00000773    0.00000721
     atom   26 type  2   force =    -0.00000015    0.00000009    0.00000453
     atom   27 type  1   force =    -0.00000135    0.00000400    0.00001209
     atom   28 type  2   force =    -0.00000051   -0.00000234    0.00000316
     atom   29 type  1   force =    -0.00000152   -0.00000779   -0.00000547
     atom   30 type  2   force =    -0.00000088    0.00000057   -0.00000336
     atom   31 type  1   force =    -0.00000226   -0.00000194   -0.00001289
     atom   32 type  2   force =     0.00000027   -0.00000241   -0.00000295
     atom   33 type  1   force =     0.00000209    0.00000196    0.00000703
     atom   34 type  2   force =     0.00000073    0.00000206    0.00000454
     atom   35 type  1   force =     0.00001191    0.00000359    0.00001491
     atom   36 type  2   force =     0.00000218    0.00000250    0.00000388
     atom   37 type  1   force =     0.00000766    0.00000597   -0.00001136
     atom   38 type  2   force =     0.00000095    0.00000209   -0.00000428
     atom   39 type  1   force =    -0.00000130    0.00000629   -0.00001154
     atom   40 type  2   force =     0.00000020    0.00000099   -0.00000289
     atom   41 type  1   force =    -0.00000198    0.00000594    0.00000323
     atom   42 type  2   force =    -0.00000068   -0.00000230    0.00000262
     atom   43 type  1   force =    -0.00000565   -0.00000526    0.00000821
     atom   44 type  2   force =    -0.00000024    0.00000100    0.00000375
     atom   45 type  1   force =     0.00000003    0.00000515   -0.00000309
     atom   46 type  2   force =    -0.00000054   -0.00000319   -0.00000269
     atom   47 type  1   force =     0.00000125   -0.00000668   -0.00001132
     atom   48 type  2   force =     0.00000009    0.00000236   -0.00000328

     Total force =     0.009418     Total SCF correction =     0.000066

     Writing all to output data dir ./ZnO_232.save/

     init_run     :    230.19s CPU    164.43s WALL (       1 calls)
     electrons    :  29706.52s CPU  20194.52s WALL (       1 calls)
     forces       :    107.52s CPU     61.00s WALL (       1 calls)

     Called by init_run:
     wfcinit      :    223.89s CPU    157.99s WALL (       1 calls)
     potinit      :      2.86s CPU      2.90s WALL (       1 calls)
     hinit0       :      2.77s CPU      2.80s WALL (       1 calls)

     Called by electrons:
     c_bands      :  28217.25s CPU  19012.45s WALL (      29 calls)
     sum_band     :   1465.89s CPU   1158.90s WALL (      29 calls)
     v_of_rho     :      6.58s CPU      6.92s WALL (      30 calls)
     newd         :     15.75s CPU     15.26s WALL (      30 calls)
     mix_rho      :      1.02s CPU      0.98s WALL (      29 calls)

     Called by c_bands:
     init_us_2    :     64.10s CPU     55.37s WALL (    3360 calls)
     init_us_2:cp :     64.04s CPU     55.35s WALL (    3360 calls)
     cegterg      :  27445.08s CPU  18269.95s WALL (    1624 calls)

     Called by *egterg:
     cdiaghg      :   3844.06s CPU   3149.83s WALL (   13367 calls)
     h_psi        :  11087.66s CPU   8614.73s WALL (   13423 calls)
     s_psi        :   2805.15s CPU   1408.66s WALL (   13423 calls)
     g_psi        :     44.17s CPU     36.78s WALL (   11743 calls)

     Called by h_psi:
     h_psi:calbec :   2753.68s CPU   1407.68s WALL (   13423 calls)
     vloc_psi     :   5455.79s CPU   5709.90s WALL (   13423 calls)
     add_vuspsi   :   2826.17s CPU   1418.78s WALL (   13423 calls)

     General routines
     calbec       :   3504.60s CPU   1790.75s WALL (   15271 calls)
     fft          :      5.20s CPU      5.40s WALL (     399 calls)
     ffts         :      0.44s CPU      0.43s WALL (      59 calls)
     fftw         :   5263.54s CPU   5478.16s WALL ( 3224032 calls)
     interpolate  :      0.58s CPU      0.63s WALL (      30 calls)

     Parallel routines

     PWSCF        :      8h20m CPU      5h40m WALL


   This run was terminated on:   6: 9:34   4Jul2025            

=------------------------------------------------------------------------------=
   JOB DONE.
=------------------------------------------------------------------------------=
