Authorization required, but no authorization protocol specified

Authorization required, but no authorization protocol specified

Authorization required, but no authorization protocol specified

Authorization required, but no authorization protocol specified

Authorization required, but no authorization protocol specified

Authorization required, but no authorization protocol specified

Authorization required, but no authorization protocol specified

Authorization required, but no authorization protocol specified

Authorization required, but no authorization protocol specified

Authorization required, but no authorization protocol specified


     Program PWSCF v.7.2 starts on 13Jun2025 at 18:10:14 

     This program is part of the open-source Quantum ESPRESSO suite
     for quantum simulation of materials; please cite
         "P. Giannozzi et al., J. Phys.:Condens. Matter 21 395502 (2009);
         "P. Giannozzi et al., J. Phys.:Condens. Matter 29 465901 (2017);
         "P. Giannozzi et al., J. Chem. Phys. 152 154105 (2020);
          URL http://www.quantum-espresso.org", 
     in publications or presentations arising from this work. More details at
     http://www.quantum-espresso.org/quote

     Parallel version (MPI), running on     8 processors

     MPI processes distributed on     1 nodes
     120698 MiB available memory on the printing compute node when the environment starts

     Reading input from /home/jvc/QEspresso7.2/ZnO_database_python/SCFs.in/scf-6.43-1.45.in

     Current dimensions of program PWSCF are:
     Max number of different atomic species (ntypx) = 10
     Max number of k-points (npk) =  40000
     Max angular momentum in pseudopotentials (lmaxx) =  4
     file Zn.upf: wavefunction(s)  3D renormalized

     R & G space division:  proc/nbgrp/npool/nimage =       8
     Subspace diagonalization in iterative solution of the eigenvalue problem:
     a serial algorithm will be used


     Parallelization info
     --------------------
     sticks:   dense  smooth     PW     G-vecs:    dense   smooth      PW
     Min         143      71     20                 5649     2001     326
     Max         145      73     21                 5652     2004     333
     Sum        1147     571    163                45197    16021    2633

     Using Slab Decomposition



     bravais-lattice index     =            4
     lattice parameter (alat)  =       6.4260  a.u.
     unit-cell volume          =     333.8797 (a.u.)^3
     number of atoms/cell      =            4
     number of atomic types    =            2
     number of electrons       =        36.00
     number of Kohn-Sham states=           18
     kinetic-energy cutoff     =      50.0000  Ry
     charge density cutoff     =     400.0000  Ry
     scf convergence threshold =      1.0E-08
     mixing beta               =       0.3000
     number of iterations used =            8  plain     mixing
     Exchange-correlation= PBE
                           (   1   4   3   4   0   0   0)

     celldm(1)=   6.425974  celldm(2)=   0.000000  celldm(3)=   1.452923
     celldm(4)=   0.000000  celldm(5)=   0.000000  celldm(6)=   0.000000

     crystal axes: (cart. coord. in units of alat)
               a(1) = (   1.000000   0.000000   0.000000 )  
               a(2) = (  -0.500000   0.866025   0.000000 )  
               a(3) = (   0.000000   0.000000   1.452923 )  

     reciprocal axes: (cart. coord. in units 2 pi/alat)
               b(1) = (  1.000000  0.577350 -0.000000 )  
               b(2) = (  0.000000  1.154701  0.000000 )  
               b(3) = (  0.000000 -0.000000  0.688268 )  


     PseudoPot. # 1 for Zn read from file:
     /home/jvc/QEspresso7.2/ZnO_database/pseudos/Zn.upf
     MD5 check sum: 7f56cabf9682ed8c977c2f7d0c5985c5
     Pseudo is Ultrasoft + core correction, Zval = 12.0
     Generated using &quot;atomic&quot; code by A. Dal Corso  v.6.2.2
     Using radial grid of 1201 points,  6 beta functions with: 
                l(1) =   0
                l(2) =   0
                l(3) =   1
                l(4) =   1
                l(5) =   2
                l(6) =   2
     Q(r) pseudized with 0 coefficients 


     PseudoPot. # 2 for O  read from file:
     /home/jvc/QEspresso7.2/ZnO_database/pseudos/O.upf
     MD5 check sum: 91400c9766925bcf19f520983a725ff0
     Pseudo is Ultrasoft + core correction, Zval =  6.0
     Generated using &quot;atomic&quot; code by A. Dal Corso  v.6.3MaX
     Using radial grid of 1095 points,  4 beta functions with: 
                l(1) =   0
                l(2) =   0
                l(3) =   1
                l(4) =   1
     Q(r) pseudized with 0 coefficients 


     atomic species   valence    mass     pseudopotential
        Zn            12.00    63.38000     Zn( 1.00)
        O              6.00    15.99900     O ( 1.00)

     12 Sym. Ops. (no inversion) found ( 6 have fractional translation)



   Cartesian axes

     site n.     atom                  positions (alat units)
         1           Zn  tau(   1) = (   0.5000000   0.2886751   0.7273818  )
         2           Zn  tau(   2) = (  -0.0000000   0.5773503   0.0009206  )
         3           O   tau(   3) = (   0.5000000   0.2886751   1.2781017  )
         4           O   tau(   4) = (  -0.0000000   0.5773503   0.5516404  )

     number of k points=    28
                       cart. coord. in units 2pi/alat
        k(    1) = (   0.0000000   0.0000000   0.0000000), wk =   0.0092593
        k(    2) = (   0.0000000   0.0000000   0.1147113), wk =   0.0185185
        k(    3) = (   0.0000000   0.0000000   0.2294226), wk =   0.0185185
        k(    4) = (   0.0000000   0.0000000  -0.3441340), wk =   0.0092593
        k(    5) = (   0.0000000   0.1924501   0.0000000), wk =   0.0555556
        k(    6) = (   0.0000000   0.1924501   0.1147113), wk =   0.1111111
        k(    7) = (   0.0000000   0.1924501   0.2294226), wk =   0.1111111
        k(    8) = (   0.0000000   0.1924501  -0.3441340), wk =   0.0555556
        k(    9) = (   0.0000000   0.3849002   0.0000000), wk =   0.0555556
        k(   10) = (   0.0000000   0.3849002   0.1147113), wk =   0.1111111
        k(   11) = (   0.0000000   0.3849002   0.2294226), wk =   0.1111111
        k(   12) = (   0.0000000   0.3849002  -0.3441340), wk =   0.0555556
        k(   13) = (   0.0000000  -0.5773503   0.0000000), wk =   0.0277778
        k(   14) = (   0.0000000  -0.5773503   0.1147113), wk =   0.0555556
        k(   15) = (   0.0000000  -0.5773503   0.2294226), wk =   0.0555556
        k(   16) = (   0.0000000  -0.5773503  -0.3441340), wk =   0.0277778
        k(   17) = (   0.1666667   0.2886751   0.0000000), wk =   0.0555556
        k(   18) = (   0.1666667   0.2886751   0.1147113), wk =   0.1111111
        k(   19) = (   0.1666667   0.2886751   0.2294226), wk =   0.1111111
        k(   20) = (   0.1666667   0.2886751  -0.3441340), wk =   0.0555556
        k(   21) = (   0.1666667   0.4811252   0.0000000), wk =   0.1111111
        k(   22) = (   0.1666667   0.4811252   0.1147113), wk =   0.2222222
        k(   23) = (   0.1666667   0.4811252   0.2294226), wk =   0.2222222
        k(   24) = (   0.1666667   0.4811252  -0.3441340), wk =   0.1111111
        k(   25) = (   0.3333333   0.5773503   0.0000000), wk =   0.0185185
        k(   26) = (   0.3333333   0.5773503   0.1147113), wk =   0.0370370
        k(   27) = (   0.3333333   0.5773503   0.2294226), wk =   0.0370370
        k(   28) = (   0.3333333   0.5773503  -0.3441340), wk =   0.0185185

     Dense  grid:    45197 G-vectors     FFT dimensions: (  45,  45,  60)

     Smooth grid:    16021 G-vectors     FFT dimensions: (  30,  30,  48)

     Estimated max dynamical RAM per process >      26.33 MB

     Estimated total dynamical RAM >     210.67 MB

     Check: negative core charge=   -0.000002

     Initial potential from superposition of free atoms

     starting charge      35.9925, renormalised to      36.0000
     Starting wfcs are   26 randomized atomic wfcs

     total cpu time spent up to now is        1.5 secs

     Self-consistent Calculation

     iteration #  1     ecut=    50.00 Ry     beta= 0.30
     Davidson diagonalization with overlap
     ethr =  1.00E-02,  avg # of iterations =  1.9

     total cpu time spent up to now is        2.4 secs

     total energy              =    -361.45538625 Ry
     estimated scf accuracy    <       0.71546848 Ry

     iteration #  2     ecut=    50.00 Ry     beta= 0.30
     Davidson diagonalization with overlap
     ethr =  1.99E-03,  avg # of iterations =  2.1

     total cpu time spent up to now is        3.4 secs

     total energy              =    -361.55579606 Ry
     estimated scf accuracy    <       0.09244030 Ry

     iteration #  3     ecut=    50.00 Ry     beta= 0.30
     Davidson diagonalization with overlap
     ethr =  2.57E-04,  avg # of iterations =  6.0

     total cpu time spent up to now is        5.0 secs

     total energy              =    -361.58694535 Ry
     estimated scf accuracy    <       0.06901301 Ry

     iteration #  4     ecut=    50.00 Ry     beta= 0.30
     Davidson diagonalization with overlap
     ethr =  1.92E-04,  avg # of iterations =  7.2

     total cpu time spent up to now is        6.9 secs

     total energy              =    -361.62917627 Ry
     estimated scf accuracy    <       0.16495646 Ry

     iteration #  5     ecut=    50.00 Ry     beta= 0.30
     Davidson diagonalization with overlap
     ethr =  1.92E-04,  avg # of iterations =  1.0

     total cpu time spent up to now is        7.7 secs

     total energy              =    -361.56052319 Ry
     estimated scf accuracy    <       0.09600360 Ry

     iteration #  6     ecut=    50.00 Ry     beta= 0.30
     Davidson diagonalization with overlap
     ethr =  1.92E-04,  avg # of iterations =  6.9

     total cpu time spent up to now is        9.4 secs

     total energy              =    -361.60988041 Ry
     estimated scf accuracy    <       0.16361447 Ry

     iteration #  7     ecut=    50.00 Ry     beta= 0.30
     Davidson diagonalization with overlap
     ethr =  1.92E-04,  avg # of iterations =  2.0

     total cpu time spent up to now is       10.3 secs

     total energy              =    -361.60740713 Ry
     estimated scf accuracy    <       0.06481726 Ry

     iteration #  8     ecut=    50.00 Ry     beta= 0.30
     Davidson diagonalization with overlap
     ethr =  1.80E-04,  avg # of iterations =  2.1

     total cpu time spent up to now is       11.2 secs

     total energy              =    -361.61333928 Ry
     estimated scf accuracy    <       0.02571408 Ry

     iteration #  9     ecut=    50.00 Ry     beta= 0.30
     Davidson diagonalization with overlap
     ethr =  7.14E-05,  avg # of iterations =  3.0

     total cpu time spent up to now is       12.2 secs

     total energy              =    -361.61575436 Ry
     estimated scf accuracy    <       0.01146495 Ry

     iteration # 10     ecut=    50.00 Ry     beta= 0.30
     Davidson diagonalization with overlap
     ethr =  3.18E-05,  avg # of iterations =  4.6

     total cpu time spent up to now is       13.4 secs

     total energy              =    -361.61628212 Ry
     estimated scf accuracy    <       0.00273991 Ry

     iteration # 11     ecut=    50.00 Ry     beta= 0.30
     Davidson diagonalization with overlap
     ethr =  7.61E-06,  avg # of iterations =  7.6

     total cpu time spent up to now is       15.2 secs

     total energy              =    -361.61869673 Ry
     estimated scf accuracy    <       0.00648010 Ry

     iteration # 12     ecut=    50.00 Ry     beta= 0.30
     Davidson diagonalization with overlap
     ethr =  7.61E-06,  avg # of iterations =  2.0

     total cpu time spent up to now is       16.1 secs

     total energy              =    -361.61892084 Ry
     estimated scf accuracy    <       0.00290621 Ry

     iteration # 13     ecut=    50.00 Ry     beta= 0.30
     Davidson diagonalization with overlap
     ethr =  7.61E-06,  avg # of iterations =  1.5

     total cpu time spent up to now is       16.9 secs

     total energy              =    -361.62241814 Ry
     estimated scf accuracy    <       0.00244512 Ry

     iteration # 14     ecut=    50.00 Ry     beta= 0.30
     Davidson diagonalization with overlap
     ethr =  6.79E-06,  avg # of iterations =  4.5

     total cpu time spent up to now is       18.2 secs

     total energy              =    -361.62062726 Ry
     estimated scf accuracy    <       0.01674815 Ry

     iteration # 15     ecut=    50.00 Ry     beta= 0.30
     Davidson diagonalization with overlap
     ethr =  6.79E-06,  avg # of iterations =  2.0

     total cpu time spent up to now is       19.1 secs

     total energy              =    -361.61905436 Ry
     estimated scf accuracy    <       0.01161901 Ry

     iteration # 16     ecut=    50.00 Ry     beta= 0.30
     Davidson diagonalization with overlap
     ethr =  6.79E-06,  avg # of iterations =  2.3

     total cpu time spent up to now is       20.1 secs

     total energy              =    -361.61865095 Ry
     estimated scf accuracy    <       0.00505426 Ry

     iteration # 17     ecut=    50.00 Ry     beta= 0.30
     Davidson diagonalization with overlap
     ethr =  6.79E-06,  avg # of iterations =  1.9

     total cpu time spent up to now is       20.9 secs

     total energy              =    -361.61869625 Ry
     estimated scf accuracy    <       0.00292697 Ry

     iteration # 18     ecut=    50.00 Ry     beta= 0.30
     Davidson diagonalization with overlap
     ethr =  6.79E-06,  avg # of iterations =  1.9

     total cpu time spent up to now is       21.8 secs

     total energy              =    -361.61864799 Ry
     estimated scf accuracy    <       0.00215251 Ry

     iteration # 19     ecut=    50.00 Ry     beta= 0.30
     Davidson diagonalization with overlap
     ethr =  5.98E-06,  avg # of iterations =  1.3

     total cpu time spent up to now is       22.6 secs

     total energy              =    -361.61806745 Ry
     estimated scf accuracy    <       0.00143988 Ry

     iteration # 20     ecut=    50.00 Ry     beta= 0.30
     Davidson diagonalization with overlap
     ethr =  4.00E-06,  avg # of iterations =  5.8

     total cpu time spent up to now is       24.0 secs

     total energy              =    -361.61878902 Ry
     estimated scf accuracy    <       0.00028953 Ry

     iteration # 21     ecut=    50.00 Ry     beta= 0.30
     Davidson diagonalization with overlap
     ethr =  8.04E-07,  avg # of iterations =  3.9

     total cpu time spent up to now is       25.1 secs

     total energy              =    -361.61885186 Ry
     estimated scf accuracy    <       0.00000227 Ry

     iteration # 22     ecut=    50.00 Ry     beta= 0.30
     Davidson diagonalization with overlap
     c_bands:  1 eigenvalues not converged
     ethr =  6.32E-09,  avg # of iterations = 11.1

     total cpu time spent up to now is       27.9 secs

     total energy              =    -361.61885380 Ry
     estimated scf accuracy    <       0.00007024 Ry

     iteration # 23     ecut=    50.00 Ry     beta= 0.30
     Davidson diagonalization with overlap
     ethr =  6.32E-09,  avg # of iterations = 10.5

     total cpu time spent up to now is       30.4 secs

     total energy              =    -361.61887115 Ry
     estimated scf accuracy    <       0.00000205 Ry

     iteration # 24     ecut=    50.00 Ry     beta= 0.30
     Davidson diagonalization with overlap
     ethr =  5.69E-09,  avg # of iterations =  1.5

     total cpu time spent up to now is       31.3 secs

     total energy              =    -361.61886942 Ry
     estimated scf accuracy    <       0.00000302 Ry

     iteration # 25     ecut=    50.00 Ry     beta= 0.30
     Davidson diagonalization with overlap
     ethr =  5.69E-09,  avg # of iterations = 10.2

     total cpu time spent up to now is       33.7 secs

     total energy              =    -361.61888030 Ry
     estimated scf accuracy    <       0.00003761 Ry

     iteration # 26     ecut=    50.00 Ry     beta= 0.30
     Davidson diagonalization with overlap
     ethr =  5.69E-09,  avg # of iterations =  1.2

     total cpu time spent up to now is       34.5 secs

     total energy              =    -361.61888218 Ry
     estimated scf accuracy    <       0.00003812 Ry

     iteration # 27     ecut=    50.00 Ry     beta= 0.30
     Davidson diagonalization with overlap
     ethr =  5.69E-09,  avg # of iterations =  1.1

     total cpu time spent up to now is       35.3 secs

     total energy              =    -361.61887395 Ry
     estimated scf accuracy    <       0.00004235 Ry

     iteration # 28     ecut=    50.00 Ry     beta= 0.30
     Davidson diagonalization with overlap
     ethr =  5.69E-09,  avg # of iterations =  4.7

     total cpu time spent up to now is       36.5 secs

     total energy              =    -361.61887132 Ry
     estimated scf accuracy    <       0.00002014 Ry

     iteration # 29     ecut=    50.00 Ry     beta= 0.30
     Davidson diagonalization with overlap
     ethr =  5.69E-09,  avg # of iterations =  4.4

     total cpu time spent up to now is       37.6 secs

     total energy              =    -361.61886662 Ry
     estimated scf accuracy    <       0.00000996 Ry

     iteration # 30     ecut=    50.00 Ry     beta= 0.30
     Davidson diagonalization with overlap
     ethr =  5.69E-09,  avg # of iterations =  8.3

     total cpu time spent up to now is       39.6 secs

     total energy              =    -361.61887033 Ry
     estimated scf accuracy    <       0.00000178 Ry

     iteration # 31     ecut=    50.00 Ry     beta= 0.30
     Davidson diagonalization with overlap
     ethr =  4.94E-09,  avg # of iterations =  1.1

     total cpu time spent up to now is       40.4 secs

     total energy              =    -361.61887127 Ry
     estimated scf accuracy    <       0.00000085 Ry

     iteration # 32     ecut=    50.00 Ry     beta= 0.30
     Davidson diagonalization with overlap
     ethr =  2.36E-09,  avg # of iterations =  3.8

     total cpu time spent up to now is       41.5 secs

     total energy              =    -361.61887191 Ry
     estimated scf accuracy    <       0.00000333 Ry

     iteration # 33     ecut=    50.00 Ry     beta= 0.30
     Davidson diagonalization with overlap
     ethr =  2.36E-09,  avg # of iterations =  3.1

     total cpu time spent up to now is       42.5 secs

     total energy              =    -361.61887300 Ry
     estimated scf accuracy    <       0.00000525 Ry

     iteration # 34     ecut=    50.00 Ry     beta= 0.30
     Davidson diagonalization with overlap
     ethr =  2.36E-09,  avg # of iterations =  4.9

     total cpu time spent up to now is       43.7 secs

     total energy              =    -361.61887203 Ry
     estimated scf accuracy    <       0.00001050 Ry

     iteration # 35     ecut=    50.00 Ry     beta= 0.30
     Davidson diagonalization with overlap
     ethr =  2.36E-09,  avg # of iterations =  1.5

     total cpu time spent up to now is       44.5 secs

     total energy              =    -361.61887403 Ry
     estimated scf accuracy    <       0.00000827 Ry

     iteration # 36     ecut=    50.00 Ry     beta= 0.30
     Davidson diagonalization with overlap
     ethr =  2.36E-09,  avg # of iterations =  2.3

     total cpu time spent up to now is       45.4 secs

     total energy              =    -361.61887474 Ry
     estimated scf accuracy    <       0.00001226 Ry

     iteration # 37     ecut=    50.00 Ry     beta= 0.30
     Davidson diagonalization with overlap
     ethr =  2.36E-09,  avg # of iterations =  2.6

     total cpu time spent up to now is       46.4 secs

     total energy              =    -361.61887189 Ry
     estimated scf accuracy    <       0.00001562 Ry

     iteration # 38     ecut=    50.00 Ry     beta= 0.30
     Davidson diagonalization with overlap
     ethr =  2.36E-09,  avg # of iterations =  3.8

     total cpu time spent up to now is       47.5 secs

     total energy              =    -361.61886926 Ry
     estimated scf accuracy    <       0.00000904 Ry

     iteration # 39     ecut=    50.00 Ry     beta= 0.30
     Davidson diagonalization with overlap
     ethr =  2.36E-09,  avg # of iterations =  7.1

     total cpu time spent up to now is       49.3 secs

     total energy              =    -361.61887011 Ry
     estimated scf accuracy    <       0.00000051 Ry

     iteration # 40     ecut=    50.00 Ry     beta= 0.30
     Davidson diagonalization with overlap
     ethr =  1.42E-09,  avg # of iterations =  5.1

     total cpu time spent up to now is       50.6 secs

     total energy              =    -361.61887046 Ry
     estimated scf accuracy    <       0.00000014 Ry

     iteration # 41     ecut=    50.00 Ry     beta= 0.30
     Davidson diagonalization with overlap
     ethr =  3.76E-10,  avg # of iterations =  4.6

     total cpu time spent up to now is       51.8 secs

     total energy              =    -361.61887041 Ry
     estimated scf accuracy    <       0.00000055 Ry

     iteration # 42     ecut=    50.00 Ry     beta= 0.30
     Davidson diagonalization with overlap
     ethr =  3.76E-10,  avg # of iterations =  1.1

     total cpu time spent up to now is       52.6 secs

     total energy              =    -361.61887021 Ry
     estimated scf accuracy    <       0.00000037 Ry

     iteration # 43     ecut=    50.00 Ry     beta= 0.30
     Davidson diagonalization with overlap
     ethr =  3.76E-10,  avg # of iterations =  6.8

     total cpu time spent up to now is       54.4 secs

     total energy              =    -361.61887032 Ry
     estimated scf accuracy    <       0.00000007 Ry

     iteration # 44     ecut=    50.00 Ry     beta= 0.30
     Davidson diagonalization with overlap
     ethr =  1.89E-10,  avg # of iterations =  4.3

     total cpu time spent up to now is       55.7 secs

     total energy              =    -361.61887035 Ry
     estimated scf accuracy    <       0.00000001 Ry

     iteration # 45     ecut=    50.00 Ry     beta= 0.30
     Davidson diagonalization with overlap
     ethr =  3.44E-11,  avg # of iterations =  3.4

     total cpu time spent up to now is       56.6 secs

     total energy              =    -361.61887034 Ry
     estimated scf accuracy    <       0.00000001 Ry

     iteration # 46     ecut=    50.00 Ry     beta= 0.30
     Davidson diagonalization with overlap
     ethr =  3.15E-11,  avg # of iterations =  4.5

     total cpu time spent up to now is       57.9 secs

     End of self-consistent calculation

          k = 0.0000 0.0000 0.0000 (  1995 PWs)   bands (ev):

   -11.1198 -10.3045   1.1970   1.2248   1.2248   1.4646   1.4646   1.5566
     2.2085   2.2085   2.4635   2.4635   2.6482   5.6158   5.6158   6.6275
     6.6275   6.7153

          k = 0.0000 0.0000 0.1147 (  1977 PWs)   bands (ev):

   -11.0665 -10.3600   1.1285   1.2272   1.2272   1.2789   1.4325   1.4325
     2.2375   2.2375   2.4610   2.4610   3.1076   5.6878   5.6878   6.1550
     6.5647   6.5647

          k = 0.0000 0.0000 0.2294 (  1995 PWs)   bands (ev):

   -10.9197 -10.5112   0.9749   0.9810   1.2431   1.2431   1.3593   1.3593
     2.3077   2.3077   2.4393   2.4393   3.9103   5.4378   5.8819   5.8819
     6.3889   6.3889

          k = 0.0000 0.0000-0.3441 (  2050 PWs)   bands (ev):

   -10.7167 -10.7167   0.8883   0.8883   1.2871   1.2871   1.2871   1.2871
     2.3843   2.3843   2.3843   2.3843   4.7067   4.7067   6.1399   6.1399
     6.1399   6.1399

          k = 0.0000 0.1925 0.0000 (  2007 PWs)   bands (ev):

   -10.9982 -10.2770   1.0776   1.2827   1.3016   1.4140   1.5687   1.7621
     2.1657   2.2140   2.4815   2.4918   2.7241   4.8497   5.2829   5.5606
     6.4893   6.5237

          k = 0.0000 0.1925 0.1147 (  2005 PWs)   bands (ev):

   -10.9498 -10.3246   1.0261   1.2407   1.2888   1.3164   1.5336   1.5374
     2.2080   2.2404   2.4737   2.4977   3.1867   4.9440   5.3703   5.3828
     6.4145   6.5081

          k = 0.0000 0.1925 0.2294 (  1991 PWs)   bands (ev):

   -10.8175 -10.4558   0.9026   0.9593   1.2903   1.3144   1.4064   1.4528
     2.2984   2.3062   2.4424   2.4652   3.9125   4.9216   5.3564   5.6039
     6.2060   6.2824

          k = 0.0000 0.1925-0.3441 (  1980 PWs)   bands (ev):

   -10.6364 -10.6364   0.8391   0.8391   1.3277   1.3277   1.3704   1.3704
     2.3823   2.3823   2.3946   2.3946   4.4967   4.4967   5.8270   5.8270
     5.9111   5.9111

          k = 0.0000 0.3849 0.0000 (  1996 PWs)   bands (ev):

   -10.7187 -10.2492   0.9669   1.3355   1.3676   1.5025   1.8322   1.9183
     2.2372   2.2938   2.5077   2.5750   2.9130   3.7207   4.5127   4.6062
     5.9683   6.1772

          k = 0.0000 0.3849 0.1147 (  1993 PWs)   bands (ev):

   -10.6845 -10.2771   0.9116   1.2027   1.3866   1.4660   1.7315   1.7844
     2.2391   2.3073   2.4898   2.5762   3.1677   3.9264   4.4830   4.7298
     6.0757   6.0827

          k = 0.0000 0.3849 0.2294 (  2001 PWs)   bands (ev):

   -10.5924 -10.3564   0.7962   0.9155   1.4361   1.4452   1.5539   1.6697
     2.3321   2.3444   2.4472   2.5240   3.4567   3.9327   4.9793   5.0463
     5.8194   6.0878

          k = 0.0000 0.3849-0.3441 (  1994 PWs)   bands (ev):

   -10.4712 -10.4712   0.7611   0.7611   1.4641   1.4641   1.5441   1.5441
     2.3951   2.3951   2.4379   2.4379   3.7065   3.7065   5.4452   5.4452
     5.6892   5.6892

          k = 0.0000-0.5774 0.0000 (  2000 PWs)   bands (ev):

   -10.5327 -10.2770   0.9968   1.3593   1.3918   1.6382   1.7479   2.0017
     2.2715   2.3862   2.5175   2.5510   3.1135   3.5014   4.0085   4.2285
     5.5423   6.0062

          k = 0.0000-0.5774 0.1147 (  1982 PWs)   bands (ev):

   -10.5111 -10.2893   0.9313   1.1762   1.4190   1.6102   1.7030   1.9437
     2.3485   2.3899   2.4895   2.5515   3.0614   3.4197   4.3810   4.3859
     5.7153   5.9028

          k = 0.0000-0.5774 0.2294 (  1996 PWs)   bands (ev):

   -10.4552 -10.3266   0.7953   0.8801   1.5003   1.5803   1.6255   1.7976
     2.4000   2.4461   2.4516   2.5437   3.0669   3.2775   4.7529   5.1073
     5.6146   5.9139

          k = 0.0000-0.5774-0.3441 (  1992 PWs)   bands (ev):

   -10.3862 -10.3862   0.7407   0.7407   1.5809   1.5809   1.6330   1.6330
     2.4177   2.4177   2.5142   2.5142   3.1534   3.1534   5.2020   5.2020
     5.7141   5.7141

          k = 0.1667 0.2887 0.0000 (  1985 PWs)   bands (ev):

   -10.7961 -10.2502   1.0432   1.2333   1.3960   1.4677   1.7606   1.9891
     2.1322   2.2526   2.5013   2.5336   2.8982   4.2081   4.3114   4.9485
     6.1347   6.1485

          k = 0.1667 0.2887 0.1147 (  1988 PWs)   bands (ev):

   -10.7575 -10.2840   0.9838   1.1727   1.3721   1.4224   1.6925   1.7153
     2.1847   2.2934   2.4881   2.5563   3.2565   4.3414   4.4187   4.8918
     6.0353   6.2308

          k = 0.1667 0.2887 0.2294 (  1987 PWs)   bands (ev):

   -10.6529 -10.3787   0.8553   0.9393   1.3567   1.3988   1.5132   1.6117
     2.2960   2.3397   2.4538   2.5111   3.6972   4.2428   5.0256   5.0347
     5.7642   6.1841

          k = 0.1667 0.2887-0.3441 (  1982 PWs)   bands (ev):

   -10.5134 -10.5134   0.8032   0.8032   1.3826   1.3826   1.5130   1.5130
     2.3820   2.3820   2.4334   2.4334   4.0026   4.0026   5.3764   5.3764
     5.7548   5.7548

          k = 0.1667 0.4811 0.0000 (  1999 PWs)   bands (ev):

   -10.5392 -10.2724   1.0864   1.2985   1.4961   1.5707   1.9171   2.0409
     2.2464   2.2852   2.5199   2.6429   2.9581   3.4896   3.9181   4.2666
     5.5225   5.7460

          k = 0.1667 0.4811 0.1147 (  1997 PWs)   bands (ev):

   -10.5170 -10.2854   1.0267   1.2320   1.3962   1.5591   1.8018   1.9482
     2.2472   2.3560   2.5081   2.6479   3.0109   3.5841   3.9435   4.5710
     5.5844   5.7391

          k = 0.1667 0.4811 0.2294 (  1991 PWs)   bands (ev):

   -10.4591 -10.3249   0.8865   0.9737   1.4084   1.5289   1.6795   1.7749
     2.3159   2.3748   2.5206   2.6161   3.1590   3.4945   4.2901   5.1788
     5.3162   5.9452

          k = 0.1667 0.4811-0.3441 (  1990 PWs)   bands (ev):

   -10.3874 -10.3874   0.8304   0.8304   1.4868   1.4868   1.6567   1.6567
     2.3602   2.3602   2.5650   2.5650   3.3297   3.3297   4.7794   4.7794
     5.8003   5.8003

          k = 0.3333 0.5774 0.0000 (  2031 PWs)   bands (ev):

   -10.3668 -10.3668   1.1736   1.3941   1.3941   2.0280   2.0280   2.1518
     2.2234   2.3373   2.4366   2.4366   2.7809   3.3447   3.3447   4.8962
     4.8962   5.3395

          k = 0.3333 0.5774 0.1147 (  2016 PWs)   bands (ev):

   -10.3616 -10.3616   1.2018   1.2849   1.2849   1.9076   1.9076   1.9609
     2.2100   2.3282   2.5489   2.5489   3.0842   3.2943   3.2943   5.1587
     5.1587   5.1873

          k = 0.3333 0.5774 0.2294 (  1995 PWs)   bands (ev):

   -10.3511 -10.3511   1.0600   1.0600   1.2891   1.6707   1.8000   1.8000
     2.2340   2.3033   2.6686   2.6686   3.2324   3.2324   3.6281   4.7792
     5.6324   5.6324

          k = 0.3333 0.5774-0.3441 (  1980 PWs)   bands (ev):

   -10.3458 -10.3458   0.9523   0.9523   1.4433   1.4433   1.7692   1.7692
     2.2690   2.2690   2.7091   2.7091   3.2127   3.2127   4.2235   4.2235
     5.8550   5.8550

     highest occupied level (ev):     6.7153

!    total energy              =    -361.61887034 Ry
     estimated scf accuracy    <          1.6E-09 Ry

     The total energy is the sum of the following terms:
     one-electron contribution =    -157.42707241 Ry
     hartree contribution      =     119.53909694 Ry
     xc contribution           =    -109.53874632 Ry
     ewald contribution        =    -214.19214856 Ry

     convergence has been achieved in  46 iterations

     Forces acting on atoms (cartesian axes, Ry/au):

     atom    1 type  1   force =     0.00000000    0.00000000   -0.04542446
     atom    2 type  1   force =     0.00000000    0.00000000   -0.04542446
     atom    3 type  2   force =     0.00000000    0.00000000    0.04542446
     atom    4 type  2   force =     0.00000000    0.00000000    0.04542446
     The non-local contrib.  to forces
     atom    1 type  1   force =     0.00000000    0.00000000   -0.31138854
     atom    2 type  1   force =    -0.00000000   -0.00000000   -0.31138854
     atom    3 type  2   force =     0.00000000   -0.00000000   -0.23574230
     atom    4 type  2   force =    -0.00000000   -0.00000000   -0.23574230
     The ionic contribution  to forces
     atom    1 type  1   force =    -0.00000000    0.00000000   -2.08969471
     atom    2 type  1   force =     0.00000000   -0.00000000   -2.08969471
     atom    3 type  2   force =    -0.00000000    0.00000000    2.08969471
     atom    4 type  2   force =     0.00000000   -0.00000000    2.08969471
     The local contribution  to forces
     atom    1 type  1   force =    -0.00000002    0.00000001    2.33227189
     atom    2 type  1   force =     0.00000007   -0.00000004    2.33227190
     atom    3 type  2   force =    -0.00000001    0.00000000   -1.81026514
     atom    4 type  2   force =     0.00000002   -0.00000001   -1.81026515
     The core correction contribution to forces
     atom    1 type  1   force =    -0.00000000    0.00000000    0.02337960
     atom    2 type  1   force =     0.00000001   -0.00000001    0.02337960
     atom    3 type  2   force =     0.00000000   -0.00000000    0.00174238
     atom    4 type  2   force =    -0.00000000    0.00000000    0.00174238
     The Hubbard contrib.    to forces
     atom    1 type  1   force =     0.00000000    0.00000000    0.00000000
     atom    2 type  1   force =     0.00000000    0.00000000    0.00000000
     atom    3 type  2   force =     0.00000000    0.00000000    0.00000000
     atom    4 type  2   force =     0.00000000    0.00000000    0.00000000
     The SCF correction term to forces
     atom    1 type  1   force =    -0.00000000    0.00000000    0.00001212
     atom    2 type  1   force =     0.00000000   -0.00000000    0.00001212
     atom    3 type  2   force =    -0.00000000    0.00000000   -0.00000035
     atom    4 type  2   force =     0.00000000   -0.00000000   -0.00000035

     Total force =     0.090849     Total SCF correction =     0.000017


     Computing stress (Cartesian axis) and pressure

          total   stress  (Ry/bohr**3)                   (kbar)     P=        4.89
  -0.00050379  -0.00000000  -0.00000000          -74.11       -0.00       -0.00
  -0.00000000  -0.00050379  -0.00000000           -0.00      -74.11       -0.00
   0.00000000   0.00000000   0.00110722            0.00        0.00      162.88


     Writing all to output data dir ./ZnO_ANN.save/

     init_run     :      1.81s CPU      1.21s WALL (       1 calls)
     electrons    :    150.70s CPU     56.38s WALL (       1 calls)
     forces       :      0.73s CPU      0.35s WALL (       1 calls)
     stress       :      2.36s CPU      1.17s WALL (       1 calls)

     Called by init_run:
     wfcinit      :      1.00s CPU      0.39s WALL (       1 calls)
     potinit      :      0.26s CPU      0.27s WALL (       1 calls)
     hinit0       :      0.42s CPU      0.43s WALL (       1 calls)

     Called by electrons:
     c_bands      :    121.63s CPU     44.95s WALL (      46 calls)
     sum_band     :     21.49s CPU      8.32s WALL (      46 calls)
     v_of_rho     :      1.83s CPU      0.79s WALL (      47 calls)
     newd         :      5.30s CPU      2.15s WALL (      47 calls)
     mix_rho      :      0.31s CPU      0.13s WALL (      46 calls)

     Called by c_bands:
     init_us_2    :      1.92s CPU      0.68s WALL (    2660 calls)
     init_us_2:cp :      1.88s CPU      0.67s WALL (    2660 calls)
     cegterg      :    117.31s CPU     43.29s WALL (    1288 calls)

     Called by *egterg:
     cdiaghg      :     18.43s CPU      6.07s WALL (    6452 calls)
     h_psi        :     81.10s CPU     32.72s WALL (    6480 calls)
     s_psi        :      1.81s CPU      0.54s WALL (    6480 calls)
     g_psi        :      0.60s CPU      0.16s WALL (    5164 calls)

     Called by h_psi:
     h_psi:calbec :      2.84s CPU      1.02s WALL (    6480 calls)
     vloc_psi     :     75.77s CPU     30.90s WALL (    6480 calls)
     add_vuspsi   :      1.81s CPU      0.59s WALL (    6480 calls)

     General routines
     calbec       :      3.65s CPU      1.29s WALL (    7908 calls)
     fft          :      1.21s CPU      0.62s WALL (     634 calls)
     ffts         :      0.19s CPU      0.16s WALL (      93 calls)
     fftw         :     76.06s CPU     31.12s WALL (  174500 calls)
     interpolate  :      0.25s CPU      0.18s WALL (      47 calls)

     Parallel routines

     PWSCF        :   2m36.16s CPU     59.58s WALL


   This run was terminated on:  18:11:14  13Jun2025            

=------------------------------------------------------------------------------=
   JOB DONE.
=------------------------------------------------------------------------------=
Note: The following floating-point exceptions are signalling: IEEE_INVALID_FLAG
