Authorization required, but no authorization protocol specified

Authorization required, but no authorization protocol specified

Authorization required, but no authorization protocol specified

Authorization required, but no authorization protocol specified

Authorization required, but no authorization protocol specified

Authorization required, but no authorization protocol specified

Authorization required, but no authorization protocol specified

Authorization required, but no authorization protocol specified

Authorization required, but no authorization protocol specified

Authorization required, but no authorization protocol specified


     Program PWSCF v.7.2 starts on 13Jun2025 at 16:30: 3 

     This program is part of the open-source Quantum ESPRESSO suite
     for quantum simulation of materials; please cite
         "P. Giannozzi et al., J. Phys.:Condens. Matter 21 395502 (2009);
         "P. Giannozzi et al., J. Phys.:Condens. Matter 29 465901 (2017);
         "P. Giannozzi et al., J. Chem. Phys. 152 154105 (2020);
          URL http://www.quantum-espresso.org", 
     in publications or presentations arising from this work. More details at
     http://www.quantum-espresso.org/quote

     Parallel version (MPI), running on     8 processors

     MPI processes distributed on     1 nodes
     120723 MiB available memory on the printing compute node when the environment starts

     Reading input from /home/jvc/QEspresso7.2/ZnO_database_python/SCFs.in/scf-5.99-1.58.in

     Current dimensions of program PWSCF are:
     Max number of different atomic species (ntypx) = 10
     Max number of k-points (npk) =  40000
     Max angular momentum in pseudopotentials (lmaxx) =  4
     file Zn.upf: wavefunction(s)  3D renormalized

     R & G space division:  proc/nbgrp/npool/nimage =       8
     Subspace diagonalization in iterative solution of the eigenvalue problem:
     a serial algorithm will be used


     Parallelization info
     --------------------
     sticks:   dense  smooth     PW     G-vecs:    dense   smooth      PW
     Min         122      62     18                 4972     1774     300
     Max         123      63     19                 4977     1781     305
     Sum         979     499    151                39799    14221    2429

     Using Slab Decomposition



     bravais-lattice index     =            4
     lattice parameter (alat)  =       5.9935  a.u.
     unit-cell volume          =     294.9774 (a.u.)^3
     number of atoms/cell      =            4
     number of atomic types    =            2
     number of electrons       =        36.00
     number of Kohn-Sham states=           18
     kinetic-energy cutoff     =      50.0000  Ry
     charge density cutoff     =     400.0000  Ry
     scf convergence threshold =      1.0E-08
     mixing beta               =       0.3000
     number of iterations used =            8  plain     mixing
     Exchange-correlation= PBE
                           (   1   4   3   4   0   0   0)

     celldm(1)=   5.993457  celldm(2)=   0.000000  celldm(3)=   1.582071
     celldm(4)=   0.000000  celldm(5)=   0.000000  celldm(6)=   0.000000

     crystal axes: (cart. coord. in units of alat)
               a(1) = (   1.000000   0.000000   0.000000 )  
               a(2) = (  -0.500000   0.866025   0.000000 )  
               a(3) = (   0.000000   0.000000   1.582071 )  

     reciprocal axes: (cart. coord. in units 2 pi/alat)
               b(1) = (  1.000000  0.577350 -0.000000 )  
               b(2) = (  0.000000  1.154701  0.000000 )  
               b(3) = (  0.000000 -0.000000  0.632083 )  


     PseudoPot. # 1 for Zn read from file:
     /home/jvc/QEspresso7.2/ZnO_database/pseudos/Zn.upf
     MD5 check sum: 7f56cabf9682ed8c977c2f7d0c5985c5
     Pseudo is Ultrasoft + core correction, Zval = 12.0
     Generated using &quot;atomic&quot; code by A. Dal Corso  v.6.2.2
     Using radial grid of 1201 points,  6 beta functions with: 
                l(1) =   0
                l(2) =   0
                l(3) =   1
                l(4) =   1
                l(5) =   2
                l(6) =   2
     Q(r) pseudized with 0 coefficients 


     PseudoPot. # 2 for O  read from file:
     /home/jvc/QEspresso7.2/ZnO_database/pseudos/O.upf
     MD5 check sum: 91400c9766925bcf19f520983a725ff0
     Pseudo is Ultrasoft + core correction, Zval =  6.0
     Generated using &quot;atomic&quot; code by A. Dal Corso  v.6.3MaX
     Using radial grid of 1095 points,  4 beta functions with: 
                l(1) =   0
                l(2) =   0
                l(3) =   1
                l(4) =   1
     Q(r) pseudized with 0 coefficients 


     atomic species   valence    mass     pseudopotential
        Zn            12.00    63.38000     Zn( 1.00)
        O              6.00    15.99900     O ( 1.00)

     12 Sym. Ops. (no inversion) found ( 6 have fractional translation)



   Cartesian axes

     site n.     atom                  positions (alat units)
         1           Zn  tau(   1) = (   0.5000000   0.2886751   0.7920380  )
         2           Zn  tau(   2) = (  -0.0000000   0.5773503   0.0010024  )
         3           O   tau(   3) = (   0.5000000   0.2886751   1.3917107  )
         4           O   tau(   4) = (  -0.0000000   0.5773503   0.6006751  )

     number of k points=    28
                       cart. coord. in units 2pi/alat
        k(    1) = (   0.0000000   0.0000000   0.0000000), wk =   0.0092593
        k(    2) = (   0.0000000   0.0000000   0.1053471), wk =   0.0185185
        k(    3) = (   0.0000000   0.0000000   0.2106943), wk =   0.0185185
        k(    4) = (   0.0000000   0.0000000  -0.3160414), wk =   0.0092593
        k(    5) = (   0.0000000   0.1924501   0.0000000), wk =   0.0555556
        k(    6) = (   0.0000000   0.1924501   0.1053471), wk =   0.1111111
        k(    7) = (   0.0000000   0.1924501   0.2106943), wk =   0.1111111
        k(    8) = (   0.0000000   0.1924501  -0.3160414), wk =   0.0555556
        k(    9) = (   0.0000000   0.3849002   0.0000000), wk =   0.0555556
        k(   10) = (   0.0000000   0.3849002   0.1053471), wk =   0.1111111
        k(   11) = (   0.0000000   0.3849002   0.2106943), wk =   0.1111111
        k(   12) = (   0.0000000   0.3849002  -0.3160414), wk =   0.0555556
        k(   13) = (   0.0000000  -0.5773503   0.0000000), wk =   0.0277778
        k(   14) = (   0.0000000  -0.5773503   0.1053471), wk =   0.0555556
        k(   15) = (   0.0000000  -0.5773503   0.2106943), wk =   0.0555556
        k(   16) = (   0.0000000  -0.5773503  -0.3160414), wk =   0.0277778
        k(   17) = (   0.1666667   0.2886751   0.0000000), wk =   0.0555556
        k(   18) = (   0.1666667   0.2886751   0.1053471), wk =   0.1111111
        k(   19) = (   0.1666667   0.2886751   0.2106943), wk =   0.1111111
        k(   20) = (   0.1666667   0.2886751  -0.3160414), wk =   0.0555556
        k(   21) = (   0.1666667   0.4811252   0.0000000), wk =   0.1111111
        k(   22) = (   0.1666667   0.4811252   0.1053471), wk =   0.2222222
        k(   23) = (   0.1666667   0.4811252   0.2106943), wk =   0.2222222
        k(   24) = (   0.1666667   0.4811252  -0.3160414), wk =   0.1111111
        k(   25) = (   0.3333333   0.5773503   0.0000000), wk =   0.0185185
        k(   26) = (   0.3333333   0.5773503   0.1053471), wk =   0.0370370
        k(   27) = (   0.3333333   0.5773503   0.2106943), wk =   0.0370370
        k(   28) = (   0.3333333   0.5773503  -0.3160414), wk =   0.0185185

     Dense  grid:    39799 G-vectors     FFT dimensions: (  40,  40,  64)

     Smooth grid:    14221 G-vectors     FFT dimensions: (  27,  27,  48)

     Estimated max dynamical RAM per process >      23.47 MB

     Estimated total dynamical RAM >     187.80 MB

     Check: negative core charge=   -0.000002

     Initial potential from superposition of free atoms

     starting charge      35.9925, renormalised to      36.0000
     Starting wfcs are   26 randomized atomic wfcs

     total cpu time spent up to now is        1.5 secs

     Self-consistent Calculation

     iteration #  1     ecut=    50.00 Ry     beta= 0.30
     Davidson diagonalization with overlap
     ethr =  1.00E-02,  avg # of iterations =  2.0

     total cpu time spent up to now is        2.3 secs

     total energy              =    -361.46671471 Ry
     estimated scf accuracy    <       0.67429914 Ry

     iteration #  2     ecut=    50.00 Ry     beta= 0.30
     Davidson diagonalization with overlap
     ethr =  1.87E-03,  avg # of iterations =  2.0

     total cpu time spent up to now is        3.3 secs

     total energy              =    -361.53825258 Ry
     estimated scf accuracy    <       0.10865953 Ry

     iteration #  3     ecut=    50.00 Ry     beta= 0.30
     Davidson diagonalization with overlap
     ethr =  3.02E-04,  avg # of iterations =  6.3

     total cpu time spent up to now is        4.8 secs

     total energy              =    -361.58191471 Ry
     estimated scf accuracy    <       0.07570698 Ry

     iteration #  4     ecut=    50.00 Ry     beta= 0.30
     Davidson diagonalization with overlap
     ethr =  2.10E-04,  avg # of iterations =  6.0

     total cpu time spent up to now is        6.3 secs

     total energy              =    -361.64140954 Ry
     estimated scf accuracy    <       0.06144663 Ry

     iteration #  5     ecut=    50.00 Ry     beta= 0.30
     Davidson diagonalization with overlap
     ethr =  1.71E-04,  avg # of iterations =  1.5

     total cpu time spent up to now is        7.1 secs

     total energy              =    -361.60625922 Ry
     estimated scf accuracy    <       0.09077549 Ry

     iteration #  6     ecut=    50.00 Ry     beta= 0.30
     Davidson diagonalization with overlap
     ethr =  1.71E-04,  avg # of iterations =  2.0

     total cpu time spent up to now is        8.0 secs

     total energy              =    -361.59593539 Ry
     estimated scf accuracy    <       0.02885784 Ry

     iteration #  7     ecut=    50.00 Ry     beta= 0.30
     Davidson diagonalization with overlap
     ethr =  8.02E-05,  avg # of iterations =  4.9

     total cpu time spent up to now is        9.3 secs

     total energy              =    -361.61417999 Ry
     estimated scf accuracy    <       0.00556896 Ry

     iteration #  8     ecut=    50.00 Ry     beta= 0.30
     Davidson diagonalization with overlap
     ethr =  1.55E-05,  avg # of iterations =  2.7

     total cpu time spent up to now is       10.2 secs

     total energy              =    -361.61329001 Ry
     estimated scf accuracy    <       0.00779399 Ry

     iteration #  9     ecut=    50.00 Ry     beta= 0.30
     Davidson diagonalization with overlap
     ethr =  1.55E-05,  avg # of iterations =  1.2

     total cpu time spent up to now is       11.0 secs

     total energy              =    -361.61166686 Ry
     estimated scf accuracy    <       0.00504128 Ry

     iteration # 10     ecut=    50.00 Ry     beta= 0.30
     Davidson diagonalization with overlap
     ethr =  1.40E-05,  avg # of iterations =  2.0

     total cpu time spent up to now is       11.9 secs

     total energy              =    -361.61176835 Ry
     estimated scf accuracy    <       0.00131682 Ry

     iteration # 11     ecut=    50.00 Ry     beta= 0.30
     Davidson diagonalization with overlap
     ethr =  3.66E-06,  avg # of iterations =  4.8

     total cpu time spent up to now is       13.1 secs

     total energy              =    -361.61234309 Ry
     estimated scf accuracy    <       0.00000524 Ry

     iteration # 12     ecut=    50.00 Ry     beta= 0.30
     Davidson diagonalization with overlap
     ethr =  1.45E-08,  avg # of iterations = 10.9

     total cpu time spent up to now is       15.5 secs

     total energy              =    -361.61240637 Ry
     estimated scf accuracy    <       0.00005325 Ry

     iteration # 13     ecut=    50.00 Ry     beta= 0.30
     Davidson diagonalization with overlap
     ethr =  1.45E-08,  avg # of iterations =  5.4

     total cpu time spent up to now is       16.9 secs

     total energy              =    -361.61239934 Ry
     estimated scf accuracy    <       0.00001261 Ry

     iteration # 14     ecut=    50.00 Ry     beta= 0.30
     Davidson diagonalization with overlap
     ethr =  1.45E-08,  avg # of iterations =  8.9

     total cpu time spent up to now is       19.0 secs

     total energy              =    -361.61243927 Ry
     estimated scf accuracy    <       0.00003490 Ry

     iteration # 15     ecut=    50.00 Ry     beta= 0.30
     Davidson diagonalization with overlap
     ethr =  1.45E-08,  avg # of iterations =  7.4

     total cpu time spent up to now is       20.7 secs

     total energy              =    -361.61242611 Ry
     estimated scf accuracy    <       0.00014314 Ry

     iteration # 16     ecut=    50.00 Ry     beta= 0.30
     Davidson diagonalization with overlap
     ethr =  1.45E-08,  avg # of iterations =  3.6

     total cpu time spent up to now is       21.7 secs

     total energy              =    -361.61240917 Ry
     estimated scf accuracy    <       0.00009629 Ry

     iteration # 17     ecut=    50.00 Ry     beta= 0.30
     Davidson diagonalization with overlap
     ethr =  1.45E-08,  avg # of iterations =  6.2

     total cpu time spent up to now is       23.3 secs

     total energy              =    -361.61240875 Ry
     estimated scf accuracy    <       0.00002961 Ry

     iteration # 18     ecut=    50.00 Ry     beta= 0.30
     Davidson diagonalization with overlap
     ethr =  1.45E-08,  avg # of iterations =  2.8

     total cpu time spent up to now is       24.2 secs

     total energy              =    -361.61240228 Ry
     estimated scf accuracy    <       0.00001759 Ry

     iteration # 19     ecut=    50.00 Ry     beta= 0.30
     Davidson diagonalization with overlap
     ethr =  1.45E-08,  avg # of iterations =  6.3

     total cpu time spent up to now is       25.7 secs

     total energy              =    -361.61240913 Ry
     estimated scf accuracy    <       0.00000003 Ry

     iteration # 20     ecut=    50.00 Ry     beta= 0.30
     Davidson diagonalization with overlap
     c_bands:  1 eigenvalues not converged
     c_bands:  1 eigenvalues not converged
     c_bands:  1 eigenvalues not converged
     ethr =  8.12E-11,  avg # of iterations = 16.4

     total cpu time spent up to now is       29.4 secs

     total energy              =    -361.61240229 Ry
     estimated scf accuracy    <       0.00002537 Ry

     iteration # 21     ecut=    50.00 Ry     beta= 0.30
     Davidson diagonalization with overlap
     c_bands:  1 eigenvalues not converged
     c_bands:  1 eigenvalues not converged
     c_bands:  1 eigenvalues not converged
     ethr =  8.12E-11,  avg # of iterations = 15.6

     total cpu time spent up to now is       33.0 secs

     End of self-consistent calculation

          k = 0.0000 0.0000 0.0000 (  1785 PWs)   bands (ev):

   -10.1996  -9.3043   2.3227   2.4836   2.4836   2.5290   2.7179   2.7179
     3.9250   3.9250   4.1978   4.1978   4.4883   7.6643   7.6643   8.5435
     8.6128   8.6128

          k = 0.0000 0.0000 0.1053 (  1767 PWs)   bands (ev):

   -10.1431  -9.3678   2.2288   2.4564   2.4909   2.4909   2.6927   2.6927
     3.9511   3.9511   4.1888   4.1888   4.8057   7.7289   7.7289   8.0087
     8.5510   8.5510

          k = 0.0000 0.0000 0.2107 (  1756 PWs)   bands (ev):

    -9.9861  -9.5386   2.1170   2.2896   2.5167   2.5167   2.6321   2.6321
     4.0167   4.0167   4.1555   4.1555   5.5325   7.2156   7.9052   7.9052
     8.3804   8.3804

          k = 0.0000 0.0000-0.3160 (  1798 PWs)   bands (ev):

    -9.7659  -9.7659   2.1419   2.1419   2.5655   2.5655   2.5655   2.5655
     4.0934   4.0934   4.0934   4.0934   6.3807   6.3807   8.1441   8.1441
     8.1441   8.1441

          k = 0.0000 0.1925 0.0000 (  1762 PWs)   bands (ev):

   -10.0293  -9.2364   2.2740   2.5468   2.5734   2.6070   2.7542   2.8544
     3.8515   3.9242   4.2143   4.2662   4.4871   6.7292   7.2750   7.5107
     8.3304   8.4055

          k = 0.0000 0.1925 0.1053 (  1764 PWs)   bands (ev):

    -9.9781  -9.2912   2.2223   2.3581   2.5840   2.6154   2.7492   2.8257
     3.8925   3.9488   4.2005   4.2403   4.8454   6.8036   7.3385   7.3539
     8.2580   8.3326

          k = 0.0000 0.1925 0.2107 (  1760 PWs)   bands (ev):

    -9.8367  -9.4398   2.0934   2.1526   2.6117   2.6184   2.7012   2.7563
     3.9875   4.0120   4.1582   4.1845   5.5844   6.8307   7.1521   7.5670
     7.9597   8.1315

          k = 0.0000 0.1925-0.3160 (  1758 PWs)   bands (ev):

    -9.6401  -9.6401   2.0522   2.0522   2.6438   2.6438   2.6789   2.6789
     4.0902   4.0902   4.0955   4.0955   6.3128   6.3128   7.5094   7.5094
     7.8522   7.8522

          k = 0.0000 0.3849 0.0000 (  1760 PWs)   bands (ev):

    -9.6424  -9.1269   2.0566   2.4710   2.7179   2.8749   3.1923   3.2229
     3.8060   4.0182   4.2399   4.2624   4.6687   5.2674   6.2757   6.4668
     7.7152   7.9465

          k = 0.0000 0.3849 0.1053 (  1763 PWs)   bands (ev):

    -9.6064  -9.1594   2.0098   2.3221   2.7408   2.8497   3.0976   3.1487
     3.8655   4.0317   4.2212   4.3153   4.8812   5.4302   6.2156   6.5789
     7.7512   7.8547

          k = 0.0000 0.3849 0.2107 (  1761 PWs)   bands (ev):

    -9.5089  -9.2502   1.9192   2.0533   2.8085   2.8336   2.9573   3.0407
     3.9955   4.0689   4.1759   4.2562   5.2158   5.6462   6.4413   6.8704
     7.6010   7.6342

          k = 0.0000 0.3849-0.3160 (  1764 PWs)   bands (ev):

    -9.3779  -9.3779   1.9050   1.9050   2.8694   2.8694   2.9148   2.9148
     4.1205   4.1205   4.1368   4.1368   5.4760   5.4760   7.1366   7.1366
     7.2445   7.2445

          k = 0.0000-0.5774 0.0000 (  1766 PWs)   bands (ev):

    -9.3925  -9.1174   2.1414   2.2872   2.7649   3.0657   3.2203   3.4146
     3.9605   4.1392   4.2562   4.3342   4.8242   4.8370   5.5545   6.0029
     7.2239   7.6914

          k = 0.0000-0.5774 0.1053 (  1744 PWs)   bands (ev):

    -9.3708  -9.1321   2.0725   2.1686   2.7967   3.0330   3.1766   3.3541
     4.0426   4.1430   4.2363   4.3339   4.7749   4.8056   5.8834   6.1420
     7.3258   7.5908

          k = 0.0000-0.5774 0.2107 (  1768 PWs)   bands (ev):

    -9.3136  -9.1754   1.9328   1.9593   2.8887   3.0099   3.0942   3.2047
     4.1533   4.1744   4.2000   4.3195   4.7259   4.7658   6.4884   6.5526
     7.3113   7.4154

          k = 0.0000-0.5774-0.3160 (  1780 PWs)   bands (ev):

    -9.2410  -9.2410   1.8649   1.8649   3.0321   3.0321   3.0328   3.0328
     4.1717   4.1717   4.2702   4.2702   4.7309   4.7309   6.9147   6.9147
     7.1590   7.1590

          k = 0.1667 0.2887 0.0000 (  1769 PWs)   bands (ev):

    -9.7488  -9.1483   2.1912   2.4360   2.7222   2.7688   3.0797   3.1093
     3.7890   3.9470   4.2307   4.2892   4.6361   5.8509   6.1891   6.7646
     7.9083   7.9332

          k = 0.1667 0.2887 0.1053 (  1771 PWs)   bands (ev):

    -9.7080  -9.1875   2.1391   2.3286   2.7068   2.7301   2.9727   3.0718
     3.8450   3.9934   4.2145   4.3099   4.9374   5.9866   6.2168   6.7228
     7.8114   7.9369

          k = 0.1667 0.2887 0.2107 (  1764 PWs)   bands (ev):

    -9.5968  -9.2956   2.0293   2.0959   2.6961   2.7155   2.8909   2.9836
     3.9740   4.0501   4.1721   4.2450   5.4836   6.1206   6.4618   6.8401
     7.5510   7.7505

          k = 0.1667 0.2887-0.3160 (  1740 PWs)   bands (ev):

    -9.4454  -9.4454   1.9823   1.9823   2.7102   2.7102   2.9009   2.9009
     4.0975   4.0975   4.1366   4.1366   5.8591   5.8591   7.0801   7.0801
     7.2932   7.2932

          k = 0.1667 0.4811 0.0000 (  1756 PWs)   bands (ev):

    -9.4028  -9.1117   2.2530   2.5041   2.7398   2.9518   3.3214   3.4317
     3.8898   3.9619   4.2659   4.3957   4.5909   5.1891   5.4631   5.8583
     7.1715   7.3970

          k = 0.1667 0.4811 0.1053 (  1764 PWs)   bands (ev):

    -9.3802  -9.1276   2.1943   2.3874   2.7243   2.9253   3.2347   3.3364
     3.9072   4.0721   4.2579   4.4673   4.5878   5.2550   5.5532   6.0641
     7.1609   7.3953

          k = 0.1667 0.4811 0.2107 (  1758 PWs)   bands (ev):

    -9.3203  -9.1740   2.0687   2.1503   2.7492   2.8831   3.1356   3.1939
     4.0114   4.1112   4.2680   4.4154   4.7714   5.1575   5.9312   6.5823
     6.9210   7.4584

          k = 0.1667 0.4811-0.3160 (  1766 PWs)   bands (ev):

    -9.2437  -9.2437   2.0224   2.0224   2.8222   2.8222   3.1135   3.1135
     4.0889   4.0889   4.3253   4.3253   4.9789   4.9789   6.3900   6.3900
     7.2348   7.2348

          k = 0.3333 0.5774 0.0000 (  1755 PWs)   bands (ev):

    -9.1939  -9.1939   2.3964   2.7887   2.7887   3.1360   3.5253   3.5253
     3.8298   3.9874   3.9874   4.0156   4.5885   5.0085   5.0085   6.5241
     6.5241   6.7415

          k = 0.3333 0.5774 0.1053 (  1749 PWs)   bands (ev):

    -9.1898  -9.1898   2.4243   2.6515   2.6515   3.0349   3.4147   3.4147
     3.8521   4.0057   4.1847   4.1847   4.7584   4.9581   4.9581   6.5951
     6.7150   6.7150

          k = 0.3333 0.5774 0.2107 (  1758 PWs)   bands (ev):

    -9.1815  -9.1815   2.4031   2.4031   2.5081   2.8354   3.3318   3.3318
     3.8932   3.9775   4.4407   4.4407   4.8514   4.8514   5.1738   6.2078
     7.0862   7.0862

          k = 0.3333 0.5774-0.3160 (  1770 PWs)   bands (ev):

    -9.1774  -9.1774   2.2924   2.2924   2.6476   2.6476   3.3093   3.3093
     3.9373   3.9373   4.5716   4.5716   4.7699   4.7699   5.6948   5.6948
     7.2694   7.2694

     highest occupied level (ev):     8.6128

!    total energy              =    -361.61240701 Ry
     estimated scf accuracy    <          9.4E-09 Ry

     The total energy is the sum of the following terms:
     one-electron contribution =    -141.63372603 Ry
     hartree contribution      =     113.79133119 Ry
     xc contribution           =    -109.79089322 Ry
     ewald contribution        =    -223.97911894 Ry

     convergence has been achieved in  21 iterations

     Forces acting on atoms (cartesian axes, Ry/au):

     atom    1 type  1   force =     0.00000000    0.00000000   -0.01158191
     atom    2 type  1   force =     0.00000000    0.00000000   -0.01158191
     atom    3 type  2   force =     0.00000000   -0.00000000    0.01158191
     atom    4 type  2   force =     0.00000000    0.00000000    0.01158191
     The non-local contrib.  to forces
     atom    1 type  1   force =     0.00000000    0.00000000   -0.06661961
     atom    2 type  1   force =    -0.00000000    0.00000000   -0.06661961
     atom    3 type  2   force =     0.00000000    0.00000000   -0.04177825
     atom    4 type  2   force =    -0.00000000   -0.00000000   -0.04177825
     The ionic contribution  to forces
     atom    1 type  1   force =    -0.00000000    0.00000000   -0.38073607
     atom    2 type  1   force =     0.00000000   -0.00000000   -0.38073607
     atom    3 type  2   force =    -0.00000000    0.00000000    0.38073607
     atom    4 type  2   force =     0.00000000   -0.00000000    0.38073607
     The local contribution  to forces
     atom    1 type  1   force =    -0.00000002    0.00000001    0.43024385
     atom    2 type  1   force =     0.00000006   -0.00000004    0.43024385
     atom    3 type  2   force =    -0.00000001    0.00000000   -0.32771961
     atom    4 type  2   force =     0.00000002   -0.00000001   -0.32771963
     The core correction contribution to forces
     atom    1 type  1   force =    -0.00000000    0.00000000    0.00560755
     atom    2 type  1   force =     0.00000001   -0.00000000    0.00560755
     atom    3 type  2   force =     0.00000000   -0.00000000    0.00027263
     atom    4 type  2   force =    -0.00000000    0.00000000    0.00027263
     The Hubbard contrib.    to forces
     atom    1 type  1   force =     0.00000000    0.00000000    0.00000000
     atom    2 type  1   force =     0.00000000    0.00000000    0.00000000
     atom    3 type  2   force =     0.00000000    0.00000000    0.00000000
     atom    4 type  2   force =     0.00000000    0.00000000    0.00000000
     The SCF correction term to forces
     atom    1 type  1   force =    -0.00000000    0.00000000   -0.00012172
     atom    2 type  1   force =     0.00000000   -0.00000000   -0.00012172
     atom    3 type  2   force =    -0.00000000    0.00000000    0.00002699
     atom    4 type  2   force =     0.00000000   -0.00000000    0.00002699

     Total force =     0.023164     Total SCF correction =     0.000176


     Computing stress (Cartesian axis) and pressure

          total   stress  (Ry/bohr**3)                   (kbar)     P=      191.66
   0.00115980   0.00000000   0.00000000          170.61        0.00        0.00
   0.00000000   0.00115980   0.00000000            0.00      170.61        0.00
   0.00000000   0.00000000   0.00158896            0.00        0.00      233.74


     Writing all to output data dir ./ZnO_ANN.save/

     init_run     :      1.74s CPU      1.16s WALL (       1 calls)
     electrons    :     84.10s CPU     31.48s WALL (       1 calls)
     forces       :      0.64s CPU      0.32s WALL (       1 calls)
     stress       :      2.07s CPU      1.02s WALL (       1 calls)

     Called by init_run:
     wfcinit      :      0.95s CPU      0.37s WALL (       1 calls)
     potinit      :      0.21s CPU      0.21s WALL (       1 calls)
     hinit0       :      0.45s CPU      0.47s WALL (       1 calls)

     Called by electrons:
     c_bands      :     72.32s CPU     26.76s WALL (      21 calls)
     sum_band     :      8.77s CPU      3.49s WALL (      21 calls)
     v_of_rho     :      0.67s CPU      0.30s WALL (      22 calls)
     newd         :      2.22s CPU      0.90s WALL (      22 calls)
     mix_rho      :      0.11s CPU      0.05s WALL (      21 calls)

     Called by c_bands:
     init_us_2    :      0.81s CPU      0.28s WALL (    1260 calls)
     init_us_2:cp :      0.80s CPU      0.28s WALL (    1260 calls)
     cegterg      :     70.50s CPU     26.09s WALL (     588 calls)

     Called by *egterg:
     cdiaghg      :     11.66s CPU      3.90s WALL (    3916 calls)
     h_psi        :     48.29s CPU     19.46s WALL (    3944 calls)
     s_psi        :      1.04s CPU      0.32s WALL (    3944 calls)
     g_psi        :      0.36s CPU      0.10s WALL (    3328 calls)

     Called by h_psi:
     h_psi:calbec :      1.58s CPU      0.59s WALL (    3944 calls)
     vloc_psi     :     45.31s CPU     18.42s WALL (    3944 calls)
     add_vuspsi   :      1.00s CPU      0.34s WALL (    3944 calls)

     General routines
     calbec       :      1.95s CPU      0.71s WALL (    4672 calls)
     fft          :      0.61s CPU      0.40s WALL (     309 calls)
     ffts         :      0.12s CPU      0.11s WALL (      43 calls)
     fftw         :     44.56s CPU     18.20s WALL (  105724 calls)
     interpolate  :      0.14s CPU      0.11s WALL (      22 calls)

     Parallel routines

     PWSCF        :   1m29.09s CPU     34.44s WALL


   This run was terminated on:  16:30:38  13Jun2025            

=------------------------------------------------------------------------------=
   JOB DONE.
=------------------------------------------------------------------------------=
Note: The following floating-point exceptions are signalling: IEEE_INVALID_FLAG
