Authorization required, but no authorization protocol specified

Authorization required, but no authorization protocol specified

Authorization required, but no authorization protocol specified

Authorization required, but no authorization protocol specified

Authorization required, but no authorization protocol specified

Authorization required, but no authorization protocol specified

Authorization required, but no authorization protocol specified

Authorization required, but no authorization protocol specified

Authorization required, but no authorization protocol specified

Authorization required, but no authorization protocol specified


     Program PWSCF v.7.2 starts on 13Jun2025 at 15:18:27 

     This program is part of the open-source Quantum ESPRESSO suite
     for quantum simulation of materials; please cite
         "P. Giannozzi et al., J. Phys.:Condens. Matter 21 395502 (2009);
         "P. Giannozzi et al., J. Phys.:Condens. Matter 29 465901 (2017);
         "P. Giannozzi et al., J. Chem. Phys. 152 154105 (2020);
          URL http://www.quantum-espresso.org", 
     in publications or presentations arising from this work. More details at
     http://www.quantum-espresso.org/quote

     Parallel version (MPI), running on     8 processors

     MPI processes distributed on     1 nodes
     120661 MiB available memory on the printing compute node when the environment starts

     Reading input from /home/jvc/QEspresso7.2/ZnO_database_python/SCFs.in/scf-5.56-1.63.in

     Current dimensions of program PWSCF are:
     Max number of different atomic species (ntypx) = 10
     Max number of k-points (npk) =  40000
     Max angular momentum in pseudopotentials (lmaxx) =  4
     file Zn.upf: wavefunction(s)  3D renormalized

     R & G space division:  proc/nbgrp/npool/nimage =       8
     Subspace diagonalization in iterative solution of the eigenvalue problem:
     a serial algorithm will be used


     Parallelization info
     --------------------
     sticks:   dense  smooth     PW     G-vecs:    dense   smooth      PW
     Min         105      53     15                 4087     1449     245
     Max         106      55     16                 4096     1452     252
     Sum         847     433    127                32751    11597    1985

     Using Slab Decomposition



     bravais-lattice index     =            4
     lattice parameter (alat)  =       5.5609  a.u.
     unit-cell volume          =     242.8267 (a.u.)^3
     number of atoms/cell      =            4
     number of atomic types    =            2
     number of electrons       =        36.00
     number of Kohn-Sham states=           18
     kinetic-energy cutoff     =      50.0000  Ry
     charge density cutoff     =     400.0000  Ry
     scf convergence threshold =      1.0E-08
     mixing beta               =       0.3000
     number of iterations used =            8  plain     mixing
     Exchange-correlation= PBE
                           (   1   4   3   4   0   0   0)

     celldm(1)=   5.560939  celldm(2)=   0.000000  celldm(3)=   1.630502
     celldm(4)=   0.000000  celldm(5)=   0.000000  celldm(6)=   0.000000

     crystal axes: (cart. coord. in units of alat)
               a(1) = (   1.000000   0.000000   0.000000 )  
               a(2) = (  -0.500000   0.866025   0.000000 )  
               a(3) = (   0.000000   0.000000   1.630502 )  

     reciprocal axes: (cart. coord. in units 2 pi/alat)
               b(1) = (  1.000000  0.577350 -0.000000 )  
               b(2) = (  0.000000  1.154701  0.000000 )  
               b(3) = (  0.000000 -0.000000  0.613308 )  


     PseudoPot. # 1 for Zn read from file:
     /home/jvc/QEspresso7.2/ZnO_database/pseudos/Zn.upf
     MD5 check sum: 7f56cabf9682ed8c977c2f7d0c5985c5
     Pseudo is Ultrasoft + core correction, Zval = 12.0
     Generated using &quot;atomic&quot; code by A. Dal Corso  v.6.2.2
     Using radial grid of 1201 points,  6 beta functions with: 
                l(1) =   0
                l(2) =   0
                l(3) =   1
                l(4) =   1
                l(5) =   2
                l(6) =   2
     Q(r) pseudized with 0 coefficients 


     PseudoPot. # 2 for O  read from file:
     /home/jvc/QEspresso7.2/ZnO_database/pseudos/O.upf
     MD5 check sum: 91400c9766925bcf19f520983a725ff0
     Pseudo is Ultrasoft + core correction, Zval =  6.0
     Generated using &quot;atomic&quot; code by A. Dal Corso  v.6.3MaX
     Using radial grid of 1095 points,  4 beta functions with: 
                l(1) =   0
                l(2) =   0
                l(3) =   1
                l(4) =   1
     Q(r) pseudized with 0 coefficients 


     atomic species   valence    mass     pseudopotential
        Zn            12.00    63.38000     Zn( 1.00)
        O              6.00    15.99900     O ( 1.00)

     12 Sym. Ops. (no inversion) found ( 6 have fractional translation)



   Cartesian axes

     site n.     atom                  positions (alat units)
         1           Zn  tau(   1) = (   0.5000000   0.2886751   0.8162840  )
         2           Zn  tau(   2) = (  -0.0000000   0.5773503   0.0010331  )
         3           O   tau(   3) = (   0.5000000   0.2886751   1.4343141  )
         4           O   tau(   4) = (  -0.0000000   0.5773503   0.6190631  )

     number of k points=    28
                       cart. coord. in units 2pi/alat
        k(    1) = (   0.0000000   0.0000000   0.0000000), wk =   0.0092593
        k(    2) = (   0.0000000   0.0000000   0.1022180), wk =   0.0185185
        k(    3) = (   0.0000000   0.0000000   0.2044360), wk =   0.0185185
        k(    4) = (   0.0000000   0.0000000  -0.3066540), wk =   0.0092593
        k(    5) = (   0.0000000   0.1924501   0.0000000), wk =   0.0555556
        k(    6) = (   0.0000000   0.1924501   0.1022180), wk =   0.1111111
        k(    7) = (   0.0000000   0.1924501   0.2044360), wk =   0.1111111
        k(    8) = (   0.0000000   0.1924501  -0.3066540), wk =   0.0555556
        k(    9) = (   0.0000000   0.3849002   0.0000000), wk =   0.0555556
        k(   10) = (   0.0000000   0.3849002   0.1022180), wk =   0.1111111
        k(   11) = (   0.0000000   0.3849002   0.2044360), wk =   0.1111111
        k(   12) = (   0.0000000   0.3849002  -0.3066540), wk =   0.0555556
        k(   13) = (   0.0000000  -0.5773503   0.0000000), wk =   0.0277778
        k(   14) = (   0.0000000  -0.5773503   0.1022180), wk =   0.0555556
        k(   15) = (   0.0000000  -0.5773503   0.2044360), wk =   0.0555556
        k(   16) = (   0.0000000  -0.5773503  -0.3066540), wk =   0.0277778
        k(   17) = (   0.1666667   0.2886751   0.0000000), wk =   0.0555556
        k(   18) = (   0.1666667   0.2886751   0.1022180), wk =   0.1111111
        k(   19) = (   0.1666667   0.2886751   0.2044360), wk =   0.1111111
        k(   20) = (   0.1666667   0.2886751  -0.3066540), wk =   0.0555556
        k(   21) = (   0.1666667   0.4811252   0.0000000), wk =   0.1111111
        k(   22) = (   0.1666667   0.4811252   0.1022180), wk =   0.2222222
        k(   23) = (   0.1666667   0.4811252   0.2044360), wk =   0.2222222
        k(   24) = (   0.1666667   0.4811252  -0.3066540), wk =   0.1111111
        k(   25) = (   0.3333333   0.5773503   0.0000000), wk =   0.0185185
        k(   26) = (   0.3333333   0.5773503   0.1022180), wk =   0.0370370
        k(   27) = (   0.3333333   0.5773503   0.2044360), wk =   0.0370370
        k(   28) = (   0.3333333   0.5773503  -0.3066540), wk =   0.0185185

     Dense  grid:    32751 G-vectors     FFT dimensions: (  36,  36,  60)

     Smooth grid:    11597 G-vectors     FFT dimensions: (  25,  25,  48)

     Estimated max dynamical RAM per process >      19.88 MB

     Estimated total dynamical RAM >     159.03 MB

     Check: negative core charge=   -0.000001

     Initial potential from superposition of free atoms

     starting charge      35.9925, renormalised to      36.0000
     Starting wfcs are   26 randomized atomic wfcs

     total cpu time spent up to now is        1.3 secs

     Self-consistent Calculation

     iteration #  1     ecut=    50.00 Ry     beta= 0.30
     Davidson diagonalization with overlap
     ethr =  1.00E-02,  avg # of iterations =  2.1

     total cpu time spent up to now is        2.0 secs

     total energy              =    -361.31850370 Ry
     estimated scf accuracy    <       0.68114487 Ry

     iteration #  2     ecut=    50.00 Ry     beta= 0.30
     Davidson diagonalization with overlap
     ethr =  1.89E-03,  avg # of iterations =  2.0

     total cpu time spent up to now is        2.7 secs

     total energy              =    -361.34606775 Ry
     estimated scf accuracy    <       0.14702107 Ry

     iteration #  3     ecut=    50.00 Ry     beta= 0.30
     Davidson diagonalization with overlap
     ethr =  4.08E-04,  avg # of iterations =  6.1

     total cpu time spent up to now is        3.9 secs

     total energy              =    -361.43880664 Ry
     estimated scf accuracy    <       0.09589286 Ry

     iteration #  4     ecut=    50.00 Ry     beta= 0.30
     Davidson diagonalization with overlap
     ethr =  2.66E-04,  avg # of iterations =  2.0

     total cpu time spent up to now is        4.5 secs

     total energy              =    -361.43423931 Ry
     estimated scf accuracy    <       0.03004695 Ry

     iteration #  5     ecut=    50.00 Ry     beta= 0.30
     Davidson diagonalization with overlap
     ethr =  8.35E-05,  avg # of iterations =  9.2

     total cpu time spent up to now is        6.3 secs

     total energy              =    -361.48720551 Ry
     estimated scf accuracy    <       0.50464926 Ry

     iteration #  6     ecut=    50.00 Ry     beta= 0.30
     Davidson diagonalization with overlap
     ethr =  8.35E-05,  avg # of iterations =  5.4

     total cpu time spent up to now is        7.3 secs

     total energy              =    -361.40626271 Ry
     estimated scf accuracy    <       0.20160793 Ry

     iteration #  7     ecut=    50.00 Ry     beta= 0.30
     Davidson diagonalization with overlap
     ethr =  8.35E-05,  avg # of iterations =  6.9

     total cpu time spent up to now is        8.7 secs

     total energy              =    -361.44564122 Ry
     estimated scf accuracy    <       0.00028327 Ry

     iteration #  8     ecut=    50.00 Ry     beta= 0.30
     Davidson diagonalization with overlap
     ethr =  7.87E-07,  avg # of iterations = 10.0

     total cpu time spent up to now is       10.4 secs

     total energy              =    -361.44665830 Ry
     estimated scf accuracy    <       0.00294764 Ry

     iteration #  9     ecut=    50.00 Ry     beta= 0.30
     Davidson diagonalization with overlap
     ethr =  7.87E-07,  avg # of iterations =  3.8

     total cpu time spent up to now is       11.3 secs

     total energy              =    -361.44580283 Ry
     estimated scf accuracy    <       0.00131403 Ry

     iteration # 10     ecut=    50.00 Ry     beta= 0.30
     Davidson diagonalization with overlap
     ethr =  7.87E-07,  avg # of iterations =  8.2

     total cpu time spent up to now is       12.9 secs

     total energy              =    -361.44637500 Ry
     estimated scf accuracy    <       0.00097076 Ry

     iteration # 11     ecut=    50.00 Ry     beta= 0.30
     Davidson diagonalization with overlap
     ethr =  7.87E-07,  avg # of iterations =  3.8

     total cpu time spent up to now is       13.7 secs

     total energy              =    -361.44643598 Ry
     estimated scf accuracy    <       0.00017877 Ry

     iteration # 12     ecut=    50.00 Ry     beta= 0.30
     Davidson diagonalization with overlap
     ethr =  4.97E-07,  avg # of iterations =  2.6

     total cpu time spent up to now is       14.4 secs

     total energy              =    -361.44642099 Ry
     estimated scf accuracy    <       0.00008075 Ry

     iteration # 13     ecut=    50.00 Ry     beta= 0.30
     Davidson diagonalization with overlap
     ethr =  2.24E-07,  avg # of iterations =  4.3

     total cpu time spent up to now is       15.3 secs

     total energy              =    -361.44645391 Ry
     estimated scf accuracy    <       0.00000013 Ry

     iteration # 14     ecut=    50.00 Ry     beta= 0.30
     Davidson diagonalization with overlap
     c_bands:  1 eigenvalues not converged
     ethr =  3.51E-10,  avg # of iterations = 14.0

     total cpu time spent up to now is       17.8 secs

     total energy              =    -361.44645960 Ry
     estimated scf accuracy    <       0.00003120 Ry

     iteration # 15     ecut=    50.00 Ry     beta= 0.30
     Davidson diagonalization with overlap
     ethr =  3.51E-10,  avg # of iterations =  9.4

     total cpu time spent up to now is       19.6 secs

     total energy              =    -361.44645641 Ry
     estimated scf accuracy    <       0.00001452 Ry

     iteration # 16     ecut=    50.00 Ry     beta= 0.30
     Davidson diagonalization with overlap
     ethr =  3.51E-10,  avg # of iterations =  9.4

     total cpu time spent up to now is       21.3 secs

     total energy              =    -361.44645571 Ry
     estimated scf accuracy    <       0.00000376 Ry

     iteration # 17     ecut=    50.00 Ry     beta= 0.30
     Davidson diagonalization with overlap
     ethr =  3.51E-10,  avg # of iterations =  8.2

     total cpu time spent up to now is       22.8 secs

     total energy              =    -361.44645591 Ry
     estimated scf accuracy    <       0.00000034 Ry

     iteration # 18     ecut=    50.00 Ry     beta= 0.30
     Davidson diagonalization with overlap
     ethr =  3.51E-10,  avg # of iterations =  6.0

     total cpu time spent up to now is       24.0 secs

     End of self-consistent calculation

          k = 0.0000 0.0000 0.0000 (  1449 PWs)   bands (ev):

    -8.6117  -7.3945   3.9522   4.6382   4.6382   4.7230   4.9235   4.9235
     6.8427   6.8427   7.2213   7.2213   7.6717  11.1379  11.1379  12.0249
    12.2731  12.2731

          k = 0.0000 0.0000 0.1022 (  1467 PWs)   bands (ev):

    -8.5368  -7.4833   3.9327   4.6194   4.6480   4.6480   4.8941   4.8941
     6.8765   6.8765   7.2070   7.2070   7.9810  11.2130  11.2130  11.5164
    12.1971  12.1971

          k = 0.0000 0.0000 0.2044 (  1460 PWs)   bands (ev):

    -8.3278  -7.7203   3.9558   4.3705   4.6822   4.6822   4.8230   4.8230
     6.9647   6.9647   7.1578   7.1578   8.7535  10.6597  11.4198  11.4198
    11.9892  11.9892

          k = 0.0000 0.0000-0.3067 (  1448 PWs)   bands (ev):

    -8.0310  -8.0310   4.1110   4.1110   4.7436   4.7436   4.7436   4.7436
     7.0710   7.0710   7.0710   7.0710   9.7115   9.7115  11.7043  11.7043
    11.7043  11.7043

          k = 0.0000 0.1925 0.0000 (  1443 PWs)   bands (ev):

    -8.3622  -7.2812   4.1845   4.4302   4.7635   4.7794   4.9286   5.1027
     6.7126   6.8349   7.2437   7.2851   7.6493  10.0434  10.6507  11.1498
    11.7748  11.9924

          k = 0.0000 0.1925 0.1022 (  1442 PWs)   bands (ev):

    -8.2939  -7.3576   4.0919   4.3309   4.7775   4.7974   4.9171   5.0698
     6.7689   6.8682   7.2232   7.2678   7.9823  10.1254  10.7429  10.9493
    11.6807  11.9046

          k = 0.0000 0.1925 0.2044 (  1454 PWs)   bands (ev):

    -8.1043  -7.5636   3.9677   4.1485   4.8014   4.8214   4.8828   4.9883
     6.9034   6.9547   7.1606   7.1903   8.7999  10.2888  10.5593  10.9928
    11.3138  11.6633

          k = 0.0000 0.1925-0.3067 (  1460 PWs)   bands (ev):

    -7.8381  -7.8381   3.9904   3.9904   4.8322   4.8322   4.8956   4.8956
     7.0593   7.0593   7.0634   7.0634   9.7101   9.7101  10.8222  10.8222
    11.3302  11.3302

          k = 0.0000 0.3849 0.0000 (  1459 PWs)   bands (ev):

    -7.7903  -7.0857   3.9112   4.4255   4.9703   5.0383   5.4331   5.5418
     6.5704   6.9716   7.1903   7.2823   7.8793   8.2821   9.6268   9.6462
    11.0304  11.3609

          k = 0.0000 0.3849 0.1022 (  1448 PWs)   bands (ev):

    -7.7415  -7.1304   3.8574   4.2249   4.9987   5.0525   5.3648   5.4905
     6.6695   6.9906   7.2567   7.3145   8.0131   8.4428   9.5573   9.7579
    11.0443  11.2529

          k = 0.0000 0.3849 0.2044 (  1449 PWs)   bands (ev):

    -7.6089  -7.2550   3.7547   3.9119   5.0766   5.0818   5.2427   5.3622
     6.8741   7.0424   7.1928   7.2731   8.4135   8.8072   9.5764  10.0988
    10.8532  10.9547

          k = 0.0000 0.3849-0.3067 (  1454 PWs)   bands (ev):

    -7.4300  -7.4300   3.7428   3.7428   5.1382   5.1382   5.2111   5.2111
     7.0928   7.0928   7.1151   7.1151   8.7242   8.7242  10.2465  10.2465
    10.5367  10.5367

          k = 0.0000-0.5774 0.0000 (  1444 PWs)   bands (ev):

    -7.4191  -7.0491   4.0331   4.0375   5.0389   5.2587   5.6395   5.8325
     6.8551   7.1604   7.3148   7.4099   7.5542   8.0262   8.5487   9.0203
    10.4609  10.9966

          k = 0.0000-0.5774 0.1022 (  1450 PWs)   bands (ev):

    -7.3895  -7.0683   3.9238   3.9425   5.0776   5.2477   5.5747   5.7583
     6.9623   7.1649   7.2892   7.4182   7.5889   7.9318   8.8890   9.1845
    10.5335  10.8789

          k = 0.0000-0.5774 0.2044 (  1456 PWs)   bands (ev):

    -7.3116  -7.1254   3.7264   3.7587   5.1918   5.2636   5.4475   5.5772
     7.1478   7.1797   7.2429   7.3860   7.6761   7.8323   9.5864   9.5913
    10.5527  10.5678

          k = 0.0000-0.5774-0.3067 (  1456 PWs)   bands (ev):

    -7.2133  -7.2133   3.6534   3.6534   5.3340   5.3340   5.3685   5.3685
     7.2051   7.2051   7.2947   7.2947   7.7582   7.7582  10.0898  10.0898
    10.2511  10.2511

          k = 0.1667 0.2887 0.0000 (  1454 PWs)   bands (ev):

    -7.9485  -7.1273   4.1274   4.3973   4.9615   4.9663   5.1156   5.4419
     6.6020   6.8531   7.2659   7.2818   7.8129   8.9272   9.4548  10.1532
    11.3058  11.3437

          k = 0.1667 0.2887 0.1022 (  1451 PWs)   bands (ev):

    -7.8935  -7.1814   4.0687   4.2304   4.9156   4.9366   5.1547   5.4006
     6.6802   6.9173   7.2421   7.3412   8.0603   9.0424   9.5376  10.0618
    11.2296  11.2777

          k = 0.1667 0.2887 0.2044 (  1452 PWs)   bands (ev):

    -7.7427  -7.3306   3.9387   3.9669   4.9050   4.9072   5.1671   5.3032
     6.8656   7.0052   7.1803   7.2655   8.7479   9.4426   9.5414  10.0847
    10.9251  10.9952

          k = 0.1667 0.2887-0.3067 (  1456 PWs)   bands (ev):

    -7.5363  -7.5363   3.8656   3.8656   4.9051   4.9051   5.2085   5.2085
     7.0680   7.0680   7.1086   7.1086   9.2471   9.2471  10.1652  10.1652
    10.5816  10.5816

          k = 0.1667 0.4811 0.0000 (  1454 PWs)   bands (ev):

    -7.4373  -7.0410   4.1530   4.4057   4.9487   5.1780   5.6651   5.7942
     6.6942   6.8569   7.3262   7.3614   7.7347   8.2353   8.3987   8.9999
    10.3505  10.6825

          k = 0.1667 0.4811 0.1022 (  1453 PWs)   bands (ev):

    -7.4062  -7.0622   4.0804   4.2739   4.9305   5.1345   5.5978   5.7227
     6.7490   7.0257   7.3146   7.4728   7.6663   8.3400   8.5168   9.1275
    10.3312  10.6529

          k = 0.1667 0.4811 0.2044 (  1447 PWs)   bands (ev):

    -7.3240  -7.1245   3.9339   4.0181   4.9437   5.0688   5.5223   5.5937
     6.9121   7.1019   7.3197   7.5160   7.7901   8.2812   8.9547   9.5604
    10.1044  10.6279

          k = 0.1667 0.4811-0.3067 (  1444 PWs)   bands (ev):

    -7.2192  -7.2192   3.8804   3.8804   5.0034   5.0034   5.5139   5.5139
     7.0533   7.0533   7.3849   7.3849   8.0757   8.0757   9.4547   9.4547
    10.3378  10.3378

          k = 0.3333 0.5774 0.0000 (  1440 PWs)   bands (ev):

    -7.1406  -7.1406   4.4192   4.9727   4.9746   4.9746   5.8726   5.8726
     6.6402   6.8227   6.8227   6.9182   7.6292   8.2926   8.2926   9.6335
     9.6335   9.7159

          k = 0.3333 0.5774 0.1022 (  1440 PWs)   bands (ev):

    -7.1343  -7.1343   4.4447   4.7765   4.7765   4.9162   5.8347   5.8347
     6.6646   6.9019   7.0587   7.0587   7.7624   8.2172   8.2172   9.5574
     9.8091   9.8091

          k = 0.3333 0.5774 0.2044 (  1440 PWs)   bands (ev):

    -7.1218  -7.1218   4.4549   4.4549   4.5197   4.7839   5.7984   5.7984
     6.7230   6.8568   7.4530   7.4530   8.0424   8.0424   8.1242   9.1468
    10.1590  10.1590

          k = 0.3333 0.5774-0.3067 (  1440 PWs)   bands (ev):

    -7.1155  -7.1155   4.3182   4.3182   4.6384   4.6384   5.7868   5.7868
     6.7925   6.7925   7.7237   7.7237   7.8547   7.8547   8.6236   8.6236
    10.3364  10.3364

     highest occupied level (ev):    12.2731

!    total energy              =    -361.44645599 Ry
     estimated scf accuracy    <          9.9E-10 Ry

     The total energy is the sum of the following terms:
     one-electron contribution =    -117.84814869 Ry
     hartree contribution      =     105.75553495 Ry
     xc contribution           =    -110.29923770 Ry
     ewald contribution        =    -239.05460455 Ry

     convergence has been achieved in  18 iterations

     Forces acting on atoms (cartesian axes, Ry/au):

     atom    1 type  1   force =     0.00000000    0.00000000    0.01346782
     atom    2 type  1   force =     0.00000000    0.00000000    0.01346782
     atom    3 type  2   force =     0.00000000    0.00000000   -0.01346782
     atom    4 type  2   force =     0.00000000   -0.00000000   -0.01346782
     The non-local contrib.  to forces
     atom    1 type  1   force =    -0.00000000   -0.00000000    0.02569579
     atom    2 type  1   force =     0.00000000    0.00000000    0.02569579
     atom    3 type  2   force =     0.00000000    0.00000000    0.02008123
     atom    4 type  2   force =     0.00000000    0.00000000    0.02008123
     The ionic contribution  to forces
     atom    1 type  1   force =    -0.00000000    0.00000000    0.32854632
     atom    2 type  1   force =     0.00000000   -0.00000000    0.32854632
     atom    3 type  2   force =    -0.00000000    0.00000000   -0.32854632
     atom    4 type  2   force =     0.00000000   -0.00000000   -0.32854632
     The local contribution  to forces
     atom    1 type  1   force =    -0.00000002    0.00000001   -0.33867065
     atom    2 type  1   force =     0.00000006   -0.00000003   -0.33867065
     atom    3 type  2   force =    -0.00000000    0.00000000    0.29509556
     atom    4 type  2   force =     0.00000001   -0.00000001    0.29509556
     The core correction contribution to forces
     atom    1 type  1   force =    -0.00000000    0.00000000   -0.00208358
     atom    2 type  1   force =     0.00000001   -0.00000000   -0.00208358
     atom    3 type  2   force =     0.00000000   -0.00000000   -0.00011082
     atom    4 type  2   force =    -0.00000000    0.00000000   -0.00011082
     The Hubbard contrib.    to forces
     atom    1 type  1   force =     0.00000000    0.00000000    0.00000000
     atom    2 type  1   force =     0.00000000    0.00000000    0.00000000
     atom    3 type  2   force =     0.00000000    0.00000000    0.00000000
     atom    4 type  2   force =     0.00000000    0.00000000    0.00000000
     The SCF correction term to forces
     atom    1 type  1   force =    -0.00000000    0.00000000   -0.00002832
     atom    2 type  1   force =     0.00000000   -0.00000000   -0.00002832
     atom    3 type  2   force =    -0.00000000    0.00000000    0.00000426
     atom    4 type  2   force =     0.00000000   -0.00000000    0.00000426

     Total force =     0.026936     Total SCF correction =     0.000041


     Computing stress (Cartesian axis) and pressure

          total   stress  (Ry/bohr**3)                   (kbar)     P=      807.93
   0.00564003   0.00000000   0.00000000          829.68        0.00        0.00
   0.00000000   0.00564003   0.00000000            0.00      829.68        0.00
   0.00000000   0.00000000   0.00519658            0.00        0.00      764.44


     Writing all to output data dir ./ZnO_ANN.save/

     init_run     :      1.40s CPU      0.98s WALL (       1 calls)
     electrons    :     60.71s CPU     22.69s WALL (       1 calls)
     forces       :      0.55s CPU      0.25s WALL (       1 calls)
     stress       :      1.77s CPU      0.86s WALL (       1 calls)

     Called by init_run:
     wfcinit      :      0.72s CPU      0.28s WALL (       1 calls)
     potinit      :      0.17s CPU      0.17s WALL (       1 calls)
     hinit0       :      0.43s CPU      0.44s WALL (       1 calls)

     Called by electrons:
     c_bands      :     52.93s CPU     19.54s WALL (      18 calls)
     sum_band     :      5.49s CPU      2.23s WALL (      18 calls)
     v_of_rho     :      0.46s CPU      0.21s WALL (      19 calls)
     newd         :      1.72s CPU      0.69s WALL (      19 calls)
     mix_rho      :      0.08s CPU      0.04s WALL (      18 calls)

     Called by c_bands:
     init_us_2    :      0.57s CPU      0.21s WALL (    1092 calls)
     init_us_2:cp :      0.56s CPU      0.20s WALL (    1092 calls)
     cegterg      :     51.67s CPU     19.03s WALL (     504 calls)

     Called by *egterg:
     cdiaghg      :     10.56s CPU      3.61s WALL (    3683 calls)
     h_psi        :     32.45s CPU     13.08s WALL (    3711 calls)
     s_psi        :      0.87s CPU      0.28s WALL (    3711 calls)
     g_psi        :      0.30s CPU      0.08s WALL (    3179 calls)

     Called by h_psi:
     h_psi:calbec :      1.33s CPU      0.50s WALL (    3711 calls)
     vloc_psi     :     29.94s CPU     12.18s WALL (    3711 calls)
     add_vuspsi   :      0.86s CPU      0.30s WALL (    3711 calls)

     General routines
     calbec       :      1.59s CPU      0.60s WALL (    4355 calls)
     fft          :      0.50s CPU      0.34s WALL (     270 calls)
     ffts         :      0.10s CPU      0.09s WALL (      37 calls)
     fftw         :     28.48s CPU     11.65s WALL (   96858 calls)
     interpolate  :      0.11s CPU      0.09s WALL (      19 calls)

     Parallel routines

     PWSCF        :   1m 4.94s CPU     25.22s WALL


   This run was terminated on:  15:18:52  13Jun2025            

=------------------------------------------------------------------------------=
   JOB DONE.
=------------------------------------------------------------------------------=
Note: The following floating-point exceptions are signalling: IEEE_INVALID_FLAG
