Authorization required, but no authorization protocol specified

Authorization required, but no authorization protocol specified

Authorization required, but no authorization protocol specified

Authorization required, but no authorization protocol specified

Authorization required, but no authorization protocol specified

Authorization required, but no authorization protocol specified

Authorization required, but no authorization protocol specified

Authorization required, but no authorization protocol specified

Authorization required, but no authorization protocol specified

Authorization required, but no authorization protocol specified


     Program PWSCF v.7.2 starts on 13Jun2025 at 16:24:14 

     This program is part of the open-source Quantum ESPRESSO suite
     for quantum simulation of materials; please cite
         "P. Giannozzi et al., J. Phys.:Condens. Matter 21 395502 (2009);
         "P. Giannozzi et al., J. Phys.:Condens. Matter 29 465901 (2017);
         "P. Giannozzi et al., J. Chem. Phys. 152 154105 (2020);
          URL http://www.quantum-espresso.org", 
     in publications or presentations arising from this work. More details at
     http://www.quantum-espresso.org/quote

     Parallel version (MPI), running on     8 processors

     MPI processes distributed on     1 nodes
     120707 MiB available memory on the printing compute node when the environment starts

     Reading input from /home/jvc/QEspresso7.2/ZnO_database_python/SCFs.in/scf-5.93-1.74.in

     Current dimensions of program PWSCF are:
     Max number of different atomic species (ntypx) = 10
     Max number of k-points (npk) =  40000
     Max angular momentum in pseudopotentials (lmaxx) =  4
     file Zn.upf: wavefunction(s)  3D renormalized

     R & G space division:  proc/nbgrp/npool/nimage =       8
     Subspace diagonalization in iterative solution of the eigenvalue problem:
     a serial algorithm will be used


     Parallelization info
     --------------------
     sticks:   dense  smooth     PW     G-vecs:    dense   smooth      PW
     Min         119      61     18                 5311     1889     322
     Max         120      63     19                 5322     1892     327
     Sum         955     499    151                42527    15125    2599

     Using Slab Decomposition



     bravais-lattice index     =            4
     lattice parameter (alat)  =       5.9317  a.u.
     unit-cell volume          =     315.1265 (a.u.)^3
     number of atoms/cell      =            4
     number of atomic types    =            2
     number of electrons       =        36.00
     number of Kohn-Sham states=           18
     kinetic-energy cutoff     =      50.0000  Ry
     charge density cutoff     =     400.0000  Ry
     scf convergence threshold =      1.0E-08
     mixing beta               =       0.3000
     number of iterations used =            8  plain     mixing
     Exchange-correlation= PBE
                           (   1   4   3   4   0   0   0)

     celldm(1)=   5.931669  celldm(2)=   0.000000  celldm(3)=   1.743507
     celldm(4)=   0.000000  celldm(5)=   0.000000  celldm(6)=   0.000000

     crystal axes: (cart. coord. in units of alat)
               a(1) = (   1.000000   0.000000   0.000000 )  
               a(2) = (  -0.500000   0.866025   0.000000 )  
               a(3) = (   0.000000   0.000000   1.743507 )  

     reciprocal axes: (cart. coord. in units 2 pi/alat)
               b(1) = (  1.000000  0.577350 -0.000000 )  
               b(2) = (  0.000000  1.154701  0.000000 )  
               b(3) = (  0.000000 -0.000000  0.573557 )  


     PseudoPot. # 1 for Zn read from file:
     /home/jvc/QEspresso7.2/ZnO_database/pseudos/Zn.upf
     MD5 check sum: 7f56cabf9682ed8c977c2f7d0c5985c5
     Pseudo is Ultrasoft + core correction, Zval = 12.0
     Generated using &quot;atomic&quot; code by A. Dal Corso  v.6.2.2
     Using radial grid of 1201 points,  6 beta functions with: 
                l(1) =   0
                l(2) =   0
                l(3) =   1
                l(4) =   1
                l(5) =   2
                l(6) =   2
     Q(r) pseudized with 0 coefficients 


     PseudoPot. # 2 for O  read from file:
     /home/jvc/QEspresso7.2/ZnO_database/pseudos/O.upf
     MD5 check sum: 91400c9766925bcf19f520983a725ff0
     Pseudo is Ultrasoft + core correction, Zval =  6.0
     Generated using &quot;atomic&quot; code by A. Dal Corso  v.6.3MaX
     Using radial grid of 1095 points,  4 beta functions with: 
                l(1) =   0
                l(2) =   0
                l(3) =   1
                l(4) =   1
     Q(r) pseudized with 0 coefficients 


     atomic species   valence    mass     pseudopotential
        Zn            12.00    63.38000     Zn( 1.00)
        O              6.00    15.99900     O ( 1.00)

     12 Sym. Ops. (no inversion) found ( 6 have fractional translation)



   Cartesian axes

     site n.     atom                  positions (alat units)
         1           Zn  tau(   1) = (   0.5000000   0.2886751   0.8728582  )
         2           Zn  tau(   2) = (  -0.0000000   0.5773503   0.0011047  )
         3           O   tau(   3) = (   0.5000000   0.2886751   1.5337220  )
         4           O   tau(   4) = (  -0.0000000   0.5773503   0.6619685  )

     number of k points=    28
                       cart. coord. in units 2pi/alat
        k(    1) = (   0.0000000   0.0000000   0.0000000), wk =   0.0092593
        k(    2) = (   0.0000000   0.0000000   0.0955928), wk =   0.0185185
        k(    3) = (   0.0000000   0.0000000   0.1911855), wk =   0.0185185
        k(    4) = (   0.0000000   0.0000000  -0.2867783), wk =   0.0092593
        k(    5) = (   0.0000000   0.1924501   0.0000000), wk =   0.0555556
        k(    6) = (   0.0000000   0.1924501   0.0955928), wk =   0.1111111
        k(    7) = (   0.0000000   0.1924501   0.1911855), wk =   0.1111111
        k(    8) = (   0.0000000   0.1924501  -0.2867783), wk =   0.0555556
        k(    9) = (   0.0000000   0.3849002   0.0000000), wk =   0.0555556
        k(   10) = (   0.0000000   0.3849002   0.0955928), wk =   0.1111111
        k(   11) = (   0.0000000   0.3849002   0.1911855), wk =   0.1111111
        k(   12) = (   0.0000000   0.3849002  -0.2867783), wk =   0.0555556
        k(   13) = (   0.0000000  -0.5773503   0.0000000), wk =   0.0277778
        k(   14) = (   0.0000000  -0.5773503   0.0955928), wk =   0.0555556
        k(   15) = (   0.0000000  -0.5773503   0.1911855), wk =   0.0555556
        k(   16) = (   0.0000000  -0.5773503  -0.2867783), wk =   0.0277778
        k(   17) = (   0.1666667   0.2886751   0.0000000), wk =   0.0555556
        k(   18) = (   0.1666667   0.2886751   0.0955928), wk =   0.1111111
        k(   19) = (   0.1666667   0.2886751   0.1911855), wk =   0.1111111
        k(   20) = (   0.1666667   0.2886751  -0.2867783), wk =   0.0555556
        k(   21) = (   0.1666667   0.4811252   0.0000000), wk =   0.1111111
        k(   22) = (   0.1666667   0.4811252   0.0955928), wk =   0.2222222
        k(   23) = (   0.1666667   0.4811252   0.1911855), wk =   0.2222222
        k(   24) = (   0.1666667   0.4811252  -0.2867783), wk =   0.1111111
        k(   25) = (   0.3333333   0.5773503   0.0000000), wk =   0.0185185
        k(   26) = (   0.3333333   0.5773503   0.0955928), wk =   0.0370370
        k(   27) = (   0.3333333   0.5773503   0.1911855), wk =   0.0370370
        k(   28) = (   0.3333333   0.5773503  -0.2867783), wk =   0.0185185

     Dense  grid:    42527 G-vectors     FFT dimensions: (  40,  40,  72)

     Smooth grid:    15125 G-vectors     FFT dimensions: (  27,  27,  48)

     Estimated max dynamical RAM per process >      24.90 MB

     Estimated total dynamical RAM >     199.18 MB

     Check: negative core charge=   -0.000002

     Initial potential from superposition of free atoms

     starting charge      35.9925, renormalised to      36.0000
     Starting wfcs are   26 randomized atomic wfcs

     total cpu time spent up to now is        1.6 secs

     Self-consistent Calculation

     iteration #  1     ecut=    50.00 Ry     beta= 0.30
     Davidson diagonalization with overlap
     ethr =  1.00E-02,  avg # of iterations =  1.9

     total cpu time spent up to now is        2.4 secs

     total energy              =    -361.46828297 Ry
     estimated scf accuracy    <       0.68801843 Ry

     iteration #  2     ecut=    50.00 Ry     beta= 0.30
     Davidson diagonalization with overlap
     ethr =  1.91E-03,  avg # of iterations =  2.0

     total cpu time spent up to now is        3.3 secs

     total energy              =    -361.55997783 Ry
     estimated scf accuracy    <       0.09489594 Ry

     iteration #  3     ecut=    50.00 Ry     beta= 0.30
     Davidson diagonalization with overlap
     ethr =  2.64E-04,  avg # of iterations =  5.9

     total cpu time spent up to now is        4.9 secs

     total energy              =    -361.59687853 Ry
     estimated scf accuracy    <       0.05653801 Ry

     iteration #  4     ecut=    50.00 Ry     beta= 0.30
     Davidson diagonalization with overlap
     ethr =  1.57E-04,  avg # of iterations =  7.4

     total cpu time spent up to now is        6.7 secs

     total energy              =    -361.63045393 Ry
     estimated scf accuracy    <       0.14772356 Ry

     iteration #  5     ecut=    50.00 Ry     beta= 0.30
     Davidson diagonalization with overlap
     ethr =  1.57E-04,  avg # of iterations =  1.2

     total cpu time spent up to now is        7.5 secs

     total energy              =    -361.56887423 Ry
     estimated scf accuracy    <       0.08259537 Ry

     iteration #  6     ecut=    50.00 Ry     beta= 0.30
     Davidson diagonalization with overlap
     ethr =  1.57E-04,  avg # of iterations =  7.6

     total cpu time spent up to now is        9.3 secs

     total energy              =    -361.61382282 Ry
     estimated scf accuracy    <       0.18669949 Ry

     iteration #  7     ecut=    50.00 Ry     beta= 0.30
     Davidson diagonalization with overlap
     ethr =  1.57E-04,  avg # of iterations =  2.0

     total cpu time spent up to now is       10.2 secs

     total energy              =    -361.62055746 Ry
     estimated scf accuracy    <       0.07683994 Ry

     iteration #  8     ecut=    50.00 Ry     beta= 0.30
     Davidson diagonalization with overlap
     ethr =  1.57E-04,  avg # of iterations =  2.0

     total cpu time spent up to now is       11.0 secs

     total energy              =    -361.62401527 Ry
     estimated scf accuracy    <       0.05060936 Ry

     iteration #  9     ecut=    50.00 Ry     beta= 0.30
     Davidson diagonalization with overlap
     ethr =  1.41E-04,  avg # of iterations =  1.6

     total cpu time spent up to now is       11.8 secs

     total energy              =    -361.61828696 Ry
     estimated scf accuracy    <       0.03840349 Ry

     iteration # 10     ecut=    50.00 Ry     beta= 0.30
     Davidson diagonalization with overlap
     ethr =  1.07E-04,  avg # of iterations =  1.9

     total cpu time spent up to now is       12.7 secs

     total energy              =    -361.61687541 Ry
     estimated scf accuracy    <       0.01759525 Ry

     iteration # 11     ecut=    50.00 Ry     beta= 0.30
     Davidson diagonalization with overlap
     ethr =  4.89E-05,  avg # of iterations =  4.6

     total cpu time spent up to now is       13.8 secs

     total energy              =    -361.62073138 Ry
     estimated scf accuracy    <       0.00112764 Ry

     iteration # 12     ecut=    50.00 Ry     beta= 0.30
     Davidson diagonalization with overlap
     ethr =  3.13E-06,  avg # of iterations =  7.9

     total cpu time spent up to now is       15.7 secs

     total energy              =    -361.62452414 Ry
     estimated scf accuracy    <       0.00380571 Ry

     iteration # 13     ecut=    50.00 Ry     beta= 0.30
     Davidson diagonalization with overlap
     ethr =  3.13E-06,  avg # of iterations =  2.8

     total cpu time spent up to now is       16.6 secs

     total energy              =    -361.62127736 Ry
     estimated scf accuracy    <       0.00644731 Ry

     iteration # 14     ecut=    50.00 Ry     beta= 0.30
     Davidson diagonalization with overlap
     ethr =  3.13E-06,  avg # of iterations =  6.2

     total cpu time spent up to now is       18.1 secs

     total energy              =    -361.62228769 Ry
     estimated scf accuracy    <       0.00002158 Ry

     iteration # 15     ecut=    50.00 Ry     beta= 0.30
     Davidson diagonalization with overlap
     ethr =  6.00E-08,  avg # of iterations =  6.5

     total cpu time spent up to now is       19.6 secs

     total energy              =    -361.62231868 Ry
     estimated scf accuracy    <       0.00001359 Ry

     iteration # 16     ecut=    50.00 Ry     beta= 0.30
     Davidson diagonalization with overlap
     ethr =  3.78E-08,  avg # of iterations =  1.4

     total cpu time spent up to now is       20.4 secs

     total energy              =    -361.62236081 Ry
     estimated scf accuracy    <       0.00001707 Ry

     iteration # 17     ecut=    50.00 Ry     beta= 0.30
     Davidson diagonalization with overlap
     ethr =  3.78E-08,  avg # of iterations =  9.7

     total cpu time spent up to now is       22.6 secs

     total energy              =    -361.62235139 Ry
     estimated scf accuracy    <       0.00038171 Ry

     iteration # 18     ecut=    50.00 Ry     beta= 0.30
     Davidson diagonalization with overlap
     ethr =  3.78E-08,  avg # of iterations =  5.5

     total cpu time spent up to now is       24.0 secs

     total energy              =    -361.62260150 Ry
     estimated scf accuracy    <       0.00018441 Ry

     iteration # 19     ecut=    50.00 Ry     beta= 0.30
     Davidson diagonalization with overlap
     ethr =  3.78E-08,  avg # of iterations = 10.5

     total cpu time spent up to now is       26.5 secs

     total energy              =    -361.62258473 Ry
     estimated scf accuracy    <       0.00153702 Ry

     iteration # 20     ecut=    50.00 Ry     beta= 0.30
     Davidson diagonalization with overlap
     ethr =  3.78E-08,  avg # of iterations =  5.1

     total cpu time spent up to now is       27.8 secs

     total energy              =    -361.62231491 Ry
     estimated scf accuracy    <       0.00110113 Ry

     iteration # 21     ecut=    50.00 Ry     beta= 0.30
     Davidson diagonalization with overlap
     ethr =  3.78E-08,  avg # of iterations =  9.7

     total cpu time spent up to now is       30.1 secs

     total energy              =    -361.62236265 Ry
     estimated scf accuracy    <       0.00023455 Ry

     iteration # 22     ecut=    50.00 Ry     beta= 0.30
     Davidson diagonalization with overlap
     ethr =  3.78E-08,  avg # of iterations =  1.4

     total cpu time spent up to now is       30.9 secs

     total energy              =    -361.62232261 Ry
     estimated scf accuracy    <       0.00020693 Ry

     iteration # 23     ecut=    50.00 Ry     beta= 0.30
     Davidson diagonalization with overlap
     ethr =  3.78E-08,  avg # of iterations =  6.1

     total cpu time spent up to now is       32.4 secs

     total energy              =    -361.62229684 Ry
     estimated scf accuracy    <       0.00006569 Ry

     iteration # 24     ecut=    50.00 Ry     beta= 0.30
     Davidson diagonalization with overlap
     ethr =  3.78E-08,  avg # of iterations =  7.6

     total cpu time spent up to now is       34.2 secs

     total energy              =    -361.62231736 Ry
     estimated scf accuracy    <       0.00000607 Ry

     iteration # 25     ecut=    50.00 Ry     beta= 0.30
     Davidson diagonalization with overlap
     ethr =  1.69E-08,  avg # of iterations =  1.9

     total cpu time spent up to now is       35.0 secs

     total energy              =    -361.62231691 Ry
     estimated scf accuracy    <       0.00000302 Ry

     iteration # 26     ecut=    50.00 Ry     beta= 0.30
     Davidson diagonalization with overlap
     ethr =  8.38E-09,  avg # of iterations =  2.1

     total cpu time spent up to now is       35.9 secs

     total energy              =    -361.62231709 Ry
     estimated scf accuracy    <       0.00000082 Ry

     iteration # 27     ecut=    50.00 Ry     beta= 0.30
     Davidson diagonalization with overlap
     ethr =  2.27E-09,  avg # of iterations =  4.1

     total cpu time spent up to now is       37.0 secs

     total energy              =    -361.62231726 Ry
     estimated scf accuracy    <       0.00000010 Ry

     iteration # 28     ecut=    50.00 Ry     beta= 0.30
     Davidson diagonalization with overlap
     ethr =  2.76E-10,  avg # of iterations =  6.7

     total cpu time spent up to now is       38.6 secs

     total energy              =    -361.62231735 Ry
     estimated scf accuracy    <       0.00000005 Ry

     iteration # 29     ecut=    50.00 Ry     beta= 0.30
     Davidson diagonalization with overlap
     ethr =  1.28E-10,  avg # of iterations =  2.0

     total cpu time spent up to now is       39.4 secs

     End of self-consistent calculation

          k = 0.0000 0.0000 0.0000 (  1919 PWs)   bands (ev):

   -10.7041 -10.0800   1.5988   1.7167   1.7167   1.7905   1.8749   1.8749
     3.0426   3.0426   3.2090   3.2090   3.5745   7.0272   7.0272   7.3317
     7.6629   7.6629

          k = 0.0000 0.0000 0.0956 (  1889 PWs)   bands (ev):

   -10.6648 -10.1245   1.5616   1.7246   1.7246   1.7487   1.8614   1.8614
     3.0565   3.0565   3.2013   3.2013   3.8010   6.7692   7.0700   7.0700
     7.6206   7.6206

          k = 0.0000 0.0000 0.1912 (  1895 PWs)   bands (ev):

   -10.5556 -10.2439   1.5222   1.6499   1.7474   1.7474   1.8260   1.8260
     3.0919   3.0919   3.1760   3.1760   4.3717   5.9401   7.1867   7.1867
     7.5046   7.5046

          k = 0.0000 0.0000-0.2868 (  1884 PWs)   bands (ev):

   -10.4023 -10.4023   1.5552   1.5552   1.7837   1.7837   1.7837   1.7837
     3.1365   3.1365   3.1365   3.1365   5.1205   5.1205   7.3459   7.3459
     7.3459   7.3459

          k = 0.0000 0.1925 0.0000 (  1901 PWs)   bands (ev):

   -10.5385  -9.9875   1.5346   1.8103   1.8128   1.8814   1.9265   2.0061
     2.9692   3.0382   3.2168   3.3154   3.5352   6.0145   6.5148   6.6754
     7.1929   7.4402

          k = 0.0000 0.1925 0.0956 (  1894 PWs)   bands (ev):

   -10.5032 -10.0260   1.5137   1.6822   1.8229   1.8936   1.9413   1.9899
     2.9934   3.0517   3.2064   3.2575   3.8311   6.0327   6.3695   6.7275
     7.0914   7.3896

          k = 0.0000 0.1925 0.1912 (  1882 PWs)   bands (ev):

   -10.4056 -10.1302   1.4686   1.5311   1.8525   1.8914   1.9317   1.9484
     3.0532   3.0874   3.1767   3.1951   4.4463   5.7648   6.3309   6.8438
     6.8690   7.2510

          k = 0.0000 0.1925-0.2868 (  1890 PWs)   bands (ev):

   -10.2696 -10.2696   1.4591   1.4591   1.8973   1.8973   1.9063   1.9063
     3.1260   3.1260   3.1333   3.1333   5.1470   5.1470   6.5573   6.5573
     7.0607   7.0607

          k = 0.0000 0.3849 0.0000 (  1866 PWs)   bands (ev):

   -10.1710  -9.8158   1.3495   1.7084   1.9736   2.2320   2.3106   2.4434
     2.8981   3.1163   3.2422   3.4399   3.6504   4.3652   5.3034   5.9434
     6.6687   6.9587

          k = 0.0000 0.3849 0.0956 (  1875 PWs)   bands (ev):

   -10.1470  -9.8393   1.3325   1.6262   1.9926   2.2149   2.2837   2.3607
     2.9397   3.1236   3.2319   3.3564   3.9282   4.4560   5.2728   6.0154
     6.6318   6.8931

          k = 0.0000 0.3849 0.1912 (  1875 PWs)   bands (ev):

   -10.0817  -9.9039   1.3086   1.4577   2.0467   2.1934   2.2140   2.2614
     3.0359   3.1443   3.2060   3.2578   4.2761   4.6070   5.4142   6.2079
     6.4138   6.7128

          k = 0.0000 0.3849-0.2868 (  1878 PWs)   bands (ev):

    -9.9926  -9.9926   1.3374   1.3374   2.1265   2.1265   2.2067   2.2067
     3.1488   3.1488   3.1741   3.1741   4.5059   4.5059   5.9364   5.9364
     6.4633   6.4633

          k = 0.0000-0.5774 0.0000 (  1882 PWs)   bands (ev):

    -9.9458  -9.7588   1.4603   1.5616   2.0286   2.4635   2.4870   2.5461
     3.0604   3.2204   3.2762   3.3674   3.7089   3.8406   4.7508   5.5337
     6.1886   6.6936

          k = 0.0000-0.5774 0.0956 (  1882 PWs)   bands (ev):

    -9.9322  -9.7702   1.4248   1.5018   2.0537   2.4494   2.4518   2.5023
     3.1180   3.2223   3.2690   3.3642   3.6910   3.8098   4.9703   5.6194
     6.2298   6.6203

          k = 0.0000-0.5774 0.1912 (  1878 PWs)   bands (ev):

    -9.8958  -9.8021   1.3553   1.3882   2.1257   2.3525   2.4309   2.4457
     3.2185   3.2284   3.2532   3.3470   3.6759   3.7458   5.4674   5.8445
     6.2200   6.4184

          k = 0.0000-0.5774-0.2868 (  1892 PWs)   bands (ev):

    -9.8479  -9.8479   1.3278   1.3278   2.2329   2.2329   2.4235   2.4235
     3.2386   3.2386   3.2999   3.2999   3.6937   3.6937   5.9588   5.9588
     6.1369   6.1369

          k = 0.1667 0.2887 0.0000 (  1875 PWs)   bands (ev):

   -10.2704  -9.8554   1.4826   1.7095   1.9717   1.9858   2.2611   2.3141
     2.9020   3.0596   3.2314   3.4646   3.5921   5.0908   5.3649   5.9759
     6.8841   6.9087

          k = 0.1667 0.2887 0.0956 (  1882 PWs)   bands (ev):

   -10.2430  -9.8835   1.4593   1.6502   1.9540   1.9784   2.2423   2.2441
     2.9394   3.0827   3.2209   3.3519   3.9391   5.1829   5.3221   5.9973
     6.8165   6.8390

          k = 0.1667 0.2887 0.1912 (  1877 PWs)   bands (ev):

   -10.1676  -9.9600   1.4163   1.5095   1.9501   1.9689   2.1744   2.1978
     3.0316   3.1183   3.1939   3.2528   4.4707   5.1620   5.4864   6.1087
     6.5575   6.6532

          k = 0.1667 0.2887-0.2868 (  1878 PWs)   bands (ev):

   -10.0641 -10.0641   1.4173   1.4173   1.9624   1.9624   2.1625   2.1625
     3.1373   3.1373   3.1639   3.1639   4.8854   4.8854   5.9749   5.9749
     6.4272   6.4272

          k = 0.1667 0.4811 0.0000 (  1884 PWs)   bands (ev):

    -9.9547  -9.7555   1.5649   1.7839   2.0263   2.3244   2.4924   2.5482
     2.9600   3.0841   3.2999   3.5361   3.6220   4.2285   4.7242   5.0680
     6.1574   6.3980

          k = 0.1667 0.4811 0.0956 (  1878 PWs)   bands (ev):

    -9.9404  -9.7678   1.5434   1.7212   2.0243   2.2967   2.4509   2.4821
     2.9856   3.1430   3.2988   3.5155   3.6667   4.2450   4.8381   5.1950
     6.1316   6.3730

          k = 0.1667 0.4811 0.1912 (  1880 PWs)   bands (ev):

    -9.9018  -9.8021   1.4989   1.5884   2.0470   2.2169   2.3864   2.4158
     3.0747   3.1784   3.3055   3.4265   3.8235   4.1592   5.1652   5.5225
     5.9725   6.3143

          k = 0.1667 0.4811-0.2868 (  1884 PWs)   bands (ev):

    -9.8509  -9.8509   1.4985   1.4985   2.1192   2.1192   2.3795   2.3795
     3.1551   3.1551   3.3439   3.3439   4.0004   4.0004   5.5116   5.5116
     6.0860   6.0860

          k = 0.3333 0.5774 0.0000 (  1887 PWs)   bands (ev):

    -9.7866  -9.7866   1.6527   2.2148   2.2148   2.2383   2.8247   2.8247
     2.9215   3.0366   3.0366   3.0458   3.9670   3.9670   3.9883   5.6217
     5.6217   5.6444

          k = 0.3333 0.5774 0.0956 (  1881 PWs)   bands (ev):

    -9.7851  -9.7851   1.6783   2.1253   2.1253   2.1721   2.7248   2.7248
     2.9368   3.0398   3.2137   3.2137   3.9225   3.9225   4.1077   5.5296
     5.7413   5.7413

          k = 0.3333 0.5774 0.1912 (  1881 PWs)   bands (ev):

    -9.7823  -9.7823   1.7538   1.9631   1.9631   2.0264   2.6611   2.6611
     2.9667   3.0225   3.4397   3.4397   3.8168   3.8168   4.4171   5.2250
     5.9775   5.9775

          k = 0.3333 0.5774-0.2868 (  1884 PWs)   bands (ev):

    -9.7809  -9.7809   1.8746   1.8746   1.8903   1.8903   2.6453   2.6453
     2.9967   2.9967   3.5722   3.5722   3.7235   3.7235   4.8213   4.8213
     6.0950   6.0950

     highest occupied level (ev):     7.6629

!    total energy              =    -361.62231734 Ry
     estimated scf accuracy    <          8.4E-09 Ry

     The total energy is the sum of the following terms:
     one-electron contribution =    -149.65679097 Ry
     hartree contribution      =     116.60809586 Ry
     xc contribution           =    -109.64661237 Ry
     ewald contribution        =    -218.92700987 Ry

     convergence has been achieved in  29 iterations

     Forces acting on atoms (cartesian axes, Ry/au):

     atom    1 type  1   force =     0.00000000    0.00000000    0.02414021
     atom    2 type  1   force =     0.00000000    0.00000000    0.02414021
     atom    3 type  2   force =     0.00000000    0.00000000   -0.02414021
     atom    4 type  2   force =    -0.00000000   -0.00000000   -0.02414021
     The non-local contrib.  to forces
     atom    1 type  1   force =     0.00000000    0.00000000    0.21322737
     atom    2 type  1   force =     0.00000000   -0.00000000    0.21322737
     atom    3 type  2   force =    -0.00000000   -0.00000000    0.19379649
     atom    4 type  2   force =     0.00000000    0.00000000    0.19379649
     The ionic contribution  to forces
     atom    1 type  1   force =    -0.00000000    0.00000000    1.70692723
     atom    2 type  1   force =     0.00000000   -0.00000000    1.70692723
     atom    3 type  2   force =    -0.00000000    0.00000000   -1.70692723
     atom    4 type  2   force =     0.00000000   -0.00000000   -1.70692723
     The local contribution  to forces
     atom    1 type  1   force =    -0.00000002    0.00000001   -1.88019489
     atom    2 type  1   force =     0.00000006   -0.00000004   -1.88019488
     atom    3 type  2   force =    -0.00000001    0.00000000    1.49050825
     atom    4 type  2   force =     0.00000002   -0.00000001    1.49050824
     The core correction contribution to forces
     atom    1 type  1   force =    -0.00000000    0.00000000   -0.01582815
     atom    2 type  1   force =     0.00000001   -0.00000000   -0.01582815
     atom    3 type  2   force =     0.00000000   -0.00000000   -0.00152608
     atom    4 type  2   force =    -0.00000000    0.00000000   -0.00152608
     The Hubbard contrib.    to forces
     atom    1 type  1   force =     0.00000000    0.00000000    0.00000000
     atom    2 type  1   force =     0.00000000    0.00000000    0.00000000
     atom    3 type  2   force =     0.00000000    0.00000000    0.00000000
     atom    4 type  2   force =     0.00000000    0.00000000    0.00000000
     The SCF correction term to forces
     atom    1 type  1   force =     0.00000000   -0.00000000    0.00000632
     atom    2 type  1   force =    -0.00000000    0.00000000    0.00000632
     atom    3 type  2   force =     0.00000000   -0.00000000    0.00000604
     atom    4 type  2   force =    -0.00000000    0.00000000    0.00000604

     Total force =     0.048280     Total SCF correction =     0.000012


     Computing stress (Cartesian axis) and pressure

          total   stress  (Ry/bohr**3)                   (kbar)     P=       79.44
   0.00093978   0.00000000   0.00000000          138.25        0.00        0.00
   0.00000000   0.00093978   0.00000000            0.00      138.25        0.00
   0.00000000   0.00000000  -0.00025950            0.00        0.00      -38.17


     Writing all to output data dir ./ZnO_ANN.save/

     init_run     :      1.80s CPU      1.22s WALL (       1 calls)
     electrons    :    101.15s CPU     37.88s WALL (       1 calls)
     forces       :      0.64s CPU      0.30s WALL (       1 calls)
     stress       :      2.25s CPU      1.07s WALL (       1 calls)

     Called by init_run:
     wfcinit      :      0.96s CPU      0.38s WALL (       1 calls)
     potinit      :      0.23s CPU      0.23s WALL (       1 calls)
     hinit0       :      0.48s CPU      0.50s WALL (       1 calls)

     Called by electrons:
     c_bands      :     83.93s CPU     31.06s WALL (      29 calls)
     sum_band     :     12.70s CPU      4.97s WALL (      29 calls)
     v_of_rho     :      1.06s CPU      0.46s WALL (      30 calls)
     newd         :      3.21s CPU      1.31s WALL (      30 calls)
     mix_rho      :      0.18s CPU      0.08s WALL (      29 calls)

     Called by c_bands:
     init_us_2    :      1.18s CPU      0.42s WALL (    1708 calls)
     init_us_2:cp :      1.16s CPU      0.41s WALL (    1708 calls)
     cegterg      :     81.36s CPU     30.06s WALL (     812 calls)

     Called by *egterg:
     cdiaghg      :     13.42s CPU      4.43s WALL (    4603 calls)
     h_psi        :     55.44s CPU     22.47s WALL (    4631 calls)
     s_psi        :      1.26s CPU      0.38s WALL (    4631 calls)
     g_psi        :      0.42s CPU      0.11s WALL (    3791 calls)

     Called by h_psi:
     h_psi:calbec :      1.92s CPU      0.69s WALL (    4631 calls)
     vloc_psi     :     51.79s CPU     21.22s WALL (    4631 calls)
     add_vuspsi   :      1.26s CPU      0.41s WALL (    4631 calls)

     General routines
     calbec       :      2.42s CPU      0.85s WALL (    5583 calls)
     fft          :      0.88s CPU      0.52s WALL (     413 calls)
     ffts         :      0.14s CPU      0.11s WALL (      59 calls)
     fftw         :     51.68s CPU     21.25s WALL (  123582 calls)
     interpolate  :      0.17s CPU      0.12s WALL (      30 calls)

     Parallel routines

     PWSCF        :   1m46.37s CPU     40.94s WALL


   This run was terminated on:  16:24:55  13Jun2025            

=------------------------------------------------------------------------------=
   JOB DONE.
=------------------------------------------------------------------------------=
Note: The following floating-point exceptions are signalling: IEEE_INVALID_FLAG
