Authorization required, but no authorization protocol specified

Authorization required, but no authorization protocol specified

Authorization required, but no authorization protocol specified

Authorization required, but no authorization protocol specified

Authorization required, but no authorization protocol specified

Authorization required, but no authorization protocol specified

Authorization required, but no authorization protocol specified

Authorization required, but no authorization protocol specified

Authorization required, but no authorization protocol specified

Authorization required, but no authorization protocol specified


     Program PWSCF v.7.2 starts on 13Jun2025 at 19:27:50 

     This program is part of the open-source Quantum ESPRESSO suite
     for quantum simulation of materials; please cite
         "P. Giannozzi et al., J. Phys.:Condens. Matter 21 395502 (2009);
         "P. Giannozzi et al., J. Phys.:Condens. Matter 29 465901 (2017);
         "P. Giannozzi et al., J. Chem. Phys. 152 154105 (2020);
          URL http://www.quantum-espresso.org", 
     in publications or presentations arising from this work. More details at
     http://www.quantum-espresso.org/quote

     Parallel version (MPI), running on     8 processors

     MPI processes distributed on     1 nodes
     120703 MiB available memory on the printing compute node when the environment starts

     Reading input from /home/jvc/QEspresso7.2/ZnO_database_python/SCFs.in/scf-6.67-1.63.in

     Current dimensions of program PWSCF are:
     Max number of different atomic species (ntypx) = 10
     Max number of k-points (npk) =  40000
     Max angular momentum in pseudopotentials (lmaxx) =  4
     file Zn.upf: wavefunction(s)  3D renormalized

     R & G space division:  proc/nbgrp/npool/nimage =       8
     Subspace diagonalization in iterative solution of the eigenvalue problem:
     a serial algorithm will be used


     Parallelization info
     --------------------
     sticks:   dense  smooth     PW     G-vecs:    dense   smooth      PW
     Min         154      75     23                 7094     2491     417
     Max         155      78     24                 7099     2497     422
     Sum        1237     613    187                56769    19945    3357

     Using Slab Decomposition



     bravais-lattice index     =            4
     lattice parameter (alat)  =       6.6731  a.u.
     unit-cell volume          =     419.6045 (a.u.)^3
     number of atoms/cell      =            4
     number of atomic types    =            2
     number of electrons       =        36.00
     number of Kohn-Sham states=           18
     kinetic-energy cutoff     =      50.0000  Ry
     charge density cutoff     =     400.0000  Ry
     scf convergence threshold =      1.0E-08
     mixing beta               =       0.3000
     number of iterations used =            8  plain     mixing
     Exchange-correlation= PBE
                           (   1   4   3   4   0   0   0)

     celldm(1)=   6.673127  celldm(2)=   0.000000  celldm(3)=   1.630502
     celldm(4)=   0.000000  celldm(5)=   0.000000  celldm(6)=   0.000000

     crystal axes: (cart. coord. in units of alat)
               a(1) = (   1.000000   0.000000   0.000000 )  
               a(2) = (  -0.500000   0.866025   0.000000 )  
               a(3) = (   0.000000   0.000000   1.630502 )  

     reciprocal axes: (cart. coord. in units 2 pi/alat)
               b(1) = (  1.000000  0.577350 -0.000000 )  
               b(2) = (  0.000000  1.154701  0.000000 )  
               b(3) = (  0.000000 -0.000000  0.613308 )  


     PseudoPot. # 1 for Zn read from file:
     /home/jvc/QEspresso7.2/ZnO_database/pseudos/Zn.upf
     MD5 check sum: 7f56cabf9682ed8c977c2f7d0c5985c5
     Pseudo is Ultrasoft + core correction, Zval = 12.0
     Generated using &quot;atomic&quot; code by A. Dal Corso  v.6.2.2
     Using radial grid of 1201 points,  6 beta functions with: 
                l(1) =   0
                l(2) =   0
                l(3) =   1
                l(4) =   1
                l(5) =   2
                l(6) =   2
     Q(r) pseudized with 0 coefficients 


     PseudoPot. # 2 for O  read from file:
     /home/jvc/QEspresso7.2/ZnO_database/pseudos/O.upf
     MD5 check sum: 91400c9766925bcf19f520983a725ff0
     Pseudo is Ultrasoft + core correction, Zval =  6.0
     Generated using &quot;atomic&quot; code by A. Dal Corso  v.6.3MaX
     Using radial grid of 1095 points,  4 beta functions with: 
                l(1) =   0
                l(2) =   0
                l(3) =   1
                l(4) =   1
     Q(r) pseudized with 0 coefficients 


     atomic species   valence    mass     pseudopotential
        Zn            12.00    63.38000     Zn( 1.00)
        O              6.00    15.99900     O ( 1.00)

     12 Sym. Ops. (no inversion) found ( 6 have fractional translation)



   Cartesian axes

     site n.     atom                  positions (alat units)
         1           Zn  tau(   1) = (   0.5000000   0.2886751   0.8162840  )
         2           Zn  tau(   2) = (  -0.0000000   0.5773503   0.0010331  )
         3           O   tau(   3) = (   0.5000000   0.2886751   1.4343141  )
         4           O   tau(   4) = (  -0.0000000   0.5773503   0.6190631  )

     number of k points=    28
                       cart. coord. in units 2pi/alat
        k(    1) = (   0.0000000   0.0000000   0.0000000), wk =   0.0092593
        k(    2) = (   0.0000000   0.0000000   0.1022180), wk =   0.0185185
        k(    3) = (   0.0000000   0.0000000   0.2044360), wk =   0.0185185
        k(    4) = (   0.0000000   0.0000000  -0.3066540), wk =   0.0092593
        k(    5) = (   0.0000000   0.1924501   0.0000000), wk =   0.0555556
        k(    6) = (   0.0000000   0.1924501   0.1022180), wk =   0.1111111
        k(    7) = (   0.0000000   0.1924501   0.2044360), wk =   0.1111111
        k(    8) = (   0.0000000   0.1924501  -0.3066540), wk =   0.0555556
        k(    9) = (   0.0000000   0.3849002   0.0000000), wk =   0.0555556
        k(   10) = (   0.0000000   0.3849002   0.1022180), wk =   0.1111111
        k(   11) = (   0.0000000   0.3849002   0.2044360), wk =   0.1111111
        k(   12) = (   0.0000000   0.3849002  -0.3066540), wk =   0.0555556
        k(   13) = (   0.0000000  -0.5773503   0.0000000), wk =   0.0277778
        k(   14) = (   0.0000000  -0.5773503   0.1022180), wk =   0.0555556
        k(   15) = (   0.0000000  -0.5773503   0.2044360), wk =   0.0555556
        k(   16) = (   0.0000000  -0.5773503  -0.3066540), wk =   0.0277778
        k(   17) = (   0.1666667   0.2886751   0.0000000), wk =   0.0555556
        k(   18) = (   0.1666667   0.2886751   0.1022180), wk =   0.1111111
        k(   19) = (   0.1666667   0.2886751   0.2044360), wk =   0.1111111
        k(   20) = (   0.1666667   0.2886751  -0.3066540), wk =   0.0555556
        k(   21) = (   0.1666667   0.4811252   0.0000000), wk =   0.1111111
        k(   22) = (   0.1666667   0.4811252   0.1022180), wk =   0.2222222
        k(   23) = (   0.1666667   0.4811252   0.2044360), wk =   0.2222222
        k(   24) = (   0.1666667   0.4811252  -0.3066540), wk =   0.1111111
        k(   25) = (   0.3333333   0.5773503   0.0000000), wk =   0.0185185
        k(   26) = (   0.3333333   0.5773503   0.1022180), wk =   0.0370370
        k(   27) = (   0.3333333   0.5773503   0.2044360), wk =   0.0370370
        k(   28) = (   0.3333333   0.5773503  -0.3066540), wk =   0.0185185

     Dense  grid:    56769 G-vectors     FFT dimensions: (  45,  45,  72)

     Smooth grid:    19945 G-vectors     FFT dimensions: (  32,  32,  50)

     Estimated max dynamical RAM per process >      32.10 MB

     Estimated total dynamical RAM >     256.82 MB

     Check: negative core charge=   -0.000002

     Initial potential from superposition of free atoms

     starting charge      35.9925, renormalised to      36.0000
     Starting wfcs are   26 randomized atomic wfcs

     total cpu time spent up to now is        1.6 secs

     Self-consistent Calculation

     iteration #  1     ecut=    50.00 Ry     beta= 0.30
     Davidson diagonalization with overlap
     ethr =  1.00E-02,  avg # of iterations =  1.2

     total cpu time spent up to now is        2.5 secs

     total energy              =    -361.37730946 Ry
     estimated scf accuracy    <       0.81338596 Ry

     iteration #  2     ecut=    50.00 Ry     beta= 0.30
     Davidson diagonalization with overlap
     ethr =  2.26E-03,  avg # of iterations =  2.2

     total cpu time spent up to now is        3.5 secs

     total energy              =    -361.49568167 Ry
     estimated scf accuracy    <       0.09473665 Ry

     iteration #  3     ecut=    50.00 Ry     beta= 0.30
     Davidson diagonalization with overlap
     ethr =  2.63E-04,  avg # of iterations =  5.8

     total cpu time spent up to now is        5.0 secs

     total energy              =    -361.49515000 Ry
     estimated scf accuracy    <       0.15039065 Ry

     iteration #  4     ecut=    50.00 Ry     beta= 0.30
     Davidson diagonalization with overlap
     ethr =  2.63E-04,  avg # of iterations =  9.5

     total cpu time spent up to now is        7.3 secs

     total energy              =    -361.63456759 Ry
     estimated scf accuracy    <       0.41756382 Ry

     iteration #  5     ecut=    50.00 Ry     beta= 0.30
     Davidson diagonalization with overlap
     ethr =  2.63E-04,  avg # of iterations =  1.0

     total cpu time spent up to now is        8.1 secs

     total energy              =    -361.45488469 Ry
     estimated scf accuracy    <       0.32959061 Ry

     iteration #  6     ecut=    50.00 Ry     beta= 0.30
     Davidson diagonalization with overlap
     ethr =  2.63E-04,  avg # of iterations =  6.8

     total cpu time spent up to now is        9.7 secs

     total energy              =    -361.56927640 Ry
     estimated scf accuracy    <       0.08507025 Ry

     iteration #  7     ecut=    50.00 Ry     beta= 0.30
     Davidson diagonalization with overlap
     ethr =  2.36E-04,  avg # of iterations =  1.1

     total cpu time spent up to now is       10.5 secs

     total energy              =    -361.57741100 Ry
     estimated scf accuracy    <       0.03775149 Ry

     iteration #  8     ecut=    50.00 Ry     beta= 0.30
     Davidson diagonalization with overlap
     ethr =  1.05E-04,  avg # of iterations =  1.0

     total cpu time spent up to now is       11.4 secs

     total energy              =    -361.57910461 Ry
     estimated scf accuracy    <       0.04678584 Ry

     iteration #  9     ecut=    50.00 Ry     beta= 0.30
     Davidson diagonalization with overlap
     ethr =  1.05E-04,  avg # of iterations =  1.0

     total cpu time spent up to now is       12.2 secs

     total energy              =    -361.59004744 Ry
     estimated scf accuracy    <       0.04428254 Ry

     iteration # 10     ecut=    50.00 Ry     beta= 0.30
     Davidson diagonalization with overlap
     ethr =  1.05E-04,  avg # of iterations =  1.1

     total cpu time spent up to now is       13.1 secs

     total energy              =    -361.57517229 Ry
     estimated scf accuracy    <       0.06626848 Ry

     iteration # 11     ecut=    50.00 Ry     beta= 0.30
     Davidson diagonalization with overlap
     ethr =  1.05E-04,  avg # of iterations =  1.0

     total cpu time spent up to now is       13.9 secs

     total energy              =    -361.56337226 Ry
     estimated scf accuracy    <       0.04039818 Ry

     iteration # 12     ecut=    50.00 Ry     beta= 0.30
     Davidson diagonalization with overlap
     ethr =  1.05E-04,  avg # of iterations =  4.0

     total cpu time spent up to now is       15.0 secs

     total energy              =    -361.56944046 Ry
     estimated scf accuracy    <       0.00490837 Ry

     iteration # 13     ecut=    50.00 Ry     beta= 0.30
     Davidson diagonalization with overlap
     ethr =  1.36E-05,  avg # of iterations =  5.8

     total cpu time spent up to now is       16.3 secs

     total energy              =    -361.57276851 Ry
     estimated scf accuracy    <       0.00018841 Ry

     iteration # 14     ecut=    50.00 Ry     beta= 0.30
     Davidson diagonalization with overlap
     c_bands:  1 eigenvalues not converged
     ethr =  5.23E-07,  avg # of iterations = 14.8

     total cpu time spent up to now is       19.5 secs

     total energy              =    -361.57469907 Ry
     estimated scf accuracy    <       0.02815593 Ry

     iteration # 15     ecut=    50.00 Ry     beta= 0.30
     Davidson diagonalization with overlap
     ethr =  5.23E-07,  avg # of iterations =  8.5

     total cpu time spent up to now is       21.5 secs

     total energy              =    -361.56786556 Ry
     estimated scf accuracy    <       0.01417016 Ry

     iteration # 16     ecut=    50.00 Ry     beta= 0.30
     Davidson diagonalization with overlap
     c_bands:  1 eigenvalues not converged
     ethr =  5.23E-07,  avg # of iterations = 14.1

     total cpu time spent up to now is       24.6 secs

     total energy              =    -361.57380310 Ry
     estimated scf accuracy    <       0.00250482 Ry

     iteration # 17     ecut=    50.00 Ry     beta= 0.30
     Davidson diagonalization with overlap
     ethr =  5.23E-07,  avg # of iterations =  7.4

     total cpu time spent up to now is       26.3 secs

     total energy              =    -361.57829123 Ry
     estimated scf accuracy    <       0.00897085 Ry

     iteration # 18     ecut=    50.00 Ry     beta= 0.30
     Davidson diagonalization with overlap
     ethr =  5.23E-07,  avg # of iterations = 12.0

     total cpu time spent up to now is       28.8 secs

     total energy              =    -361.55881470 Ry
     estimated scf accuracy    <       0.03361594 Ry

     iteration # 19     ecut=    50.00 Ry     beta= 0.30
     Davidson diagonalization with overlap
     c_bands:  1 eigenvalues not converged
     c_bands:  2 eigenvalues not converged
     ethr =  5.23E-07,  avg # of iterations = 15.5

     total cpu time spent up to now is       32.4 secs

     total energy              =    -361.57706320 Ry
     estimated scf accuracy    <       0.02237738 Ry

     iteration # 20     ecut=    50.00 Ry     beta= 0.30
     Davidson diagonalization with overlap
     ethr =  5.23E-07,  avg # of iterations =  1.9

     total cpu time spent up to now is       33.3 secs

     total energy              =    -361.57245389 Ry
     estimated scf accuracy    <       0.02221158 Ry

     iteration # 21     ecut=    50.00 Ry     beta= 0.30
     Davidson diagonalization with overlap
     ethr =  5.23E-07,  avg # of iterations = 10.6

     total cpu time spent up to now is       35.7 secs

     total energy              =    -361.57107364 Ry
     estimated scf accuracy    <       0.00593250 Ry

     iteration # 22     ecut=    50.00 Ry     beta= 0.30
     Davidson diagonalization with overlap
     ethr =  5.23E-07,  avg # of iterations = 11.2

     total cpu time spent up to now is       38.2 secs

     total energy              =    -361.57206480 Ry
     estimated scf accuracy    <       0.00000287 Ry

     iteration # 23     ecut=    50.00 Ry     beta= 0.30
     Davidson diagonalization with overlap
     ethr =  7.98E-09,  avg # of iterations =  8.4

     total cpu time spent up to now is       39.8 secs

     total energy              =    -361.57207058 Ry
     estimated scf accuracy    <       0.00000035 Ry

     iteration # 24     ecut=    50.00 Ry     beta= 0.30
     Davidson diagonalization with overlap
     ethr =  9.85E-10,  avg # of iterations =  7.1

     total cpu time spent up to now is       41.2 secs

     total energy              =    -361.57207034 Ry
     estimated scf accuracy    <       0.00000203 Ry

     iteration # 25     ecut=    50.00 Ry     beta= 0.30
     Davidson diagonalization with overlap
     ethr =  9.85E-10,  avg # of iterations =  2.0

     total cpu time spent up to now is       42.2 secs

     total energy              =    -361.57207004 Ry
     estimated scf accuracy    <       0.00000122 Ry

     iteration # 26     ecut=    50.00 Ry     beta= 0.30
     Davidson diagonalization with overlap
     c_bands:  1 eigenvalues not converged
     c_bands:  1 eigenvalues not converged
     ethr =  9.85E-10,  avg # of iterations = 14.4

     total cpu time spent up to now is       45.4 secs

     total energy              =    -361.57206360 Ry
     estimated scf accuracy    <       0.00004403 Ry

     iteration # 27     ecut=    50.00 Ry     beta= 0.30
     Davidson diagonalization with overlap
     c_bands:  1 eigenvalues not converged
     ethr =  9.85E-10,  avg # of iterations = 13.6

     total cpu time spent up to now is       48.4 secs

     total energy              =    -361.57207029 Ry
     estimated scf accuracy    <       0.00000007 Ry

     iteration # 28     ecut=    50.00 Ry     beta= 0.30
     Davidson diagonalization with overlap
     ethr =  2.03E-10,  avg # of iterations =  6.0

     total cpu time spent up to now is       49.6 secs

     End of self-consistent calculation

          k = 0.0000 0.0000 0.0000 (  2539 PWs)   bands (ev):

   -12.5177 -12.1379  -1.0322  -1.0322  -1.0126  -0.9236  -0.9236  -0.4840
    -0.4840  -0.4404  -0.3773  -0.3773   0.1960   3.3399   3.3399   3.8019
     3.8447   3.8447

          k = 0.0000 0.0000 0.1022 (  2515 PWs)   bands (ev):

   -12.4930 -12.1641  -1.0277  -1.0277  -1.0220  -0.9339  -0.9339  -0.6402
    -0.4742  -0.4742  -0.3818  -0.3818   0.5218   3.1904   3.3744   3.3744
     3.8116   3.8116

          k = 0.0000 0.0000 0.2044 (  2508 PWs)   bands (ev):

   -12.4249 -12.2350  -1.0325  -1.0139  -1.0139  -0.9598  -0.9598  -0.8742
    -0.4499  -0.4499  -0.3965  -0.3965   1.1137   2.4695   3.4682   3.4682
     3.7206   3.7206

          k = 0.0000 0.0000-0.3067 (  2484 PWs)   bands (ev):

   -12.3307 -12.3307  -0.9992  -0.9992  -0.9896  -0.9896  -0.9896  -0.9896
    -0.4206  -0.4206  -0.4206  -0.4206   1.7765   1.7765   3.5952   3.5952
     3.5952   3.5952

          k = 0.0000 0.1925 0.0000 (  2533 PWs)   bands (ev):

   -12.4356 -12.1011  -1.0617  -0.9827  -0.9663  -0.8939  -0.8505  -0.5171
    -0.5105  -0.4834  -0.3720  -0.2691   0.3910   2.5202   2.7960   3.1044
     3.6814   3.7156

          k = 0.0000 0.1925 0.1022 (  2516 PWs)   bands (ev):

   -12.4136 -12.1239  -1.0675  -0.9763  -0.9704  -0.9057  -0.8621  -0.6364
    -0.4951  -0.4743  -0.3777  -0.3307   0.6695   2.4569   2.7669   3.1462
     3.6126   3.6754

          k = 0.0000 0.1925 0.2044 (  2516 PWs)   bands (ev):

   -12.3531 -12.1858  -1.0739  -0.9898  -0.9574  -0.9274  -0.8919  -0.8232
    -0.4595  -0.4509  -0.3952  -0.3761   1.1777   2.1438   2.8941   3.2597
     3.4146   3.5651

          k = 0.0000 0.1925-0.3067 (  2518 PWs)   bands (ev):

   -12.2698 -12.2698  -1.0474  -1.0474  -0.9274  -0.9274  -0.9084  -0.9084
    -0.4217  -0.4217  -0.4165  -0.4165   1.6925   1.6925   3.1443   3.1443
     3.4131   3.4131

          k = 0.0000 0.3849 0.0000 (  2515 PWs)   bands (ev):

   -12.2546 -12.0388  -1.0566  -0.9073  -0.9036  -0.7265  -0.6860  -0.5801
    -0.4871  -0.4409  -0.3615  -0.2288   0.8040   1.3325   1.9182   2.6398
     3.3054   3.4412

          k = 0.0000 0.3849 0.1022 (  2513 PWs)   bands (ev):

   -12.2398 -12.0529  -1.0656  -0.9267  -0.8946  -0.7353  -0.7030  -0.6202
    -0.4848  -0.4364  -0.3682  -0.2673   0.8447   1.3824   1.9990   2.6954
     3.3089   3.3886

          k = 0.0000 0.3849 0.2044 (  2513 PWs)   bands (ev):

   -12.1997 -12.0917  -1.0771  -0.9890  -0.8582  -0.7523  -0.7476  -0.7109
    -0.4434  -0.4237  -0.3849  -0.3279   0.9581   1.2989   2.3801   2.8453
     3.2014   3.2446

          k = 0.0000 0.3849-0.3067 (  2518 PWs)   bands (ev):

   -12.1453 -12.1453  -1.0551  -1.0551  -0.8050  -0.8050  -0.7533  -0.7533
    -0.4051  -0.4051  -0.3865  -0.3865   1.1221   1.1221   2.8640   2.8640
     3.0463   3.0463

          k = 0.0000-0.5774 0.0000 (  2490 PWs)   bands (ev):

   -12.1430 -12.0260  -1.0363  -0.8853  -0.7896  -0.6666  -0.5979  -0.5259
    -0.3905  -0.3836  -0.3518  -0.3068   0.5467   1.0604   1.8193   2.4018
     2.9612   3.2973

          k = 0.0000-0.5774 0.1022 (  2498 PWs)   bands (ev):

   -12.1345 -12.0331  -1.0479  -0.8684  -0.8511  -0.6634  -0.6190  -0.5278
    -0.3895  -0.3771  -0.3581  -0.3068   0.5202   0.9726   2.0279   2.4649
     3.0300   3.2389

          k = 0.0000-0.5774 0.2044 (  2478 PWs)   bands (ev):

   -12.1116 -12.0530  -1.0643  -0.9646  -0.8205  -0.6759  -0.6485  -0.5661
    -0.3857  -0.3696  -0.3489  -0.3099   0.5291   0.7920   2.4746   2.6339
     3.0775   3.0792

          k = 0.0000-0.5774-0.3067 (  2484 PWs)   bands (ev):

   -12.0816 -12.0816  -1.0448  -1.0448  -0.7508  -0.7508  -0.6154  -0.6154
    -0.3794  -0.3794  -0.3228  -0.3228   0.6268   0.6268   2.8587   2.8587
     2.8887   2.8887

          k = 0.1667 0.2887 0.0000 (  2513 PWs)   bands (ev):

   -12.3034 -12.0519  -1.0103  -0.9718  -0.8923  -0.8274  -0.7161  -0.5360
    -0.5294  -0.4657  -0.3648  -0.2293   0.7283   1.8067   1.9882   2.6515
     3.3845   3.4420

          k = 0.1667 0.2887 0.1022 (  2506 PWs)   bands (ev):

   -12.2864 -12.0686  -1.0213  -0.9687  -0.8966  -0.8369  -0.7306  -0.6212
    -0.5125  -0.4506  -0.3711  -0.2748   0.8717   1.7469   2.1229   2.6741
     3.3290   3.4281

          k = 0.1667 0.2887 0.2044 (  2510 PWs)   bands (ev):

   -12.2400 -12.1142  -1.0387  -0.9784  -0.8935  -0.8557  -0.7674  -0.7638
    -0.4590  -0.4320  -0.3871  -0.3356   1.1275   1.5842   2.4864   2.7788
     3.1804   3.2908

          k = 0.1667 0.2887-0.3067 (  2520 PWs)   bands (ev):

   -12.1770 -12.1770  -1.0228  -1.0228  -0.8739  -0.8739  -0.8019  -0.8019
    -0.4148  -0.4148  -0.3910  -0.3910   1.3684   1.3684   2.8892   2.8892
     3.0245   3.0245

          k = 0.1667 0.4811 0.0000 (  2486 PWs)   bands (ev):

   -12.1462 -12.0241  -1.0034  -0.8767  -0.7397  -0.6660  -0.5856  -0.5708
    -0.4739  -0.4343  -0.3365  -0.2205   0.7460   1.1359   1.8181   2.0950
     2.9614   3.0487

          k = 0.1667 0.4811 0.1022 (  2491 PWs)   bands (ev):

   -12.1374 -12.0316  -0.9995  -0.8833  -0.7834  -0.6731  -0.6088  -0.5959
    -0.4697  -0.4147  -0.3356  -0.2315   0.7184   1.0879   1.9285   2.2384
     2.9260   3.0783

          k = 0.1667 0.4811 0.2044 (  2500 PWs)   bands (ev):

   -12.1137 -12.0525  -0.9975  -0.9149  -0.8273  -0.6949  -0.6660  -0.6451
    -0.4333  -0.4020  -0.3251  -0.2610   0.7281   0.9556   2.1600   2.5921
     2.7510   3.1320

          k = 0.1667 0.4811-0.3067 (  2502 PWs)   bands (ev):

   -12.0824 -12.0824  -0.9775  -0.9775  -0.7727  -0.7727  -0.6699  -0.6699
    -0.4075  -0.4075  -0.2972  -0.2972   0.8170   0.8170   2.4404   2.4404
     2.9859   2.9859

          k = 0.3333 0.5774 0.0000 (  2460 PWs)   bands (ev):

   -12.0545 -12.0545  -1.0106  -0.7496  -0.7496  -0.5574  -0.5082  -0.5082
    -0.4652  -0.4474  -0.2707  -0.2707   0.9567   0.9567   1.2066   2.5091
     2.5091   2.6357

          k = 0.3333 0.5774 0.1022 (  2490 PWs)   bands (ev):

   -12.0537 -12.0537  -0.9892  -0.7816  -0.7816  -0.5949  -0.5220  -0.5220
    -0.4753  -0.4505  -0.2516  -0.2516   0.8975   0.8975   1.3122   2.5399
     2.6495   2.6495

          k = 0.3333 0.5774 0.2044 (  2481 PWs)   bands (ev):

   -12.0520 -12.0520  -0.9249  -0.8452  -0.8452  -0.7009  -0.5402  -0.5402
    -0.4768  -0.4584  -0.2209  -0.2209   0.8043   0.8043   1.5842   2.2828
     2.9092   2.9092

          k = 0.3333 0.5774-0.3067 (  2520 PWs)   bands (ev):

   -12.0512 -12.0512  -0.8769  -0.8769  -0.8240  -0.8240  -0.5473  -0.5473
    -0.4689  -0.4689  -0.2084  -0.2084   0.7663   0.7663   1.9362   1.9362
     3.0326   3.0326

     highest occupied level (ev):     3.8447

!    total energy              =    -361.57207032 Ry
     estimated scf accuracy    <          1.8E-09 Ry

     The total energy is the sum of the following terms:
     one-electron contribution =    -181.26927126 Ry
     hartree contribution      =     128.02469433 Ry
     xc contribution           =    -109.11532292 Ry
     ewald contribution        =    -199.21217046 Ry

     convergence has been achieved in  28 iterations

     Forces acting on atoms (cartesian axes, Ry/au):

     atom    1 type  1   force =     0.00000000    0.00000000   -0.00066603
     atom    2 type  1   force =     0.00000000    0.00000000   -0.00066603
     atom    3 type  2   force =     0.00000000    0.00000000    0.00066603
     atom    4 type  2   force =     0.00000000    0.00000000    0.00066603
     The non-local contrib.  to forces
     atom    1 type  1   force =     0.00000000   -0.00000000    0.02028086
     atom    2 type  1   force =     0.00000000    0.00000000    0.02028086
     atom    3 type  2   force =    -0.00000000    0.00000000    0.03299008
     atom    4 type  2   force =     0.00000000   -0.00000000    0.03299008
     The ionic contribution  to forces
     atom    1 type  1   force =    -0.00000000    0.00000000    0.22815717
     atom    2 type  1   force =     0.00000000   -0.00000000    0.22815717
     atom    3 type  2   force =    -0.00000000    0.00000000   -0.22815717
     atom    4 type  2   force =     0.00000000   -0.00000000   -0.22815717
     The local contribution  to forces
     atom    1 type  1   force =    -0.00000002    0.00000001   -0.24790998
     atom    2 type  1   force =     0.00000007   -0.00000004   -0.24790999
     atom    3 type  2   force =    -0.00000001    0.00000000    0.19617821
     atom    4 type  2   force =     0.00000002   -0.00000001    0.19617821
     The core correction contribution to forces
     atom    1 type  1   force =    -0.00000000    0.00000000   -0.00120357
     atom    2 type  1   force =     0.00000001   -0.00000001   -0.00120357
     atom    3 type  2   force =     0.00000000   -0.00000000   -0.00031240
     atom    4 type  2   force =    -0.00000000    0.00000000   -0.00031240
     The Hubbard contrib.    to forces
     atom    1 type  1   force =     0.00000000    0.00000000    0.00000000
     atom    2 type  1   force =     0.00000000    0.00000000    0.00000000
     atom    3 type  2   force =     0.00000000    0.00000000    0.00000000
     atom    4 type  2   force =     0.00000000    0.00000000    0.00000000
     The SCF correction term to forces
     atom    1 type  1   force =    -0.00000000    0.00000000    0.00001657
     atom    2 type  1   force =     0.00000000   -0.00000000    0.00001657
     atom    3 type  2   force =    -0.00000000    0.00000000   -0.00002564
     atom    4 type  2   force =     0.00000000   -0.00000000   -0.00002564

     Total force =     0.001332     Total SCF correction =     0.000043


     Computing stress (Cartesian axis) and pressure

          total   stress  (Ry/bohr**3)                   (kbar)     P=     -188.99
  -0.00127315   0.00000000  -0.00000000         -187.29        0.00       -0.00
   0.00000000  -0.00127315  -0.00000000            0.00     -187.29       -0.00
  -0.00000000  -0.00000000  -0.00130780           -0.00       -0.00     -192.38


     Writing all to output data dir ./ZnO_ANN.save/

     init_run     :      1.94s CPU      1.30s WALL (       1 calls)
     electrons    :    130.94s CPU     48.02s WALL (       1 calls)
     forces       :      0.82s CPU      0.38s WALL (       1 calls)
     stress       :      3.02s CPU      1.53s WALL (       1 calls)

     Called by init_run:
     wfcinit      :      1.04s CPU      0.40s WALL (       1 calls)
     potinit      :      0.26s CPU      0.27s WALL (       1 calls)
     hinit0       :      0.44s CPU      0.46s WALL (       1 calls)

     Called by electrons:
     c_bands      :    110.78s CPU     40.13s WALL (      28 calls)
     sum_band     :     14.62s CPU      5.60s WALL (      28 calls)
     v_of_rho     :      1.22s CPU      0.56s WALL (      29 calls)
     newd         :      4.05s CPU      1.66s WALL (      29 calls)
     mix_rho      :      0.21s CPU      0.09s WALL (      28 calls)

     Called by c_bands:
     init_us_2    :      1.52s CPU      0.53s WALL (    1652 calls)
     init_us_2:cp :      1.50s CPU      0.52s WALL (    1652 calls)
     cegterg      :    107.46s CPU     38.86s WALL (     784 calls)

     Called by *egterg:
     cdiaghg      :     18.34s CPU      6.13s WALL (    6081 calls)
     h_psi        :     68.53s CPU     27.77s WALL (    6109 calls)
     s_psi        :      1.83s CPU      0.53s WALL (    6109 calls)
     g_psi        :      0.76s CPU      0.18s WALL (    5297 calls)

     Called by h_psi:
     h_psi:calbec :      2.65s CPU      0.94s WALL (    6109 calls)
     vloc_psi     :     63.23s CPU     25.99s WALL (    6109 calls)
     add_vuspsi   :      1.87s CPU      0.60s WALL (    6109 calls)

     General routines
     calbec       :      3.28s CPU      1.13s WALL (    7033 calls)
     fft          :      0.88s CPU      0.51s WALL (     400 calls)
     ffts         :      0.15s CPU      0.12s WALL (      57 calls)
     fftw         :     59.54s CPU     24.59s WALL (  143220 calls)
     interpolate  :      0.19s CPU      0.14s WALL (      29 calls)

     Parallel routines

     PWSCF        :   2m17.25s CPU     51.72s WALL


   This run was terminated on:  19:28:42  13Jun2025            

=------------------------------------------------------------------------------=
   JOB DONE.
=------------------------------------------------------------------------------=
Note: The following floating-point exceptions are signalling: IEEE_INVALID_FLAG
