Authorization required, but no authorization protocol specified

Authorization required, but no authorization protocol specified

Authorization required, but no authorization protocol specified

Authorization required, but no authorization protocol specified

Authorization required, but no authorization protocol specified

Authorization required, but no authorization protocol specified

Authorization required, but no authorization protocol specified

Authorization required, but no authorization protocol specified

Authorization required, but no authorization protocol specified

Authorization required, but no authorization protocol specified


     Program PWSCF v.7.2 starts on 13Jun2025 at 17:29: 1 

     This program is part of the open-source Quantum ESPRESSO suite
     for quantum simulation of materials; please cite
         "P. Giannozzi et al., J. Phys.:Condens. Matter 21 395502 (2009);
         "P. Giannozzi et al., J. Phys.:Condens. Matter 29 465901 (2017);
         "P. Giannozzi et al., J. Chem. Phys. 152 154105 (2020);
          URL http://www.quantum-espresso.org", 
     in publications or presentations arising from this work. More details at
     http://www.quantum-espresso.org/quote

     Parallel version (MPI), running on     8 processors

     MPI processes distributed on     1 nodes
     120713 MiB available memory on the printing compute node when the environment starts

     Reading input from /home/jvc/QEspresso7.2/ZnO_database_python/SCFs.in/scf-6.24-1.61.in

     Current dimensions of program PWSCF are:
     Max number of different atomic species (ntypx) = 10
     Max number of k-points (npk) =  40000
     Max angular momentum in pseudopotentials (lmaxx) =  4
     file Zn.upf: wavefunction(s)  3D renormalized

     R & G space division:  proc/nbgrp/npool/nimage =       8
     Subspace diagonalization in iterative solution of the eigenvalue problem:
     a serial algorithm will be used


     Parallelization info
     --------------------
     sticks:   dense  smooth     PW     G-vecs:    dense   smooth      PW
     Min         133      66     20                 5731     2028     342
     Max         134      68     21                 5738     2031     347
     Sum        1069     535    163                45881    16239    2755

     Using Slab Decomposition



     bravais-lattice index     =            4
     lattice parameter (alat)  =       6.2406  a.u.
     unit-cell volume          =     339.7908 (a.u.)^3
     number of atoms/cell      =            4
     number of atomic types    =            2
     number of electrons       =        36.00
     number of Kohn-Sham states=           18
     kinetic-energy cutoff     =      50.0000  Ry
     charge density cutoff     =     400.0000  Ry
     scf convergence threshold =      1.0E-08
     mixing beta               =       0.3000
     number of iterations used =            8  plain     mixing
     Exchange-correlation= PBE
                           (   1   4   3   4   0   0   0)

     celldm(1)=   6.240610  celldm(2)=   0.000000  celldm(3)=   1.614358
     celldm(4)=   0.000000  celldm(5)=   0.000000  celldm(6)=   0.000000

     crystal axes: (cart. coord. in units of alat)
               a(1) = (   1.000000   0.000000   0.000000 )  
               a(2) = (  -0.500000   0.866025   0.000000 )  
               a(3) = (   0.000000   0.000000   1.614358 )  

     reciprocal axes: (cart. coord. in units 2 pi/alat)
               b(1) = (  1.000000  0.577350 -0.000000 )  
               b(2) = (  0.000000  1.154701  0.000000 )  
               b(3) = (  0.000000 -0.000000  0.619441 )  


     PseudoPot. # 1 for Zn read from file:
     /home/jvc/QEspresso7.2/ZnO_database/pseudos/Zn.upf
     MD5 check sum: 7f56cabf9682ed8c977c2f7d0c5985c5
     Pseudo is Ultrasoft + core correction, Zval = 12.0
     Generated using &quot;atomic&quot; code by A. Dal Corso  v.6.2.2
     Using radial grid of 1201 points,  6 beta functions with: 
                l(1) =   0
                l(2) =   0
                l(3) =   1
                l(4) =   1
                l(5) =   2
                l(6) =   2
     Q(r) pseudized with 0 coefficients 


     PseudoPot. # 2 for O  read from file:
     /home/jvc/QEspresso7.2/ZnO_database/pseudos/O.upf
     MD5 check sum: 91400c9766925bcf19f520983a725ff0
     Pseudo is Ultrasoft + core correction, Zval =  6.0
     Generated using &quot;atomic&quot; code by A. Dal Corso  v.6.3MaX
     Using radial grid of 1095 points,  4 beta functions with: 
                l(1) =   0
                l(2) =   0
                l(3) =   1
                l(4) =   1
     Q(r) pseudized with 0 coefficients 


     atomic species   valence    mass     pseudopotential
        Zn            12.00    63.38000     Zn( 1.00)
        O              6.00    15.99900     O ( 1.00)

     12 Sym. Ops. (no inversion) found ( 6 have fractional translation)



   Cartesian axes

     site n.     atom                  positions (alat units)
         1           Zn  tau(   1) = (   0.5000000   0.2886751   0.8082020  )
         2           Zn  tau(   2) = (  -0.0000000   0.5773503   0.0010228  )
         3           O   tau(   3) = (   0.5000000   0.2886751   1.4201130  )
         4           O   tau(   4) = (  -0.0000000   0.5773503   0.6129338  )

     number of k points=    28
                       cart. coord. in units 2pi/alat
        k(    1) = (   0.0000000   0.0000000   0.0000000), wk =   0.0092593
        k(    2) = (   0.0000000   0.0000000   0.1032402), wk =   0.0185185
        k(    3) = (   0.0000000   0.0000000   0.2064804), wk =   0.0185185
        k(    4) = (   0.0000000   0.0000000  -0.3097206), wk =   0.0092593
        k(    5) = (   0.0000000   0.1924501   0.0000000), wk =   0.0555556
        k(    6) = (   0.0000000   0.1924501   0.1032402), wk =   0.1111111
        k(    7) = (   0.0000000   0.1924501   0.2064804), wk =   0.1111111
        k(    8) = (   0.0000000   0.1924501  -0.3097206), wk =   0.0555556
        k(    9) = (   0.0000000   0.3849002   0.0000000), wk =   0.0555556
        k(   10) = (   0.0000000   0.3849002   0.1032402), wk =   0.1111111
        k(   11) = (   0.0000000   0.3849002   0.2064804), wk =   0.1111111
        k(   12) = (   0.0000000   0.3849002  -0.3097206), wk =   0.0555556
        k(   13) = (   0.0000000  -0.5773503   0.0000000), wk =   0.0277778
        k(   14) = (   0.0000000  -0.5773503   0.1032402), wk =   0.0555556
        k(   15) = (   0.0000000  -0.5773503   0.2064804), wk =   0.0555556
        k(   16) = (   0.0000000  -0.5773503  -0.3097206), wk =   0.0277778
        k(   17) = (   0.1666667   0.2886751   0.0000000), wk =   0.0555556
        k(   18) = (   0.1666667   0.2886751   0.1032402), wk =   0.1111111
        k(   19) = (   0.1666667   0.2886751   0.2064804), wk =   0.1111111
        k(   20) = (   0.1666667   0.2886751  -0.3097206), wk =   0.0555556
        k(   21) = (   0.1666667   0.4811252   0.0000000), wk =   0.1111111
        k(   22) = (   0.1666667   0.4811252   0.1032402), wk =   0.2222222
        k(   23) = (   0.1666667   0.4811252   0.2064804), wk =   0.2222222
        k(   24) = (   0.1666667   0.4811252  -0.3097206), wk =   0.1111111
        k(   25) = (   0.3333333   0.5773503   0.0000000), wk =   0.0185185
        k(   26) = (   0.3333333   0.5773503   0.1032402), wk =   0.0370370
        k(   27) = (   0.3333333   0.5773503   0.2064804), wk =   0.0370370
        k(   28) = (   0.3333333   0.5773503  -0.3097206), wk =   0.0185185

     Dense  grid:    45881 G-vectors     FFT dimensions: (  40,  40,  72)

     Smooth grid:    16239 G-vectors     FFT dimensions: (  30,  30,  48)

     Estimated max dynamical RAM per process >      26.55 MB

     Estimated total dynamical RAM >     212.37 MB

     Check: negative core charge=   -0.000002

     Initial potential from superposition of free atoms

     starting charge      35.9925, renormalised to      36.0000
     Starting wfcs are   26 randomized atomic wfcs

     total cpu time spent up to now is        1.6 secs

     Self-consistent Calculation

     iteration #  1     ecut=    50.00 Ry     beta= 0.30
     Davidson diagonalization with overlap
     ethr =  1.00E-02,  avg # of iterations =  1.9

     total cpu time spent up to now is        2.5 secs

     total energy              =    -361.47399795 Ry
     estimated scf accuracy    <       0.70496340 Ry

     iteration #  2     ecut=    50.00 Ry     beta= 0.30
     Davidson diagonalization with overlap
     ethr =  1.96E-03,  avg # of iterations =  2.0

     total cpu time spent up to now is        3.5 secs

     total energy              =    -361.57754634 Ry
     estimated scf accuracy    <       0.08742645 Ry

     iteration #  3     ecut=    50.00 Ry     beta= 0.30
     Davidson diagonalization with overlap
     ethr =  2.43E-04,  avg # of iterations =  6.4

     total cpu time spent up to now is        5.1 secs

     total energy              =    -361.60665010 Ry
     estimated scf accuracy    <       0.06444965 Ry

     iteration #  4     ecut=    50.00 Ry     beta= 0.30
     Davidson diagonalization with overlap
     ethr =  1.79E-04,  avg # of iterations =  8.6

     total cpu time spent up to now is        7.2 secs

     total energy              =    -361.65877526 Ry
     estimated scf accuracy    <       0.31248231 Ry

     iteration #  5     ecut=    50.00 Ry     beta= 0.30
     Davidson diagonalization with overlap
     ethr =  1.79E-04,  avg # of iterations =  2.0

     total cpu time spent up to now is        8.1 secs

     total energy              =    -361.60839834 Ry
     estimated scf accuracy    <       0.19286206 Ry

     iteration #  6     ecut=    50.00 Ry     beta= 0.30
     Davidson diagonalization with overlap
     ethr =  1.79E-04,  avg # of iterations =  4.7

     total cpu time spent up to now is        9.3 secs

     total energy              =    -361.62212385 Ry
     estimated scf accuracy    <       0.02128195 Ry

     iteration #  7     ecut=    50.00 Ry     beta= 0.30
     Davidson diagonalization with overlap
     ethr =  5.91E-05,  avg # of iterations =  5.8

     total cpu time spent up to now is       10.8 secs

     total energy              =    -361.64328969 Ry
     estimated scf accuracy    <       0.01330330 Ry

     iteration #  8     ecut=    50.00 Ry     beta= 0.30
     Davidson diagonalization with overlap
     ethr =  3.70E-05,  avg # of iterations =  2.0

     total cpu time spent up to now is       11.7 secs

     total energy              =    -361.64325338 Ry
     estimated scf accuracy    <       0.02150616 Ry

     iteration #  9     ecut=    50.00 Ry     beta= 0.30
     Davidson diagonalization with overlap
     ethr =  3.70E-05,  avg # of iterations =  1.1

     total cpu time spent up to now is       12.5 secs

     total energy              =    -361.64389017 Ry
     estimated scf accuracy    <       0.02183550 Ry

     iteration # 10     ecut=    50.00 Ry     beta= 0.30
     Davidson diagonalization with overlap
     ethr =  3.70E-05,  avg # of iterations =  1.1

     total cpu time spent up to now is       13.3 secs

     total energy              =    -361.63866149 Ry
     estimated scf accuracy    <       0.02450285 Ry

     iteration # 11     ecut=    50.00 Ry     beta= 0.30
     Davidson diagonalization with overlap
     ethr =  3.70E-05,  avg # of iterations =  1.0

     total cpu time spent up to now is       14.1 secs

     total energy              =    -361.63144457 Ry
     estimated scf accuracy    <       0.01535781 Ry

     iteration # 12     ecut=    50.00 Ry     beta= 0.30
     Davidson diagonalization with overlap
     ethr =  3.70E-05,  avg # of iterations =  4.8

     total cpu time spent up to now is       15.4 secs

     total energy              =    -361.63609403 Ry
     estimated scf accuracy    <       0.00033475 Ry

     iteration # 13     ecut=    50.00 Ry     beta= 0.30
     Davidson diagonalization with overlap
     ethr =  9.30E-07,  avg # of iterations =  6.9

     total cpu time spent up to now is       16.9 secs

     total energy              =    -361.63688167 Ry
     estimated scf accuracy    <       0.00133835 Ry

     iteration # 14     ecut=    50.00 Ry     beta= 0.30
     Davidson diagonalization with overlap
     ethr =  9.30E-07,  avg # of iterations =  1.2

     total cpu time spent up to now is       17.7 secs

     total energy              =    -361.63559837 Ry
     estimated scf accuracy    <       0.00155828 Ry

     iteration # 15     ecut=    50.00 Ry     beta= 0.30
     Davidson diagonalization with overlap
     ethr =  9.30E-07,  avg # of iterations = 10.6

     total cpu time spent up to now is       20.2 secs

     total energy              =    -361.63608900 Ry
     estimated scf accuracy    <       0.00747117 Ry

     iteration # 16     ecut=    50.00 Ry     beta= 0.30
     Davidson diagonalization with overlap
     ethr =  9.30E-07,  avg # of iterations =  7.8

     total cpu time spent up to now is       22.1 secs

     total energy              =    -361.63631795 Ry
     estimated scf accuracy    <       0.00103458 Ry

     iteration # 17     ecut=    50.00 Ry     beta= 0.30
     Davidson diagonalization with overlap
     ethr =  9.30E-07,  avg # of iterations =  4.6

     total cpu time spent up to now is       23.3 secs

     total energy              =    -361.63633801 Ry
     estimated scf accuracy    <       0.00017929 Ry

     iteration # 18     ecut=    50.00 Ry     beta= 0.30
     Davidson diagonalization with overlap
     ethr =  4.98E-07,  avg # of iterations =  4.9

     total cpu time spent up to now is       24.6 secs

     total energy              =    -361.63644120 Ry
     estimated scf accuracy    <       0.00000580 Ry

     iteration # 19     ecut=    50.00 Ry     beta= 0.30
     Davidson diagonalization with overlap
     ethr =  1.61E-08,  avg # of iterations = 10.5

     total cpu time spent up to now is       27.1 secs

     total energy              =    -361.63640494 Ry
     estimated scf accuracy    <       0.00024471 Ry

     iteration # 20     ecut=    50.00 Ry     beta= 0.30
     Davidson diagonalization with overlap
     ethr =  1.61E-08,  avg # of iterations =  9.7

     total cpu time spent up to now is       29.4 secs

     total energy              =    -361.63642676 Ry
     estimated scf accuracy    <       0.00001144 Ry

     iteration # 21     ecut=    50.00 Ry     beta= 0.30
     Davidson diagonalization with overlap
     ethr =  1.61E-08,  avg # of iterations =  5.1

     total cpu time spent up to now is       30.7 secs

     total energy              =    -361.63642916 Ry
     estimated scf accuracy    <       0.00000005 Ry

     iteration # 22     ecut=    50.00 Ry     beta= 0.30
     Davidson diagonalization with overlap
     ethr =  1.27E-10,  avg # of iterations =  9.2

     total cpu time spent up to now is       32.7 secs

     total energy              =    -361.63642949 Ry
     estimated scf accuracy    <       0.00000004 Ry

     iteration # 23     ecut=    50.00 Ry     beta= 0.30
     Davidson diagonalization with overlap
     ethr =  1.00E-10,  avg # of iterations =  6.9

     total cpu time spent up to now is       34.4 secs

     total energy              =    -361.63642944 Ry
     estimated scf accuracy    <       0.00000037 Ry

     iteration # 24     ecut=    50.00 Ry     beta= 0.30
     Davidson diagonalization with overlap
     ethr =  1.00E-10,  avg # of iterations =  3.1

     total cpu time spent up to now is       35.4 secs

     total energy              =    -361.63642934 Ry
     estimated scf accuracy    <       0.00000021 Ry

     iteration # 25     ecut=    50.00 Ry     beta= 0.30
     Davidson diagonalization with overlap
     ethr =  1.00E-10,  avg # of iterations =  8.8

     total cpu time spent up to now is       37.5 secs

     total energy              =    -361.63642942 Ry
     estimated scf accuracy    <       0.00000003 Ry

     iteration # 26     ecut=    50.00 Ry     beta= 0.30
     Davidson diagonalization with overlap
     ethr =  9.15E-11,  avg # of iterations =  2.0

     total cpu time spent up to now is       38.4 secs

     End of self-consistent calculation

          k = 0.0000 0.0000 0.0000 (  1985 PWs)   bands (ev):

   -11.2010 -10.5635   1.0154   1.0154   1.0526   1.1918   1.1918   1.2273
     2.0425   2.0425   2.2260   2.2260   2.4874   5.7283   5.7283   6.3841
     6.4574   6.4574

          k = 0.0000 0.0000 0.1032 (  2009 PWs)   bands (ev):

   -11.1603 -10.6082   1.0111   1.0218   1.0218   1.0870   1.1737   1.1737
     2.0591   2.0591   2.2184   2.2184   2.8050   5.7781   5.7781   5.8156
     6.4098   6.4098

          k = 0.0000 0.0000 0.2065 (  1991 PWs)   bands (ev):

   -11.0476 -10.7289   0.9115   0.9214   1.0432   1.0432   1.1302   1.1302
     2.1019   2.1019   2.1946   2.1946   3.4777   5.0353   5.9138   5.9138
     6.2787   6.2787

          k = 0.0000 0.0000-0.3097 (  2002 PWs)   bands (ev):

   -10.8902 -10.8902   0.8623   0.8623   1.0810   1.0810   1.0810   1.0810
     2.1529   2.1529   2.1529   2.1529   4.2503   4.2503   6.0973   6.0973
     6.0973   6.0973

          k = 0.0000 0.1925 0.0000 (  2014 PWs)   bands (ev):

   -11.0703 -10.5071   0.8953   1.0894   1.1129   1.1977   1.3027   1.4212
     1.9905   2.0414   2.2360   2.3616   2.4573   4.8437   5.3513   5.4049
     6.2116   6.2809

          k = 0.0000 0.1925 0.1032 (  2012 PWs)   bands (ev):

   -11.0336 -10.5459   0.8696   1.0592   1.0985   1.1564   1.2825   1.3074
     2.0182   2.0573   2.2260   2.2736   2.8694   4.8858   5.2117   5.4657
     6.1346   6.2240

          k = 0.0000 0.1925 0.2065 (  2006 PWs)   bands (ev):

   -10.9327 -10.6510   0.8112   0.8844   1.1271   1.1387   1.2190   1.2323
     2.0818   2.0987   2.1967   2.2197   3.5373   4.7007   5.2114   5.6299
     5.8799   6.0673

          k = 0.0000 0.1925-0.3097 (  2004 PWs)   bands (ev):

   -10.7930 -10.7930   0.7920   0.7920   1.1653   1.1653   1.1744   1.1744
     2.1505   2.1505   2.1553   2.1553   4.1863   4.1863   5.5207   5.5207
     5.8504   5.8504

          k = 0.0000 0.3849 0.0000 (  2018 PWs)   bands (ev):

   -10.7774 -10.4127   0.7816   1.0948   1.2083   1.4108   1.5699   1.7149
     1.9766   2.1088   2.2543   2.4265   2.7214   3.4375   4.2530   4.7438
     5.6988   5.8979

          k = 0.0000 0.3849 0.1032 (  2031 PWs)   bands (ev):

   -10.7523 -10.4362   0.7537   1.0165   1.2271   1.3869   1.5390   1.5827
     2.0072   2.1173   2.2417   2.3616   2.9695   3.5748   4.2356   4.8279
     5.7133   5.8246

          k = 0.0000 0.3849 0.2065 (  2035 PWs)   bands (ev):

   -10.6840 -10.5013   0.7039   0.8364   1.2819   1.3586   1.4432   1.4606
     2.0925   2.1410   2.2116   2.2822   3.2520   3.6562   4.5451   5.0504
     5.5880   5.6228

          k = 0.0000 0.3849-0.3097 (  2032 PWs)   bands (ev):

   -10.5918 -10.5918   0.7130   0.7130   1.3655   1.3655   1.3754   1.3754
     2.1749   2.1749   2.1911   2.1911   3.4804   3.4804   5.1535   5.1535
     5.3415   5.3415

          k = 0.0000-0.5774 0.0000 (  2028 PWs)   bands (ev):

   -10.5925 -10.3969   0.8468   1.0765   1.2466   1.6066   1.6512   1.7324
     2.0821   2.1940   2.2680   2.3357   2.8072   3.0915   3.7992   4.3807
     5.2583   5.6902

          k = 0.0000-0.5774 0.1032 (  2024 PWs)   bands (ev):

   -10.5778 -10.4082   0.8076   0.9813   1.2721   1.5892   1.6108   1.6914
     2.1401   2.1965   2.2561   2.3348   2.7722   3.0330   4.0753   4.4811
     5.3441   5.6092

          k = 0.0000-0.5774 0.2065 (  2032 PWs)   bands (ev):

   -10.5385 -10.4404   0.7310   0.8062   1.3455   1.5584   1.5626   1.5858
     2.2029   2.2323   2.2334   2.3269   2.7597   2.9161   4.6514   4.7404
     5.3853   5.4097

          k = 0.0000-0.5774-0.3097 (  2056 PWs)   bands (ev):

   -10.4877 -10.4877   0.7096   0.7096   1.4574   1.4574   1.5451   1.5451
     2.2147   2.2147   2.2965   2.2965   2.8134   2.8134   5.0710   5.0710
     5.1773   5.1773

          k = 0.1667 0.2887 0.0000 (  2037 PWs)   bands (ev):

   -10.8572 -10.4322   0.8750   1.0460   1.2167   1.2786   1.5107   1.6784
     1.9453   2.0616   2.2474   2.4308   2.6458   4.0696   4.2364   4.8541
     5.8481   5.8847

          k = 0.1667 0.2887 0.1032 (  2038 PWs)   bands (ev):

   -10.8285 -10.4602   0.8418   1.0083   1.2093   1.2538   1.4842   1.5078
     1.9843   2.0908   2.2363   2.3502   2.9997   4.2038   4.2042   4.8631
     5.7707   5.8727

          k = 0.1667 0.2887 0.2065 (  2032 PWs)   bands (ev):

   -10.7501 -10.5373   0.7770   0.8699   1.2090   1.2331   1.3705   1.4202
     2.0746   2.1269   2.2078   2.2726   3.4694   4.0543   4.6284   4.9958
     5.5627   5.6966

          k = 0.1667 0.2887-0.3097 (  2024 PWs)   bands (ev):

   -10.6434 -10.6434   0.7667   0.7667   1.2263   1.2263   1.3595   1.3595
     2.1582   2.1582   2.1890   2.1890   3.8057   3.8057   5.1576   5.1576
     5.3397   5.3397

          k = 0.1667 0.4811 0.0000 (  2039 PWs)   bands (ev):

   -10.5993 -10.3933   0.9361   1.1716   1.2897   1.4828   1.7121   1.7747
     2.0260   2.0893   2.2813   2.4667   2.7238   3.3105   3.7704   4.0784
     5.2372   5.4082

          k = 0.1667 0.4811 0.1032 (  2036 PWs)   bands (ev):

   -10.5838 -10.4053   0.9101   1.1079   1.2619   1.4658   1.6540   1.6928
     2.0359   2.1475   2.2788   2.4571   2.7606   3.3174   3.8776   4.2716
     5.2199   5.4124

          k = 0.1667 0.4811 0.2065 (  2036 PWs)   bands (ev):

   -10.5428 -10.4395   0.8464   0.9418   1.2779   1.4296   1.5639   1.5815
     2.1083   2.1732   2.2900   2.4027   2.8864   3.2089   4.1910   4.7284
     5.0069   5.4622

          k = 0.1667 0.4811-0.3097 (  2032 PWs)   bands (ev):

   -10.4894 -10.4894   0.8340   0.8340   1.3567   1.3567   1.5323   1.5323
     2.1604   2.1604   2.3354   2.3354   3.0478   3.0478   4.5732   4.5732
     5.2675   5.2675

          k = 0.3333 0.5774 0.0000 (  2037 PWs)   bands (ev):

   -10.4472 -10.4472   0.9912   1.3651   1.3651   1.7278   1.9230   1.9230
     1.9882   2.0971   2.1730   2.1730   2.9166   3.0331   3.0331   4.6658
     4.6658   4.8554

          k = 0.3333 0.5774 0.1032 (  2025 PWs)   bands (ev):

   -10.4451 -10.4451   1.0187   1.2854   1.2854   1.6223   1.8226   1.8226
     2.0028   2.0911   2.3012   2.3012   2.9902   2.9902   3.0835   4.7299
     4.8340   4.8340

          k = 0.3333 0.5774 0.2065 (  2022 PWs)   bands (ev):

   -10.4408 -10.4408   1.1016   1.1266   1.1266   1.4233   1.7443   1.7443
     2.0259   2.0743   2.4475   2.4475   2.9143   2.9143   3.4724   4.3946
     5.1539   5.1539

          k = 0.3333 0.5774-0.3097 (  2034 PWs)   bands (ev):

   -10.4387 -10.4387   1.0513   1.0513   1.2389   1.2389   1.7231   1.7231
     2.0508   2.0508   2.5062   2.5062   2.8770   2.8770   3.9425   3.9425
     5.3090   5.3090

     highest occupied level (ev):     6.4574

!    total energy              =    -361.63642941 Ry
     estimated scf accuracy    <          5.2E-09 Ry

     The total energy is the sum of the following terms:
     one-electron contribution =    -157.93734054 Ry
     hartree contribution      =     119.50450420 Ry
     xc contribution           =    -109.48602124 Ry
     ewald contribution        =    -213.71757183 Ry

     convergence has been achieved in  26 iterations

     Forces acting on atoms (cartesian axes, Ry/au):

     atom    1 type  1   force =     0.00000000    0.00000000    0.00000001
     atom    2 type  1   force =     0.00000000    0.00000000    0.00000001
     atom    3 type  2   force =     0.00000000    0.00000000   -0.00000001
     atom    4 type  2   force =     0.00000000    0.00000000   -0.00000001
     The non-local contrib.  to forces
     atom    1 type  1   force =    -0.00000000   -0.00000000   -0.00474056
     atom    2 type  1   force =    -0.00000000    0.00000000   -0.00474056
     atom    3 type  2   force =    -0.00000000    0.00000000    0.00602450
     atom    4 type  2   force =    -0.00000000    0.00000000    0.00602450
     The ionic contribution  to forces
     atom    1 type  1   force =    -0.00000000    0.00000000    0.06148170
     atom    2 type  1   force =     0.00000000   -0.00000000    0.06148170
     atom    3 type  2   force =    -0.00000000    0.00000000   -0.06148170
     atom    4 type  2   force =     0.00000000   -0.00000000   -0.06148170
     The local contribution  to forces
     atom    1 type  1   force =    -0.00000002    0.00000001   -0.05716036
     atom    2 type  1   force =     0.00000006   -0.00000004   -0.05716037
     atom    3 type  2   force =    -0.00000001    0.00000000    0.05552823
     atom    4 type  2   force =     0.00000002   -0.00000001    0.05552824
     The core correction contribution to forces
     atom    1 type  1   force =    -0.00000000    0.00000000    0.00042621
     atom    2 type  1   force =     0.00000001   -0.00000000    0.00042621
     atom    3 type  2   force =     0.00000000   -0.00000000   -0.00006912
     atom    4 type  2   force =    -0.00000000    0.00000000   -0.00006912
     The Hubbard contrib.    to forces
     atom    1 type  1   force =     0.00000000    0.00000000    0.00000000
     atom    2 type  1   force =     0.00000000    0.00000000    0.00000000
     atom    3 type  2   force =     0.00000000    0.00000000    0.00000000
     atom    4 type  2   force =     0.00000000    0.00000000    0.00000000
     The SCF correction term to forces
     atom    1 type  1   force =     0.00000000   -0.00000000   -0.00000580
     atom    2 type  1   force =    -0.00000000    0.00000000   -0.00000580
     atom    3 type  2   force =     0.00000000   -0.00000000   -0.00000076
     atom    4 type  2   force =    -0.00000000    0.00000000   -0.00000076

     Total force =     0.000000     Total SCF correction =     0.000008
     SCF correction compared to forces is large: reduce conv_thr to get better values


     Computing stress (Cartesian axis) and pressure

          total   stress  (Ry/bohr**3)                   (kbar)     P=      -38.47
  -0.00026144   0.00000000   0.00000000          -38.46        0.00        0.00
   0.00000000  -0.00026144   0.00000000            0.00      -38.46        0.00
  -0.00000000  -0.00000000  -0.00026173           -0.00       -0.00      -38.50


     Writing all to output data dir ./ZnO_ANN.save/

     init_run     :      1.90s CPU      1.29s WALL (       1 calls)
     electrons    :     98.89s CPU     36.78s WALL (       1 calls)
     forces       :      0.68s CPU      0.34s WALL (       1 calls)
     stress       :      2.38s CPU      1.21s WALL (       1 calls)

     Called by init_run:
     wfcinit      :      1.01s CPU      0.39s WALL (       1 calls)
     potinit      :      0.27s CPU      0.27s WALL (       1 calls)
     hinit0       :      0.50s CPU      0.51s WALL (       1 calls)

     Called by electrons:
     c_bands      :     82.67s CPU     30.41s WALL (      26 calls)
     sum_band     :     11.96s CPU      4.65s WALL (      26 calls)
     v_of_rho     :      0.95s CPU      0.42s WALL (      27 calls)
     newd         :      3.11s CPU      1.25s WALL (      27 calls)
     mix_rho      :      0.16s CPU      0.07s WALL (      26 calls)

     Called by c_bands:
     init_us_2    :      1.11s CPU      0.39s WALL (    1540 calls)
     init_us_2:cp :      1.09s CPU      0.39s WALL (    1540 calls)
     cegterg      :     80.22s CPU     29.46s WALL (     728 calls)

     Called by *egterg:
     cdiaghg      :     13.14s CPU      4.32s WALL (    4438 calls)
     h_psi        :     54.48s CPU     21.98s WALL (    4466 calls)
     s_psi        :      1.25s CPU      0.37s WALL (    4466 calls)
     g_psi        :      0.43s CPU      0.11s WALL (    3710 calls)

     Called by h_psi:
     h_psi:calbec :      1.89s CPU      0.69s WALL (    4466 calls)
     vloc_psi     :     50.91s CPU     20.76s WALL (    4466 calls)
     add_vuspsi   :      1.22s CPU      0.40s WALL (    4466 calls)

     General routines
     calbec       :      2.39s CPU      0.86s WALL (    5334 calls)
     fft          :      0.80s CPU      0.49s WALL (     374 calls)
     ffts         :      0.17s CPU      0.14s WALL (      53 calls)
     fftw         :     50.32s CPU     20.59s WALL (  115332 calls)
     interpolate  :      0.18s CPU      0.16s WALL (      27 calls)

     Parallel routines

     PWSCF        :   1m44.43s CPU     40.11s WALL


   This run was terminated on:  17:29:41  13Jun2025            

=------------------------------------------------------------------------------=
   JOB DONE.
=------------------------------------------------------------------------------=
Note: The following floating-point exceptions are signalling: IEEE_INVALID_FLAG
