Authorization required, but no authorization protocol specified

Authorization required, but no authorization protocol specified

Authorization required, but no authorization protocol specified

Authorization required, but no authorization protocol specified

Authorization required, but no authorization protocol specified

Authorization required, but no authorization protocol specified

Authorization required, but no authorization protocol specified

Authorization required, but no authorization protocol specified

Authorization required, but no authorization protocol specified

Authorization required, but no authorization protocol specified


     Program PWSCF v.7.2 starts on 13Jun2025 at 16:26:59 

     This program is part of the open-source Quantum ESPRESSO suite
     for quantum simulation of materials; please cite
         "P. Giannozzi et al., J. Phys.:Condens. Matter 21 395502 (2009);
         "P. Giannozzi et al., J. Phys.:Condens. Matter 29 465901 (2017);
         "P. Giannozzi et al., J. Chem. Phys. 152 154105 (2020);
          URL http://www.quantum-espresso.org", 
     in publications or presentations arising from this work. More details at
     http://www.quantum-espresso.org/quote

     Parallel version (MPI), running on     8 processors

     MPI processes distributed on     1 nodes
     120722 MiB available memory on the printing compute node when the environment starts

     Reading input from /home/jvc/QEspresso7.2/ZnO_database_python/SCFs.in/scf-5.99-1.50.in

     Current dimensions of program PWSCF are:
     Max number of different atomic species (ntypx) = 10
     Max number of k-points (npk) =  40000
     Max angular momentum in pseudopotentials (lmaxx) =  4
     file Zn.upf: wavefunction(s)  3D renormalized

     R & G space division:  proc/nbgrp/npool/nimage =       8
     Subspace diagonalization in iterative solution of the eigenvalue problem:
     a serial algorithm will be used


     Parallelization info
     --------------------
     sticks:   dense  smooth     PW     G-vecs:    dense   smooth      PW
     Min         122      62     18                 4706     1678     280
     Max         123      63     19                 4711     1683     287
     Sum         979     499    151                37671    13439    2285

     Using Slab Decomposition



     bravais-lattice index     =            4
     lattice parameter (alat)  =       5.9935  a.u.
     unit-cell volume          =     279.9276 (a.u.)^3
     number of atoms/cell      =            4
     number of atomic types    =            2
     number of electrons       =        36.00
     number of Kohn-Sham states=           18
     kinetic-energy cutoff     =      50.0000  Ry
     charge density cutoff     =     400.0000  Ry
     scf convergence threshold =      1.0E-08
     mixing beta               =       0.3000
     number of iterations used =            8  plain     mixing
     Exchange-correlation= PBE
                           (   1   4   3   4   0   0   0)

     celldm(1)=   5.993457  celldm(2)=   0.000000  celldm(3)=   1.501353
     celldm(4)=   0.000000  celldm(5)=   0.000000  celldm(6)=   0.000000

     crystal axes: (cart. coord. in units of alat)
               a(1) = (   1.000000   0.000000   0.000000 )  
               a(2) = (  -0.500000   0.866025   0.000000 )  
               a(3) = (   0.000000   0.000000   1.501353 )  

     reciprocal axes: (cart. coord. in units 2 pi/alat)
               b(1) = (  1.000000  0.577350 -0.000000 )  
               b(2) = (  0.000000  1.154701  0.000000 )  
               b(3) = (  0.000000 -0.000000  0.666066 )  


     PseudoPot. # 1 for Zn read from file:
     /home/jvc/QEspresso7.2/ZnO_database/pseudos/Zn.upf
     MD5 check sum: 7f56cabf9682ed8c977c2f7d0c5985c5
     Pseudo is Ultrasoft + core correction, Zval = 12.0
     Generated using &quot;atomic&quot; code by A. Dal Corso  v.6.2.2
     Using radial grid of 1201 points,  6 beta functions with: 
                l(1) =   0
                l(2) =   0
                l(3) =   1
                l(4) =   1
                l(5) =   2
                l(6) =   2
     Q(r) pseudized with 0 coefficients 


     PseudoPot. # 2 for O  read from file:
     /home/jvc/QEspresso7.2/ZnO_database/pseudos/O.upf
     MD5 check sum: 91400c9766925bcf19f520983a725ff0
     Pseudo is Ultrasoft + core correction, Zval =  6.0
     Generated using &quot;atomic&quot; code by A. Dal Corso  v.6.3MaX
     Using radial grid of 1095 points,  4 beta functions with: 
                l(1) =   0
                l(2) =   0
                l(3) =   1
                l(4) =   1
     Q(r) pseudized with 0 coefficients 


     atomic species   valence    mass     pseudopotential
        Zn            12.00    63.38000     Zn( 1.00)
        O              6.00    15.99900     O ( 1.00)

     12 Sym. Ops. (no inversion) found ( 6 have fractional translation)



   Cartesian axes

     site n.     atom                  positions (alat units)
         1           Zn  tau(   1) = (   0.5000000   0.2886751   0.7516279  )
         2           Zn  tau(   2) = (  -0.0000000   0.5773503   0.0009512  )
         3           O   tau(   3) = (   0.5000000   0.2886751   1.3207051  )
         4           O   tau(   4) = (  -0.0000000   0.5773503   0.5700284  )

     number of k points=    28
                       cart. coord. in units 2pi/alat
        k(    1) = (   0.0000000   0.0000000   0.0000000), wk =   0.0092593
        k(    2) = (   0.0000000   0.0000000   0.1110110), wk =   0.0185185
        k(    3) = (   0.0000000   0.0000000   0.2220219), wk =   0.0185185
        k(    4) = (   0.0000000   0.0000000  -0.3330329), wk =   0.0092593
        k(    5) = (   0.0000000   0.1924501   0.0000000), wk =   0.0555556
        k(    6) = (   0.0000000   0.1924501   0.1110110), wk =   0.1111111
        k(    7) = (   0.0000000   0.1924501   0.2220219), wk =   0.1111111
        k(    8) = (   0.0000000   0.1924501  -0.3330329), wk =   0.0555556
        k(    9) = (   0.0000000   0.3849002   0.0000000), wk =   0.0555556
        k(   10) = (   0.0000000   0.3849002   0.1110110), wk =   0.1111111
        k(   11) = (   0.0000000   0.3849002   0.2220219), wk =   0.1111111
        k(   12) = (   0.0000000   0.3849002  -0.3330329), wk =   0.0555556
        k(   13) = (   0.0000000  -0.5773503   0.0000000), wk =   0.0277778
        k(   14) = (   0.0000000  -0.5773503   0.1110110), wk =   0.0555556
        k(   15) = (   0.0000000  -0.5773503   0.2220219), wk =   0.0555556
        k(   16) = (   0.0000000  -0.5773503  -0.3330329), wk =   0.0277778
        k(   17) = (   0.1666667   0.2886751   0.0000000), wk =   0.0555556
        k(   18) = (   0.1666667   0.2886751   0.1110110), wk =   0.1111111
        k(   19) = (   0.1666667   0.2886751   0.2220219), wk =   0.1111111
        k(   20) = (   0.1666667   0.2886751  -0.3330329), wk =   0.0555556
        k(   21) = (   0.1666667   0.4811252   0.0000000), wk =   0.1111111
        k(   22) = (   0.1666667   0.4811252   0.1110110), wk =   0.2222222
        k(   23) = (   0.1666667   0.4811252   0.2220219), wk =   0.2222222
        k(   24) = (   0.1666667   0.4811252  -0.3330329), wk =   0.1111111
        k(   25) = (   0.3333333   0.5773503   0.0000000), wk =   0.0185185
        k(   26) = (   0.3333333   0.5773503   0.1110110), wk =   0.0370370
        k(   27) = (   0.3333333   0.5773503   0.2220219), wk =   0.0370370
        k(   28) = (   0.3333333   0.5773503  -0.3330329), wk =   0.0185185

     Dense  grid:    37671 G-vectors     FFT dimensions: (  40,  40,  60)

     Smooth grid:    13439 G-vectors     FFT dimensions: (  27,  27,  48)

     Estimated max dynamical RAM per process >      22.44 MB

     Estimated total dynamical RAM >     179.52 MB

     Check: negative core charge=   -0.000002

     Initial potential from superposition of free atoms

     starting charge      35.9925, renormalised to      36.0000
     Starting wfcs are   26 randomized atomic wfcs

     total cpu time spent up to now is        1.5 secs

     Self-consistent Calculation

     iteration #  1     ecut=    50.00 Ry     beta= 0.30
     Davidson diagonalization with overlap
     ethr =  1.00E-02,  avg # of iterations =  2.0

     total cpu time spent up to now is        2.3 secs

     total energy              =    -361.43037005 Ry
     estimated scf accuracy    <       0.67980364 Ry

     iteration #  2     ecut=    50.00 Ry     beta= 0.30
     Davidson diagonalization with overlap
     ethr =  1.89E-03,  avg # of iterations =  2.1

     total cpu time spent up to now is        3.2 secs

     total energy              =    -361.49546202 Ry
     estimated scf accuracy    <       0.11508156 Ry

     iteration #  3     ecut=    50.00 Ry     beta= 0.30
     Davidson diagonalization with overlap
     ethr =  3.20E-04,  avg # of iterations =  6.1

     total cpu time spent up to now is        4.7 secs

     total energy              =    -361.54963674 Ry
     estimated scf accuracy    <       0.07285504 Ry

     iteration #  4     ecut=    50.00 Ry     beta= 0.30
     Davidson diagonalization with overlap
     ethr =  2.02E-04,  avg # of iterations =  4.1

     total cpu time spent up to now is        5.9 secs

     total energy              =    -361.58810953 Ry
     estimated scf accuracy    <       0.01219081 Ry

     iteration #  5     ecut=    50.00 Ry     beta= 0.30
     Davidson diagonalization with overlap
     ethr =  3.39E-05,  avg # of iterations =  6.9

     total cpu time spent up to now is        7.6 secs

     total energy              =    -361.56958249 Ry
     estimated scf accuracy    <       0.11714426 Ry

     iteration #  6     ecut=    50.00 Ry     beta= 0.30
     Davidson diagonalization with overlap
     ethr =  3.39E-05,  avg # of iterations =  5.8

     total cpu time spent up to now is        9.0 secs

     total energy              =    -361.56521000 Ry
     estimated scf accuracy    <       0.02133627 Ry

     iteration #  7     ecut=    50.00 Ry     beta= 0.30
     Davidson diagonalization with overlap
     ethr =  3.39E-05,  avg # of iterations =  5.6

     total cpu time spent up to now is       10.5 secs

     total energy              =    -361.57296152 Ry
     estimated scf accuracy    <       0.00247998 Ry

     iteration #  8     ecut=    50.00 Ry     beta= 0.30
     Davidson diagonalization with overlap
     ethr =  6.89E-06,  avg # of iterations =  2.6

     total cpu time spent up to now is       11.3 secs

     total energy              =    -361.57203353 Ry
     estimated scf accuracy    <       0.00136919 Ry

     iteration #  9     ecut=    50.00 Ry     beta= 0.30
     Davidson diagonalization with overlap
     ethr =  3.80E-06,  avg # of iterations =  7.0

     total cpu time spent up to now is       13.1 secs

     total energy              =    -361.57247514 Ry
     estimated scf accuracy    <       0.00335648 Ry

     iteration # 10     ecut=    50.00 Ry     beta= 0.30
     Davidson diagonalization with overlap
     ethr =  3.80E-06,  avg # of iterations =  3.9

     total cpu time spent up to now is       14.2 secs

     total energy              =    -361.57273948 Ry
     estimated scf accuracy    <       0.00048498 Ry

     iteration # 11     ecut=    50.00 Ry     beta= 0.30
     Davidson diagonalization with overlap
     ethr =  1.35E-06,  avg # of iterations =  4.3

     total cpu time spent up to now is       15.3 secs

     total energy              =    -361.57296756 Ry
     estimated scf accuracy    <       0.00003221 Ry

     iteration # 12     ecut=    50.00 Ry     beta= 0.30
     Davidson diagonalization with overlap
     ethr =  8.95E-08,  avg # of iterations =  4.8

     total cpu time spent up to now is       16.5 secs

     total energy              =    -361.57294308 Ry
     estimated scf accuracy    <       0.00016592 Ry

     iteration # 13     ecut=    50.00 Ry     beta= 0.30
     Davidson diagonalization with overlap
     ethr =  8.95E-08,  avg # of iterations =  2.1

     total cpu time spent up to now is       17.3 secs

     total energy              =    -361.57292651 Ry
     estimated scf accuracy    <       0.00009322 Ry

     iteration # 14     ecut=    50.00 Ry     beta= 0.30
     Davidson diagonalization with overlap
     ethr =  8.95E-08,  avg # of iterations =  3.3

     total cpu time spent up to now is       18.3 secs

     total energy              =    -361.57292734 Ry
     estimated scf accuracy    <       0.00002960 Ry

     iteration # 15     ecut=    50.00 Ry     beta= 0.30
     Davidson diagonalization with overlap
     ethr =  8.22E-08,  avg # of iterations =  2.6

     total cpu time spent up to now is       19.2 secs

     total energy              =    -361.57292785 Ry
     estimated scf accuracy    <       0.00001145 Ry

     iteration # 16     ecut=    50.00 Ry     beta= 0.30
     Davidson diagonalization with overlap
     ethr =  3.18E-08,  avg # of iterations =  4.2

     total cpu time spent up to now is       20.3 secs

     total energy              =    -361.57293058 Ry
     estimated scf accuracy    <       0.00000094 Ry

     iteration # 17     ecut=    50.00 Ry     beta= 0.30
     Davidson diagonalization with overlap
     ethr =  2.61E-09,  avg # of iterations =  6.6

     total cpu time spent up to now is       21.8 secs

     total energy              =    -361.57293139 Ry
     estimated scf accuracy    <       0.00000061 Ry

     iteration # 18     ecut=    50.00 Ry     beta= 0.30
     Davidson diagonalization with overlap
     ethr =  1.70E-09,  avg # of iterations =  2.0

     total cpu time spent up to now is       22.6 secs

     total energy              =    -361.57293139 Ry
     estimated scf accuracy    <       0.00000018 Ry

     iteration # 19     ecut=    50.00 Ry     beta= 0.30
     Davidson diagonalization with overlap
     ethr =  4.88E-10,  avg # of iterations =  3.8

     total cpu time spent up to now is       23.7 secs

     total energy              =    -361.57293145 Ry
     estimated scf accuracy    <       0.00000002 Ry

     iteration # 20     ecut=    50.00 Ry     beta= 0.30
     Davidson diagonalization with overlap
     ethr =  4.92E-11,  avg # of iterations =  4.8

     total cpu time spent up to now is       24.8 secs

     End of self-consistent calculation

          k = 0.0000 0.0000 0.0000 (  1689 PWs)   bands (ev):

    -9.8171  -8.7233   2.8743   3.0689   3.0689   3.0955   3.3570   3.3570
     4.6294   4.6294   4.9802   4.9802   5.2685   8.2842   8.2842   9.4546
     9.4546   9.4861

          k = 0.0000 0.0000 0.1110 (  1676 PWs)   bands (ev):

    -9.7475  -8.7999   2.7341   2.9974   3.0740   3.0740   3.3213   3.3213
     4.6668   4.6668   4.9732   4.9732   5.6523   8.3646   8.3646   8.9738
     9.3797   9.3797

          k = 0.0000 0.0000 0.2220 (  1670 PWs)   bands (ev):

    -9.5544  -9.0069   2.5654   2.7739   3.0977   3.0977   3.2380   3.2380
     4.7591   4.7591   4.9392   4.9392   6.4859   8.2165   8.5839   8.5839
     9.1717   9.1717

          k = 0.0000 0.0000-0.3330 (  1676 PWs)   bands (ev):

    -9.2842  -9.2842   2.5848   2.5848   3.1533   3.1533   3.1533   3.1533
     4.8630   4.8630   4.8630   4.8630   7.3900   7.3900   8.8807   8.8807
     8.8807   8.8807

          k = 0.0000 0.1925 0.0000 (  1662 PWs)   bands (ev):

    -9.6388  -8.6689   2.8215   3.0701   3.1551   3.2011   3.4043   3.4964
     4.5529   4.6330   4.9843   5.0044   5.3313   7.3864   7.8668   8.3735
     9.2502   9.2547

          k = 0.0000 0.1925 0.1110 (  1661 PWs)   bands (ev):

    -9.5753  -8.7346   2.7446   2.8584   3.1643   3.1887   3.3724   3.4565
     4.6086   4.6678   4.9912   5.0120   5.7087   7.4836   7.9654   8.1849
     9.1672   9.2131

          k = 0.0000 0.1925 0.2220 (  1679 PWs)   bands (ev):

    -9.4003  -8.9140   2.5418   2.6241   3.1737   3.1977   3.2914   3.3631
     4.7330   4.7549   4.9438   4.9710   6.5215   7.6743   7.9144   8.2304
     8.9143   8.9241

          k = 0.0000 0.1925-0.3330 (  1684 PWs)   bands (ev):

    -9.1584  -9.1584   2.4892   2.4892   3.2121   3.2121   3.2661   3.2661
     4.8588   4.8588   4.8685   4.8685   7.2412   7.2412   8.3641   8.3641
     8.5827   8.5827

          k = 0.0000 0.3849 0.0000 (  1684 PWs)   bands (ev):

    -9.2278  -8.5951   2.5768   3.0228   3.2890   3.3937   3.8437   3.8522
     4.5339   4.7456   4.9327   5.0390   5.4916   6.0749   6.9997   7.1074
     8.5890   8.8033

          k = 0.0000 0.3849 0.1110 (  1669 PWs)   bands (ev):

    -9.1821  -8.6330   2.5085   2.8200   3.3128   3.3683   3.6859   3.7942
     4.6015   4.7647   5.0151   5.0727   5.6673   6.2869   7.0297   7.1433
     8.6792   8.6951

          k = 0.0000 0.3849 0.2220 (  1667 PWs)   bands (ev):

    -9.0590  -8.7406   2.3668   2.4834   3.3531   3.3847   3.5097   3.6560
     4.7557   4.8157   4.9568   5.0462   6.0043   6.5034   7.3419   7.5084
     8.3940   8.6370

          k = 0.0000 0.3849-0.3330 (  1654 PWs)   bands (ev):

    -8.8960  -8.8960   2.3188   2.3188   3.3987   3.3987   3.5045   3.5045
     4.8851   4.8851   4.9187   4.9187   6.2901   6.2901   7.9658   7.9658
     8.1376   8.1376

          k = 0.0000-0.5774 0.0000 (  1670 PWs)   bands (ev):

    -8.9545  -8.6151   2.6459   2.8039   3.3308   3.5385   3.8312   4.0994
     4.6899   4.8865   5.0541   5.1158   5.6233   5.6823   6.3260   6.4902
     8.0971   8.5502

          k = 0.0000-0.5774 0.1110 (  1672 PWs)   bands (ev):

    -8.9257  -8.6310   2.5519   2.6452   3.3641   3.5049   3.7585   4.0196
     4.7882   4.8913   5.0197   5.1164   5.6040   5.6177   6.6754   6.7221
     8.2441   8.4326

          k = 0.0000-0.5774 0.2220 (  1684 PWs)   bands (ev):

    -8.8510  -8.6799   2.3589   2.3725   3.4642   3.4909   3.6291   3.8316
     4.9053   4.9387   4.9666   5.1001   5.5591   5.5995   7.1144   7.4929
     8.1045   8.4089

          k = 0.0000-0.5774-0.3330 (  1688 PWs)   bands (ev):

    -8.7590  -8.7590   2.2583   2.2583   3.5330   3.5330   3.6271   3.6271
     4.9295   4.9295   5.0444   5.0444   5.5725   5.5725   7.6330   7.6330
     8.1649   8.1649

          k = 0.1667 0.2887 0.0000 (  1671 PWs)   bands (ev):

    -9.3419  -8.6057   2.7102   2.9790   3.3100   3.3383   3.7063   3.7536
     4.4919   4.6630   4.9644   5.0290   5.5001   6.5531   6.8377   7.5553
     8.7714   8.8086

          k = 0.1667 0.2887 0.1110 (  1676 PWs)   bands (ev):

    -9.2906  -8.6519   2.6394   2.8264   3.2799   3.2953   3.5684   3.7015
     4.5628   4.7286   5.0099   5.0630   5.7808   6.7233   6.9277   7.4550
     8.6574   8.8673

          k = 0.1667 0.2887 0.2220 (  1670 PWs)   bands (ev):

    -9.1512  -8.7810   2.4823   2.5251   3.2528   3.2827   3.4637   3.5842
     4.7203   4.8013   4.9594   5.0300   6.3145   6.9333   7.3315   7.5121
     8.3489   8.7479

          k = 0.1667 0.2887-0.3330 (  1664 PWs)   bands (ev):

    -8.9636  -8.9636   2.3986   2.3986   3.2692   3.2692   3.4770   3.4770
     4.8614   4.8614   4.9164   4.9164   6.6766   6.6766   7.8822   7.8822
     8.2074   8.2074

          k = 0.1667 0.4811 0.0000 (  1668 PWs)   bands (ev):

    -8.9661  -8.6077   2.7578   3.0186   3.2899   3.4692   3.9442   4.1136
     4.6341   4.6672   5.0572   5.1199   5.3631   5.8585   6.2347   6.6304
     8.0319   8.2567

          k = 0.1667 0.4811 0.1110 (  1674 PWs)   bands (ev):

    -8.9363  -8.6250   2.6714   2.8634   3.2645   3.4427   3.8279   3.9887
     4.6371   4.8233   5.0403   5.2232   5.3695   6.0213   6.2447   6.8894
     8.0298   8.2794

          k = 0.1667 0.4811 0.2220 (  1668 PWs)   bands (ev):

    -8.8584  -8.6777   2.4875   2.5572   3.2893   3.4026   3.7036   3.8029
     4.7516   4.8618   5.0517   5.2009   5.5742   5.9811   6.6136   7.4975
     7.7552   8.4349

          k = 0.1667 0.4811-0.3330 (  1672 PWs)   bands (ev):

    -8.7617  -8.7617   2.4074   2.4074   3.3544   3.3544   3.6876   3.6876
     4.8342   4.8342   5.1145   5.1145   5.7989   5.7989   7.1451   7.1451
     8.2291   8.2291

          k = 0.3333 0.5774 0.0000 (  1683 PWs)   bands (ev):

    -8.7249  -8.7249   2.9546   3.2410   3.2410   3.7144   4.1158   4.1158
     4.5534   4.7498   4.7498   4.7881   5.2170   5.8369   5.8369   7.3362
     7.3362   7.6360

          k = 0.3333 0.5774 0.1110 (  1671 PWs)   bands (ev):

    -8.7176  -8.7176   2.9809   3.0738   3.0738   3.6056   3.9830   3.9830
     4.5770   4.7743   4.9691   4.9691   5.4109   5.7840   5.7840   7.4712
     7.5774   7.5774

          k = 0.3333 0.5774 0.2220 (  1665 PWs)   bands (ev):

    -8.7028  -8.7028   2.7679   2.7679   3.0620   3.3947   3.8757   3.8757
     4.6258   4.7365   5.2463   5.2463   5.6817   5.6817   5.8792   7.0365
     8.0415   8.0415

          k = 0.3333 0.5774-0.3330 (  1638 PWs)   bands (ev):

    -8.6953  -8.6953   2.6312   2.6312   3.2017   3.2017   3.8457   3.8457
     4.6831   4.6831   5.3756   5.3756   5.6118   5.6118   6.4624   6.4624
     8.2694   8.2694

     highest occupied level (ev):     9.4861

!    total energy              =    -361.57293145 Ry
     estimated scf accuracy    <          8.9E-09 Ry

     The total energy is the sum of the following terms:
     one-electron contribution =    -136.10154896 Ry
     hartree contribution      =     112.00658551 Ry
     xc contribution           =    -109.92664116 Ry
     ewald contribution        =    -227.55132684 Ry

     convergence has been achieved in  20 iterations

     Forces acting on atoms (cartesian axes, Ry/au):

     atom    1 type  1   force =     0.00000000   -0.00000000   -0.06053553
     atom    2 type  1   force =     0.00000000    0.00000000   -0.06053553
     atom    3 type  2   force =     0.00000000    0.00000000    0.06053553
     atom    4 type  2   force =     0.00000000    0.00000000    0.06053553
     The non-local contrib.  to forces
     atom    1 type  1   force =     0.00000000   -0.00000000   -0.23422048
     atom    2 type  1   force =     0.00000000    0.00000000   -0.23422048
     atom    3 type  2   force =    -0.00000000   -0.00000000   -0.15177260
     atom    4 type  2   force =    -0.00000000   -0.00000000   -0.15177260
     The ionic contribution  to forces
     atom    1 type  1   force =    -0.00000000    0.00000000   -1.59652265
     atom    2 type  1   force =     0.00000000   -0.00000000   -1.59652265
     atom    3 type  2   force =    -0.00000000    0.00000000    1.59652265
     atom    4 type  2   force =     0.00000000   -0.00000000    1.59652265
     The local contribution  to forces
     atom    1 type  1   force =    -0.00000002    0.00000001    1.74958468
     atom    2 type  1   force =     0.00000006   -0.00000004    1.74958467
     atom    3 type  2   force =    -0.00000001    0.00000000   -1.38514864
     atom    4 type  2   force =     0.00000002   -0.00000001   -1.38514864
     The core correction contribution to forces
     atom    1 type  1   force =    -0.00000000    0.00000000    0.02058391
     atom    2 type  1   force =     0.00000001   -0.00000000    0.02058391
     atom    3 type  2   force =     0.00000000   -0.00000000    0.00093938
     atom    4 type  2   force =    -0.00000000    0.00000000    0.00093938
     The Hubbard contrib.    to forces
     atom    1 type  1   force =     0.00000000    0.00000000    0.00000000
     atom    2 type  1   force =     0.00000000    0.00000000    0.00000000
     atom    3 type  2   force =     0.00000000    0.00000000    0.00000000
     atom    4 type  2   force =     0.00000000    0.00000000    0.00000000
     The SCF correction term to forces
     atom    1 type  1   force =    -0.00000000    0.00000000    0.00005770
     atom    2 type  1   force =     0.00000000   -0.00000000    0.00005770
     atom    3 type  2   force =    -0.00000000    0.00000000    0.00001343
     atom    4 type  2   force =     0.00000000   -0.00000000    0.00001343

     Total force =     0.121071     Total SCF correction =     0.000084


     Computing stress (Cartesian axis) and pressure

          total   stress  (Ry/bohr**3)                   (kbar)     P=      330.69
   0.00158006  -0.00000000  -0.00000000          232.44       -0.00       -0.00
  -0.00000000   0.00158006  -0.00000000           -0.00      232.44       -0.00
   0.00000000   0.00000000   0.00358377            0.00        0.00      527.19


     Writing all to output data dir ./ZnO_ANN.save/

     init_run     :      1.73s CPU      1.14s WALL (       1 calls)
     electrons    :     61.70s CPU     23.36s WALL (       1 calls)
     forces       :      0.58s CPU      0.27s WALL (       1 calls)
     stress       :      2.10s CPU      1.09s WALL (       1 calls)

     Called by init_run:
     wfcinit      :      0.97s CPU      0.37s WALL (       1 calls)
     potinit      :      0.21s CPU      0.21s WALL (       1 calls)
     hinit0       :      0.45s CPU      0.46s WALL (       1 calls)

     Called by electrons:
     c_bands      :     50.72s CPU     18.99s WALL (      20 calls)
     sum_band     :      8.24s CPU      3.25s WALL (      20 calls)
     v_of_rho     :      0.66s CPU      0.29s WALL (      21 calls)
     newd         :      1.94s CPU      0.81s WALL (      21 calls)
     mix_rho      :      0.11s CPU      0.05s WALL (      20 calls)

     Called by c_bands:
     init_us_2    :      0.72s CPU      0.26s WALL (    1204 calls)
     init_us_2:cp :      0.70s CPU      0.25s WALL (    1204 calls)
     cegterg      :     49.10s CPU     18.37s WALL (     560 calls)

     Called by *egterg:
     cdiaghg      :      8.35s CPU      2.77s WALL (    2926 calls)
     h_psi        :     34.33s CPU     13.92s WALL (    2954 calls)
     s_psi        :      0.74s CPU      0.23s WALL (    2954 calls)
     g_psi        :      0.21s CPU      0.06s WALL (    2366 calls)

     Called by h_psi:
     h_psi:calbec :      1.15s CPU      0.42s WALL (    2954 calls)
     vloc_psi     :     32.16s CPU     13.17s WALL (    2954 calls)
     add_vuspsi   :      0.75s CPU      0.25s WALL (    2954 calls)

     General routines
     calbec       :      1.48s CPU      0.54s WALL (    3654 calls)
     fft          :      0.61s CPU      0.40s WALL (     296 calls)
     ffts         :      0.13s CPU      0.11s WALL (      41 calls)
     fftw         :     32.75s CPU     13.46s WALL (   77734 calls)
     interpolate  :      0.14s CPU      0.11s WALL (      21 calls)

     Parallel routines

     PWSCF        :   1m 6.65s CPU     26.32s WALL


   This run was terminated on:  16:27:26  13Jun2025            

=------------------------------------------------------------------------------=
   JOB DONE.
=------------------------------------------------------------------------------=
Note: The following floating-point exceptions are signalling: IEEE_INVALID_FLAG
