Authorization required, but no authorization protocol specified

Authorization required, but no authorization protocol specified

Authorization required, but no authorization protocol specified

Authorization required, but no authorization protocol specified

Authorization required, but no authorization protocol specified

Authorization required, but no authorization protocol specified

Authorization required, but no authorization protocol specified

Authorization required, but no authorization protocol specified

Authorization required, but no authorization protocol specified

Authorization required, but no authorization protocol specified


     Program PWSCF v.7.2 starts on 13Jun2025 at 16:12:24 

     This program is part of the open-source Quantum ESPRESSO suite
     for quantum simulation of materials; please cite
         "P. Giannozzi et al., J. Phys.:Condens. Matter 21 395502 (2009);
         "P. Giannozzi et al., J. Phys.:Condens. Matter 29 465901 (2017);
         "P. Giannozzi et al., J. Chem. Phys. 152 154105 (2020);
          URL http://www.quantum-espresso.org", 
     in publications or presentations arising from this work. More details at
     http://www.quantum-espresso.org/quote

     Parallel version (MPI), running on     8 processors

     MPI processes distributed on     1 nodes
     120718 MiB available memory on the printing compute node when the environment starts

     Reading input from /home/jvc/QEspresso7.2/ZnO_database_python/SCFs.in/scf-5.87-1.74.in

     Current dimensions of program PWSCF are:
     Max number of different atomic species (ntypx) = 10
     Max number of k-points (npk) =  40000
     Max angular momentum in pseudopotentials (lmaxx) =  4
     file Zn.upf: wavefunction(s)  3D renormalized

     R & G space division:  proc/nbgrp/npool/nimage =       8
     Subspace diagonalization in iterative solution of the eigenvalue problem:
     a serial algorithm will be used


     Parallelization info
     --------------------
     sticks:   dense  smooth     PW     G-vecs:    dense   smooth      PW
     Min         119      59     18                 5167     1815     314
     Max         120      60     19                 5172     1820     317
     Sum         955     475    151                41351    14537    2527

     Using Slab Decomposition



     bravais-lattice index     =            4
     lattice parameter (alat)  =       5.8699  a.u.
     unit-cell volume          =     305.3810 (a.u.)^3
     number of atoms/cell      =            4
     number of atomic types    =            2
     number of electrons       =        36.00
     number of Kohn-Sham states=           18
     kinetic-energy cutoff     =      50.0000  Ry
     charge density cutoff     =     400.0000  Ry
     scf convergence threshold =      1.0E-08
     mixing beta               =       0.3000
     number of iterations used =            8  plain     mixing
     Exchange-correlation= PBE
                           (   1   4   3   4   0   0   0)

     celldm(1)=   5.869880  celldm(2)=   0.000000  celldm(3)=   1.743507
     celldm(4)=   0.000000  celldm(5)=   0.000000  celldm(6)=   0.000000

     crystal axes: (cart. coord. in units of alat)
               a(1) = (   1.000000   0.000000   0.000000 )  
               a(2) = (  -0.500000   0.866025   0.000000 )  
               a(3) = (   0.000000   0.000000   1.743507 )  

     reciprocal axes: (cart. coord. in units 2 pi/alat)
               b(1) = (  1.000000  0.577350 -0.000000 )  
               b(2) = (  0.000000  1.154701  0.000000 )  
               b(3) = (  0.000000 -0.000000  0.573557 )  


     PseudoPot. # 1 for Zn read from file:
     /home/jvc/QEspresso7.2/ZnO_database/pseudos/Zn.upf
     MD5 check sum: 7f56cabf9682ed8c977c2f7d0c5985c5
     Pseudo is Ultrasoft + core correction, Zval = 12.0
     Generated using &quot;atomic&quot; code by A. Dal Corso  v.6.2.2
     Using radial grid of 1201 points,  6 beta functions with: 
                l(1) =   0
                l(2) =   0
                l(3) =   1
                l(4) =   1
                l(5) =   2
                l(6) =   2
     Q(r) pseudized with 0 coefficients 


     PseudoPot. # 2 for O  read from file:
     /home/jvc/QEspresso7.2/ZnO_database/pseudos/O.upf
     MD5 check sum: 91400c9766925bcf19f520983a725ff0
     Pseudo is Ultrasoft + core correction, Zval =  6.0
     Generated using &quot;atomic&quot; code by A. Dal Corso  v.6.3MaX
     Using radial grid of 1095 points,  4 beta functions with: 
                l(1) =   0
                l(2) =   0
                l(3) =   1
                l(4) =   1
     Q(r) pseudized with 0 coefficients 


     atomic species   valence    mass     pseudopotential
        Zn            12.00    63.38000     Zn( 1.00)
        O              6.00    15.99900     O ( 1.00)

     12 Sym. Ops. (no inversion) found ( 6 have fractional translation)



   Cartesian axes

     site n.     atom                  positions (alat units)
         1           Zn  tau(   1) = (   0.5000000   0.2886751   0.8728582  )
         2           Zn  tau(   2) = (  -0.0000000   0.5773503   0.0011047  )
         3           O   tau(   3) = (   0.5000000   0.2886751   1.5337220  )
         4           O   tau(   4) = (  -0.0000000   0.5773503   0.6619685  )

     number of k points=    28
                       cart. coord. in units 2pi/alat
        k(    1) = (   0.0000000   0.0000000   0.0000000), wk =   0.0092593
        k(    2) = (   0.0000000   0.0000000   0.0955928), wk =   0.0185185
        k(    3) = (   0.0000000   0.0000000   0.1911855), wk =   0.0185185
        k(    4) = (   0.0000000   0.0000000  -0.2867783), wk =   0.0092593
        k(    5) = (   0.0000000   0.1924501   0.0000000), wk =   0.0555556
        k(    6) = (   0.0000000   0.1924501   0.0955928), wk =   0.1111111
        k(    7) = (   0.0000000   0.1924501   0.1911855), wk =   0.1111111
        k(    8) = (   0.0000000   0.1924501  -0.2867783), wk =   0.0555556
        k(    9) = (   0.0000000   0.3849002   0.0000000), wk =   0.0555556
        k(   10) = (   0.0000000   0.3849002   0.0955928), wk =   0.1111111
        k(   11) = (   0.0000000   0.3849002   0.1911855), wk =   0.1111111
        k(   12) = (   0.0000000   0.3849002  -0.2867783), wk =   0.0555556
        k(   13) = (   0.0000000  -0.5773503   0.0000000), wk =   0.0277778
        k(   14) = (   0.0000000  -0.5773503   0.0955928), wk =   0.0555556
        k(   15) = (   0.0000000  -0.5773503   0.1911855), wk =   0.0555556
        k(   16) = (   0.0000000  -0.5773503  -0.2867783), wk =   0.0277778
        k(   17) = (   0.1666667   0.2886751   0.0000000), wk =   0.0555556
        k(   18) = (   0.1666667   0.2886751   0.0955928), wk =   0.1111111
        k(   19) = (   0.1666667   0.2886751   0.1911855), wk =   0.1111111
        k(   20) = (   0.1666667   0.2886751  -0.2867783), wk =   0.0555556
        k(   21) = (   0.1666667   0.4811252   0.0000000), wk =   0.1111111
        k(   22) = (   0.1666667   0.4811252   0.0955928), wk =   0.2222222
        k(   23) = (   0.1666667   0.4811252   0.1911855), wk =   0.2222222
        k(   24) = (   0.1666667   0.4811252  -0.2867783), wk =   0.1111111
        k(   25) = (   0.3333333   0.5773503   0.0000000), wk =   0.0185185
        k(   26) = (   0.3333333   0.5773503   0.0955928), wk =   0.0370370
        k(   27) = (   0.3333333   0.5773503   0.1911855), wk =   0.0370370
        k(   28) = (   0.3333333   0.5773503  -0.2867783), wk =   0.0185185

     Dense  grid:    41351 G-vectors     FFT dimensions: (  40,  40,  72)

     Smooth grid:    14537 G-vectors     FFT dimensions: (  27,  27,  48)

     Estimated max dynamical RAM per process >      24.32 MB

     Estimated total dynamical RAM >     194.52 MB

     Check: negative core charge=   -0.000002

     Initial potential from superposition of free atoms

     starting charge      35.9925, renormalised to      36.0000
     Starting wfcs are   26 randomized atomic wfcs

     total cpu time spent up to now is        1.6 secs

     Self-consistent Calculation

     iteration #  1     ecut=    50.00 Ry     beta= 0.30
     Davidson diagonalization with overlap
     ethr =  1.00E-02,  avg # of iterations =  1.9

     total cpu time spent up to now is        2.4 secs

     total energy              =    -361.46436574 Ry
     estimated scf accuracy    <       0.68127348 Ry

     iteration #  2     ecut=    50.00 Ry     beta= 0.30
     Davidson diagonalization with overlap
     ethr =  1.89E-03,  avg # of iterations =  2.0

     total cpu time spent up to now is        3.4 secs

     total energy              =    -361.54761014 Ry
     estimated scf accuracy    <       0.10090931 Ry

     iteration #  3     ecut=    50.00 Ry     beta= 0.30
     Davidson diagonalization with overlap
     ethr =  2.80E-04,  avg # of iterations =  6.0

     total cpu time spent up to now is        5.0 secs

     total energy              =    -361.58539546 Ry
     estimated scf accuracy    <       0.06348364 Ry

     iteration #  4     ecut=    50.00 Ry     beta= 0.30
     Davidson diagonalization with overlap
     ethr =  1.76E-04,  avg # of iterations =  7.1

     total cpu time spent up to now is        6.7 secs

     total energy              =    -361.62844943 Ry
     estimated scf accuracy    <       0.13701622 Ry

     iteration #  5     ecut=    50.00 Ry     beta= 0.30
     Davidson diagonalization with overlap
     ethr =  1.76E-04,  avg # of iterations =  1.0

     total cpu time spent up to now is        7.5 secs

     total energy              =    -361.57461993 Ry
     estimated scf accuracy    <       0.08693014 Ry

     iteration #  6     ecut=    50.00 Ry     beta= 0.30
     Davidson diagonalization with overlap
     ethr =  1.76E-04,  avg # of iterations =  6.0

     total cpu time spent up to now is        9.0 secs

     total energy              =    -361.61610079 Ry
     estimated scf accuracy    <       0.03869939 Ry

     iteration #  7     ecut=    50.00 Ry     beta= 0.30
     Davidson diagonalization with overlap
     ethr =  1.07E-04,  avg # of iterations =  1.2

     total cpu time spent up to now is        9.8 secs

     total energy              =    -361.61618046 Ry
     estimated scf accuracy    <       0.02065854 Ry

     iteration #  8     ecut=    50.00 Ry     beta= 0.30
     Davidson diagonalization with overlap
     ethr =  5.74E-05,  avg # of iterations =  1.2

     total cpu time spent up to now is       10.6 secs

     total energy              =    -361.61717680 Ry
     estimated scf accuracy    <       0.01698319 Ry

     iteration #  9     ecut=    50.00 Ry     beta= 0.30
     Davidson diagonalization with overlap
     ethr =  4.72E-05,  avg # of iterations =  1.0

     total cpu time spent up to now is       11.4 secs

     total energy              =    -361.61396586 Ry
     estimated scf accuracy    <       0.01573528 Ry

     iteration # 10     ecut=    50.00 Ry     beta= 0.30
     Davidson diagonalization with overlap
     ethr =  4.37E-05,  avg # of iterations =  1.2

     total cpu time spent up to now is       12.1 secs

     total energy              =    -361.61232709 Ry
     estimated scf accuracy    <       0.00768959 Ry

     iteration # 11     ecut=    50.00 Ry     beta= 0.30
     Davidson diagonalization with overlap
     ethr =  2.14E-05,  avg # of iterations =  2.9

     total cpu time spent up to now is       13.1 secs

     total energy              =    -361.61319840 Ry
     estimated scf accuracy    <       0.00102996 Ry

     iteration # 12     ecut=    50.00 Ry     beta= 0.30
     Davidson diagonalization with overlap
     ethr =  2.86E-06,  avg # of iterations =  7.3

     total cpu time spent up to now is       14.8 secs

     total energy              =    -361.62070087 Ry
     estimated scf accuracy    <       0.00151611 Ry

     iteration # 13     ecut=    50.00 Ry     beta= 0.30
     Davidson diagonalization with overlap
     ethr =  2.86E-06,  avg # of iterations =  9.9

     total cpu time spent up to now is       17.1 secs

     total energy              =    -361.60982406 Ry
     estimated scf accuracy    <       0.04507322 Ry

     iteration # 14     ecut=    50.00 Ry     beta= 0.30
     Davidson diagonalization with overlap
     ethr =  2.86E-06,  avg # of iterations =  9.3

     total cpu time spent up to now is       19.4 secs

     total energy              =    -361.61572119 Ry
     estimated scf accuracy    <       0.00231987 Ry

     iteration # 15     ecut=    50.00 Ry     beta= 0.30
     Davidson diagonalization with overlap
     ethr =  2.86E-06,  avg # of iterations =  2.0

     total cpu time spent up to now is       20.2 secs

     total energy              =    -361.61548441 Ry
     estimated scf accuracy    <       0.00427185 Ry

     iteration # 16     ecut=    50.00 Ry     beta= 0.30
     Davidson diagonalization with overlap
     ethr =  2.86E-06,  avg # of iterations =  1.0

     total cpu time spent up to now is       21.0 secs

     total energy              =    -361.61538081 Ry
     estimated scf accuracy    <       0.00402116 Ry

     iteration # 17     ecut=    50.00 Ry     beta= 0.30
     Davidson diagonalization with overlap
     ethr =  2.86E-06,  avg # of iterations =  1.0

     total cpu time spent up to now is       21.8 secs

     total energy              =    -361.61453778 Ry
     estimated scf accuracy    <       0.00396987 Ry

     iteration # 18     ecut=    50.00 Ry     beta= 0.30
     Davidson diagonalization with overlap
     ethr =  2.86E-06,  avg # of iterations =  2.0

     total cpu time spent up to now is       22.6 secs

     total energy              =    -361.61434997 Ry
     estimated scf accuracy    <       0.00241610 Ry

     iteration # 19     ecut=    50.00 Ry     beta= 0.30
     Davidson diagonalization with overlap
     ethr =  2.86E-06,  avg # of iterations =  2.0

     total cpu time spent up to now is       23.5 secs

     total energy              =    -361.61454981 Ry
     estimated scf accuracy    <       0.00120056 Ry

     iteration # 20     ecut=    50.00 Ry     beta= 0.30
     Davidson diagonalization with overlap
     ethr =  2.86E-06,  avg # of iterations =  1.0

     total cpu time spent up to now is       24.3 secs

     total energy              =    -361.61482963 Ry
     estimated scf accuracy    <       0.00126222 Ry

     iteration # 21     ecut=    50.00 Ry     beta= 0.30
     Davidson diagonalization with overlap
     ethr =  2.86E-06,  avg # of iterations =  1.0

     total cpu time spent up to now is       25.1 secs

     total energy              =    -361.61395644 Ry
     estimated scf accuracy    <       0.00179733 Ry

     iteration # 22     ecut=    50.00 Ry     beta= 0.30
     Davidson diagonalization with overlap
     ethr =  2.86E-06,  avg # of iterations =  4.0

     total cpu time spent up to now is       26.1 secs

     total energy              =    -361.61413241 Ry
     estimated scf accuracy    <       0.00009621 Ry

     iteration # 23     ecut=    50.00 Ry     beta= 0.30
     Davidson diagonalization with overlap
     ethr =  2.67E-07,  avg # of iterations =  7.8

     total cpu time spent up to now is       28.0 secs

     total energy              =    -361.61431065 Ry
     estimated scf accuracy    <       0.00033454 Ry

     iteration # 24     ecut=    50.00 Ry     beta= 0.30
     Davidson diagonalization with overlap
     ethr =  2.67E-07,  avg # of iterations =  2.0

     total cpu time spent up to now is       28.8 secs

     total energy              =    -361.61424917 Ry
     estimated scf accuracy    <       0.00017881 Ry

     iteration # 25     ecut=    50.00 Ry     beta= 0.30
     Davidson diagonalization with overlap
     ethr =  2.67E-07,  avg # of iterations =  4.8

     total cpu time spent up to now is       30.1 secs

     total energy              =    -361.61429633 Ry
     estimated scf accuracy    <       0.00000138 Ry

     iteration # 26     ecut=    50.00 Ry     beta= 0.30
     Davidson diagonalization with overlap
     ethr =  3.82E-09,  avg # of iterations =  7.3

     total cpu time spent up to now is       31.8 secs

     total energy              =    -361.61430195 Ry
     estimated scf accuracy    <       0.00000009 Ry

     iteration # 27     ecut=    50.00 Ry     beta= 0.30
     Davidson diagonalization with overlap
     ethr =  2.50E-10,  avg # of iterations = 11.2

     total cpu time spent up to now is       34.5 secs

     total energy              =    -361.61430036 Ry
     estimated scf accuracy    <       0.00000830 Ry

     iteration # 28     ecut=    50.00 Ry     beta= 0.30
     Davidson diagonalization with overlap
     ethr =  2.50E-10,  avg # of iterations = 10.9

     total cpu time spent up to now is       37.1 secs

     total energy              =    -361.61430136 Ry
     estimated scf accuracy    <       0.00000044 Ry

     iteration # 29     ecut=    50.00 Ry     beta= 0.30
     Davidson diagonalization with overlap
     ethr =  2.50E-10,  avg # of iterations =  2.0

     total cpu time spent up to now is       38.0 secs

     total energy              =    -361.61430105 Ry
     estimated scf accuracy    <       0.00000061 Ry

     iteration # 30     ecut=    50.00 Ry     beta= 0.30
     Davidson diagonalization with overlap
     ethr =  2.50E-10,  avg # of iterations =  6.9

     total cpu time spent up to now is       39.7 secs

     End of self-consistent calculation

          k = 0.0000 0.0000 0.0000 (  1823 PWs)   bands (ev):

   -10.4784  -9.8109   1.8342   2.0407   2.0407   2.1161   2.2073   2.2073
     3.4699   3.4699   3.6500   3.6500   4.0240   7.4948   7.4948   7.8133
     8.1617   8.1617

          k = 0.0000 0.0000 0.0956 (  1847 PWs)   bands (ev):

   -10.4365  -9.8587   1.8072   2.0486   2.0486   2.0691   2.1926   2.1926
     3.4843   3.4843   3.6405   3.6405   4.2481   7.2524   7.5395   7.5395
     8.1172   8.1172

          k = 0.0000 0.0000 0.1912 (  1847 PWs)   bands (ev):

   -10.3200  -9.9867   1.7879   1.9558   2.0726   2.0726   2.1555   2.1555
     3.5225   3.5225   3.6134   3.6134   4.8225   6.4142   7.6619   7.6619
     7.9954   7.9954

          k = 0.0000 0.0000-0.2868 (  1836 PWs)   bands (ev):

   -10.1563 -10.1563   1.8418   1.8418   2.1108   2.1108   2.1108   2.1108
     3.5710   3.5710   3.5710   3.5710   5.5819   5.5819   7.8288   7.8288
     7.8288   7.8288

          k = 0.0000 0.1925 0.0000 (  1845 PWs)   bands (ev):

   -10.3023  -9.7126   1.8335   2.1233   2.1412   2.1517   2.2571   2.3444
     3.3895   3.4645   3.6573   3.7549   3.9774   6.4651   7.0111   7.1289
     7.6663   7.9300

          k = 0.0000 0.1925 0.0956 (  1834 PWs)   bands (ev):

   -10.2647  -9.7541   1.8088   1.9680   2.1518   2.2111   2.2610   2.3274
     3.4157   3.4790   3.6463   3.6981   4.2701   6.4911   6.8551   7.1835
     7.5630   7.8770

          k = 0.0000 0.1925 0.1912 (  1837 PWs)   bands (ev):

   -10.1605  -9.8658   1.7554   1.8180   2.1826   2.2166   2.2545   2.2835
     3.4801   3.5173   3.6140   3.6327   4.8934   6.2459   6.7859   7.3089
     7.3317   7.7318

          k = 0.0000 0.1925-0.2868 (  1824 PWs)   bands (ev):

   -10.0150 -10.0150   1.7450   1.7450   2.2300   2.2300   2.2316   2.2316
     3.5589   3.5589   3.5674   3.5674   5.6126   5.6126   7.0152   7.0152
     7.5326   7.5326

          k = 0.0000 0.3849 0.0000 (  1824 PWs)   bands (ev):

    -9.9105  -9.5302   1.6253   2.0067   2.3103   2.5682   2.6647   2.7642
     3.3083   3.5474   3.6842   3.8694   4.0744   4.7827   5.7673   6.3655
     7.1189   7.4272

          k = 0.0000 0.3849 0.0956 (  1820 PWs)   bands (ev):

    -9.8849  -9.5554   1.6068   1.9149   2.3302   2.5497   2.6363   2.6906
     3.3541   3.5556   3.6733   3.7968   4.3522   4.8733   5.7297   6.4410
     7.0814   7.3586

          k = 0.0000 0.3849 0.1912 (  1821 PWs)   bands (ev):

    -9.8149  -9.6245   1.5794   1.7330   2.3869   2.5288   2.5626   2.5989
     3.4588   3.5781   3.6452   3.6969   4.7204   5.0447   5.8438   6.6427
     6.8568   7.1704

          k = 0.0000 0.3849-0.2868 (  1828 PWs)   bands (ev):

    -9.7195  -9.7195   1.6073   1.6073   2.4705   2.4705   2.5442   2.5442
     3.5807   3.5807   3.6102   3.6102   4.9566   4.9566   6.3654   6.3654
     6.9098   6.9098

          k = 0.0000-0.5774 0.0000 (  1826 PWs)   bands (ev):

    -9.6696  -9.4697   1.7420   1.8247   2.3683   2.8228   2.8524   2.8697
     3.4814   3.6600   3.7207   3.8169   4.1599   4.2270   5.1515   5.9349
     6.6240   7.1485

          k = 0.0000-0.5774 0.0956 (  1820 PWs)   bands (ev):

    -9.6550  -9.4818   1.7025   1.7631   2.3948   2.8082   2.8122   2.8288
     3.5435   3.6621   3.7126   3.8133   4.1385   4.2036   5.3743   6.0251
     6.6649   7.0721

          k = 0.0000-0.5774 0.1912 (  1808 PWs)   bands (ev):

    -9.6160  -9.5158   1.6244   1.6476   2.4705   2.7095   2.7783   2.7799
     3.6522   3.6687   3.6956   3.7937   4.1152   4.1561   5.8811   6.2615
     6.6529   6.8616

          k = 0.0000-0.5774-0.2868 (  1800 PWs)   bands (ev):

    -9.5647  -9.5647   1.5897   1.5897   2.5834   2.5834   2.7641   2.7641
     3.6800   3.6800   3.7414   3.7414   4.1206   4.1206   6.3843   6.3843
     6.5676   6.5676

          k = 0.1667 0.2887 0.0000 (  1831 PWs)   bands (ev):

   -10.0167  -9.5724   1.7704   2.0120   2.2983   2.3207   2.6118   2.6193
     3.3163   3.4858   3.6726   3.9081   4.0136   5.5085   5.8340   6.4115
     7.3445   7.3798

          k = 0.1667 0.2887 0.0956 (  1823 PWs)   bands (ev):

    -9.9873  -9.6024   1.7451   1.9416   2.2801   2.3121   2.5658   2.5921
     3.3567   3.5112   3.6613   3.7949   4.3650   5.5992   5.7953   6.4300
     7.2745   7.3072

          k = 0.1667 0.2887 0.1912 (  1826 PWs)   bands (ev):

    -9.9067  -9.6844   1.6970   1.7877   2.2783   2.3005   2.5116   2.5451
     3.4557   3.5499   3.6318   3.6922   4.9181   5.6360   5.8999   6.5424
     7.0061   7.1133

          k = 0.1667 0.2887-0.2868 (  1820 PWs)   bands (ev):

    -9.7958  -9.7958   1.6938   1.6938   2.2921   2.2921   2.5062   2.5062
     3.5702   3.5702   3.5984   3.5984   5.3522   5.3522   6.3981   6.3981
     6.8773   6.8773

          k = 0.1667 0.4811 0.0000 (  1815 PWs)   bands (ev):

    -9.6794  -9.4662   1.8513   2.0686   2.3588   2.6609   2.8546   2.8971
     3.3752   3.5083   3.7446   3.9733   4.0515   4.6543   5.1170   5.4735
     6.5901   6.8486

          k = 0.1667 0.4811 0.0956 (  1824 PWs)   bands (ev):

    -9.6640  -9.4793   1.8258   2.0025   2.3554   2.6278   2.8111   2.8349
     3.4037   3.5749   3.7428   3.9746   4.0753   4.6799   5.2279   5.5998
     6.5662   6.8187

          k = 0.1667 0.4811 0.1912 (  1823 PWs)   bands (ev):

    -9.6227  -9.5159   1.7741   1.8629   2.3772   2.5449   2.7450   2.7707
     3.4999   3.6142   3.7492   3.8771   4.2470   4.5974   5.5661   5.9281
     6.4075   6.7512

          k = 0.1667 0.4811-0.2868 (  1816 PWs)   bands (ev):

    -9.5681  -9.5681   1.7703   1.7703   2.4490   2.4490   2.7352   2.7352
     3.5879   3.5879   3.7891   3.7891   4.4343   4.4343   5.9234   5.9234
     6.5156   6.5156

          k = 0.3333 0.5774 0.0000 (  1842 PWs)   bands (ev):

    -9.4997  -9.4997   1.9577   2.5387   2.5454   2.5454   3.1674   3.1674
     3.3321   3.4473   3.4473   3.4696   4.3827   4.4230   4.4230   6.0388
     6.0388   6.0637

          k = 0.3333 0.5774 0.0956 (  1806 PWs)   bands (ev):

    -9.4981  -9.4981   1.9836   2.4445   2.4445   2.4744   3.0813   3.0813
     3.3491   3.4630   3.6265   3.6265   4.3760   4.3760   4.5016   5.9458
     6.1595   6.1595

          k = 0.3333 0.5774 0.1912 (  1818 PWs)   bands (ev):

    -9.4949  -9.4949   2.0591   2.2663   2.2663   2.3307   3.0236   3.0236
     3.3820   3.4439   3.8731   3.8731   4.2611   4.2611   4.8119   5.6333
     6.3985   6.3985

          k = 0.3333 0.5774-0.2868 (  1812 PWs)   bands (ev):

    -9.4933  -9.4933   2.1798   2.1798   2.1877   2.1877   3.0092   3.0092
     3.4156   3.4156   4.0318   4.0318   4.1469   4.1469   5.2214   5.2214
     6.5180   6.5180

     highest occupied level (ev):     8.1617

!    total energy              =    -361.61430116 Ry
     estimated scf accuracy    <          7.9E-10 Ry

     The total energy is the sum of the following terms:
     one-electron contribution =    -145.99080843 Ry
     hartree contribution      =     115.32345167 Ry
     xc contribution           =    -109.71543969 Ry
     ewald contribution        =    -221.23150471 Ry

     convergence has been achieved in  30 iterations

     Forces acting on atoms (cartesian axes, Ry/au):

     atom    1 type  1   force =     0.00000000    0.00000000    0.02938376
     atom    2 type  1   force =     0.00000000   -0.00000000    0.02938376
     atom    3 type  2   force =     0.00000000    0.00000000   -0.02938376
     atom    4 type  2   force =     0.00000000   -0.00000000   -0.02938376
     The non-local contrib.  to forces
     atom    1 type  1   force =    -0.00000000    0.00000000    0.21669813
     atom    2 type  1   force =     0.00000000   -0.00000000    0.21669813
     atom    3 type  2   force =     0.00000000    0.00000000    0.19125449
     atom    4 type  2   force =    -0.00000000   -0.00000000    0.19125449
     The ionic contribution  to forces
     atom    1 type  1   force =    -0.00000000    0.00000000    1.74305167
     atom    2 type  1   force =     0.00000000   -0.00000000    1.74305167
     atom    3 type  2   force =    -0.00000000    0.00000000   -1.74305167
     atom    4 type  2   force =     0.00000000   -0.00000000   -1.74305167
     The local contribution  to forces
     atom    1 type  1   force =    -0.00000002    0.00000001   -1.91387272
     atom    2 type  1   force =     0.00000006   -0.00000003   -1.91387271
     atom    3 type  2   force =    -0.00000001    0.00000000    1.52391261
     atom    4 type  2   force =     0.00000002   -0.00000001    1.52391260
     The core correction contribution to forces
     atom    1 type  1   force =    -0.00000000    0.00000000   -0.01652026
     atom    2 type  1   force =     0.00000001   -0.00000000   -0.01652026
     atom    3 type  2   force =     0.00000000   -0.00000000   -0.00146899
     atom    4 type  2   force =    -0.00000000    0.00000000   -0.00146899
     The Hubbard contrib.    to forces
     atom    1 type  1   force =     0.00000000    0.00000000    0.00000000
     atom    2 type  1   force =     0.00000000    0.00000000    0.00000000
     atom    3 type  2   force =     0.00000000    0.00000000    0.00000000
     atom    4 type  2   force =     0.00000000    0.00000000    0.00000000
     The SCF correction term to forces
     atom    1 type  1   force =    -0.00000000    0.00000000    0.00003972
     atom    2 type  1   force =     0.00000000   -0.00000000    0.00003972
     atom    3 type  2   force =    -0.00000000    0.00000000   -0.00001741
     atom    4 type  2   force =     0.00000000   -0.00000000   -0.00001741

     Total force =     0.058768     Total SCF correction =     0.000061


     Computing stress (Cartesian axis) and pressure

          total   stress  (Ry/bohr**3)                   (kbar)     P=      135.12
   0.00136687   0.00000000   0.00000000          201.07        0.00        0.00
   0.00000000   0.00136687   0.00000000            0.00      201.07        0.00
   0.00000000   0.00000000   0.00002180            0.00        0.00        3.21


     Writing all to output data dir ./ZnO_ANN.save/

     init_run     :      1.81s CPU      1.26s WALL (       1 calls)
     electrons    :    101.00s CPU     38.09s WALL (       1 calls)
     forces       :      0.62s CPU      0.30s WALL (       1 calls)
     stress       :      2.16s CPU      1.07s WALL (       1 calls)

     Called by init_run:
     wfcinit      :      0.95s CPU      0.38s WALL (       1 calls)
     potinit      :      0.22s CPU      0.23s WALL (       1 calls)
     hinit0       :      0.53s CPU      0.54s WALL (       1 calls)

     Called by electrons:
     c_bands      :     83.43s CPU     31.10s WALL (      30 calls)
     sum_band     :     12.97s CPU      5.13s WALL (      30 calls)
     v_of_rho     :      1.07s CPU      0.47s WALL (      31 calls)
     newd         :      3.25s CPU      1.31s WALL (      31 calls)
     mix_rho      :      0.19s CPU      0.08s WALL (      30 calls)

     Called by c_bands:
     init_us_2    :      1.11s CPU      0.40s WALL (    1764 calls)
     init_us_2:cp :      1.09s CPU      0.39s WALL (    1764 calls)
     cegterg      :     80.84s CPU     30.11s WALL (     840 calls)

     Called by *egterg:
     cdiaghg      :     12.60s CPU      4.21s WALL (    4343 calls)
     h_psi        :     56.42s CPU     22.87s WALL (    4371 calls)
     s_psi        :      1.21s CPU      0.36s WALL (    4371 calls)
     g_psi        :      0.41s CPU      0.11s WALL (    3503 calls)

     Called by h_psi:
     h_psi:calbec :      1.79s CPU      0.65s WALL (    4371 calls)
     vloc_psi     :     53.00s CPU     21.68s WALL (    4371 calls)
     add_vuspsi   :      1.18s CPU      0.39s WALL (    4371 calls)

     General routines
     calbec       :      2.30s CPU      0.83s WALL (    5351 calls)
     fft          :      0.87s CPU      0.52s WALL (     426 calls)
     ffts         :      0.13s CPU      0.11s WALL (      61 calls)
     fftw         :     53.20s CPU     21.84s WALL (  124864 calls)
     interpolate  :      0.16s CPU      0.12s WALL (      31 calls)

     Parallel routines

     PWSCF        :   1m46.14s CPU     41.18s WALL


   This run was terminated on:  16:13: 5  13Jun2025            

=------------------------------------------------------------------------------=
   JOB DONE.
=------------------------------------------------------------------------------=
Note: The following floating-point exceptions are signalling: IEEE_INVALID_FLAG
