Authorization required, but no authorization protocol specified

Authorization required, but no authorization protocol specified

Authorization required, but no authorization protocol specified

Authorization required, but no authorization protocol specified

Authorization required, but no authorization protocol specified

Authorization required, but no authorization protocol specified

Authorization required, but no authorization protocol specified

Authorization required, but no authorization protocol specified

Authorization required, but no authorization protocol specified

Authorization required, but no authorization protocol specified


     Program PWSCF v.7.2 starts on 13Jun2025 at 16:51:39 

     This program is part of the open-source Quantum ESPRESSO suite
     for quantum simulation of materials; please cite
         "P. Giannozzi et al., J. Phys.:Condens. Matter 21 395502 (2009);
         "P. Giannozzi et al., J. Phys.:Condens. Matter 29 465901 (2017);
         "P. Giannozzi et al., J. Chem. Phys. 152 154105 (2020);
          URL http://www.quantum-espresso.org", 
     in publications or presentations arising from this work. More details at
     http://www.quantum-espresso.org/quote

     Parallel version (MPI), running on     8 processors

     MPI processes distributed on     1 nodes
     120727 MiB available memory on the printing compute node when the environment starts

     Reading input from /home/jvc/QEspresso7.2/ZnO_database_python/SCFs.in/scf-6.12-1.45.in

     Current dimensions of program PWSCF are:
     Max number of different atomic species (ntypx) = 10
     Max number of k-points (npk) =  40000
     Max angular momentum in pseudopotentials (lmaxx) =  4
     file Zn.upf: wavefunction(s)  3D renormalized

     R & G space division:  proc/nbgrp/npool/nimage =       8
     Subspace diagonalization in iterative solution of the eigenvalue problem:
     a serial algorithm will be used


     Parallelization info
     --------------------
     sticks:   dense  smooth     PW     G-vecs:    dense   smooth      PW
     Min         129      63     20                 4871     1723     290
     Max         130      64     21                 4874     1728     293
     Sum        1039     511    163                38979    13799    2333

     Using Slab Decomposition



     bravais-lattice index     =            4
     lattice parameter (alat)  =       6.1170  a.u.
     unit-cell volume          =     288.0021 (a.u.)^3
     number of atoms/cell      =            4
     number of atomic types    =            2
     number of electrons       =        36.00
     number of Kohn-Sham states=           18
     kinetic-energy cutoff     =      50.0000  Ry
     charge density cutoff     =     400.0000  Ry
     scf convergence threshold =      1.0E-08
     mixing beta               =       0.3000
     number of iterations used =            8  plain     mixing
     Exchange-correlation= PBE
                           (   1   4   3   4   0   0   0)

     celldm(1)=   6.117033  celldm(2)=   0.000000  celldm(3)=   1.452923
     celldm(4)=   0.000000  celldm(5)=   0.000000  celldm(6)=   0.000000

     crystal axes: (cart. coord. in units of alat)
               a(1) = (   1.000000   0.000000   0.000000 )  
               a(2) = (  -0.500000   0.866025   0.000000 )  
               a(3) = (   0.000000   0.000000   1.452923 )  

     reciprocal axes: (cart. coord. in units 2 pi/alat)
               b(1) = (  1.000000  0.577350 -0.000000 )  
               b(2) = (  0.000000  1.154701  0.000000 )  
               b(3) = (  0.000000 -0.000000  0.688268 )  


     PseudoPot. # 1 for Zn read from file:
     /home/jvc/QEspresso7.2/ZnO_database/pseudos/Zn.upf
     MD5 check sum: 7f56cabf9682ed8c977c2f7d0c5985c5
     Pseudo is Ultrasoft + core correction, Zval = 12.0
     Generated using &quot;atomic&quot; code by A. Dal Corso  v.6.2.2
     Using radial grid of 1201 points,  6 beta functions with: 
                l(1) =   0
                l(2) =   0
                l(3) =   1
                l(4) =   1
                l(5) =   2
                l(6) =   2
     Q(r) pseudized with 0 coefficients 


     PseudoPot. # 2 for O  read from file:
     /home/jvc/QEspresso7.2/ZnO_database/pseudos/O.upf
     MD5 check sum: 91400c9766925bcf19f520983a725ff0
     Pseudo is Ultrasoft + core correction, Zval =  6.0
     Generated using &quot;atomic&quot; code by A. Dal Corso  v.6.3MaX
     Using radial grid of 1095 points,  4 beta functions with: 
                l(1) =   0
                l(2) =   0
                l(3) =   1
                l(4) =   1
     Q(r) pseudized with 0 coefficients 


     atomic species   valence    mass     pseudopotential
        Zn            12.00    63.38000     Zn( 1.00)
        O              6.00    15.99900     O ( 1.00)

     12 Sym. Ops. (no inversion) found ( 6 have fractional translation)



   Cartesian axes

     site n.     atom                  positions (alat units)
         1           Zn  tau(   1) = (   0.5000000   0.2886751   0.7273818  )
         2           Zn  tau(   2) = (  -0.0000000   0.5773503   0.0009206  )
         3           O   tau(   3) = (   0.5000000   0.2886751   1.2781017  )
         4           O   tau(   4) = (  -0.0000000   0.5773503   0.5516404  )

     number of k points=    28
                       cart. coord. in units 2pi/alat
        k(    1) = (   0.0000000   0.0000000   0.0000000), wk =   0.0092593
        k(    2) = (   0.0000000   0.0000000   0.1147113), wk =   0.0185185
        k(    3) = (   0.0000000   0.0000000   0.2294226), wk =   0.0185185
        k(    4) = (   0.0000000   0.0000000  -0.3441340), wk =   0.0092593
        k(    5) = (   0.0000000   0.1924501   0.0000000), wk =   0.0555556
        k(    6) = (   0.0000000   0.1924501   0.1147113), wk =   0.1111111
        k(    7) = (   0.0000000   0.1924501   0.2294226), wk =   0.1111111
        k(    8) = (   0.0000000   0.1924501  -0.3441340), wk =   0.0555556
        k(    9) = (   0.0000000   0.3849002   0.0000000), wk =   0.0555556
        k(   10) = (   0.0000000   0.3849002   0.1147113), wk =   0.1111111
        k(   11) = (   0.0000000   0.3849002   0.2294226), wk =   0.1111111
        k(   12) = (   0.0000000   0.3849002  -0.3441340), wk =   0.0555556
        k(   13) = (   0.0000000  -0.5773503   0.0000000), wk =   0.0277778
        k(   14) = (   0.0000000  -0.5773503   0.1147113), wk =   0.0555556
        k(   15) = (   0.0000000  -0.5773503   0.2294226), wk =   0.0555556
        k(   16) = (   0.0000000  -0.5773503  -0.3441340), wk =   0.0277778
        k(   17) = (   0.1666667   0.2886751   0.0000000), wk =   0.0555556
        k(   18) = (   0.1666667   0.2886751   0.1147113), wk =   0.1111111
        k(   19) = (   0.1666667   0.2886751   0.2294226), wk =   0.1111111
        k(   20) = (   0.1666667   0.2886751  -0.3441340), wk =   0.0555556
        k(   21) = (   0.1666667   0.4811252   0.0000000), wk =   0.1111111
        k(   22) = (   0.1666667   0.4811252   0.1147113), wk =   0.2222222
        k(   23) = (   0.1666667   0.4811252   0.2294226), wk =   0.2222222
        k(   24) = (   0.1666667   0.4811252  -0.3441340), wk =   0.1111111
        k(   25) = (   0.3333333   0.5773503   0.0000000), wk =   0.0185185
        k(   26) = (   0.3333333   0.5773503   0.1147113), wk =   0.0370370
        k(   27) = (   0.3333333   0.5773503   0.2294226), wk =   0.0370370
        k(   28) = (   0.3333333   0.5773503  -0.3441340), wk =   0.0185185

     Dense  grid:    38979 G-vectors     FFT dimensions: (  40,  40,  60)

     Smooth grid:    13799 G-vectors     FFT dimensions: (  27,  27,  48)

     Estimated max dynamical RAM per process >      23.06 MB

     Estimated total dynamical RAM >     184.46 MB

     Check: negative core charge=   -0.000002

     Initial potential from superposition of free atoms

     starting charge      35.9925, renormalised to      36.0000
     Starting wfcs are   26 randomized atomic wfcs

     total cpu time spent up to now is        1.5 secs

     Self-consistent Calculation

     iteration #  1     ecut=    50.00 Ry     beta= 0.30
     Davidson diagonalization with overlap
     ethr =  1.00E-02,  avg # of iterations =  2.0

     total cpu time spent up to now is        2.3 secs

     total energy              =    -361.42934985 Ry
     estimated scf accuracy    <       0.68877601 Ry

     iteration #  2     ecut=    50.00 Ry     beta= 0.30
     Davidson diagonalization with overlap
     ethr =  1.91E-03,  avg # of iterations =  2.1

     total cpu time spent up to now is        3.3 secs

     total energy              =    -361.50234068 Ry
     estimated scf accuracy    <       0.10999547 Ry

     iteration #  3     ecut=    50.00 Ry     beta= 0.30
     Davidson diagonalization with overlap
     ethr =  3.06E-04,  avg # of iterations =  6.1

     total cpu time spent up to now is        4.8 secs

     total energy              =    -361.55044233 Ry
     estimated scf accuracy    <       0.06736953 Ry

     iteration #  4     ecut=    50.00 Ry     beta= 0.30
     Davidson diagonalization with overlap
     ethr =  1.87E-04,  avg # of iterations =  5.3

     total cpu time spent up to now is        6.2 secs

     total energy              =    -361.59331441 Ry
     estimated scf accuracy    <       0.03214663 Ry

     iteration #  5     ecut=    50.00 Ry     beta= 0.30
     Davidson diagonalization with overlap
     ethr =  8.93E-05,  avg # of iterations =  2.5

     total cpu time spent up to now is        7.1 secs

     total energy              =    -361.56303989 Ry
     estimated scf accuracy    <       0.06822674 Ry

     iteration #  6     ecut=    50.00 Ry     beta= 0.30
     Davidson diagonalization with overlap
     ethr =  8.93E-05,  avg # of iterations =  4.2

     total cpu time spent up to now is        8.3 secs

     total energy              =    -361.57210884 Ry
     estimated scf accuracy    <       0.00155696 Ry

     iteration #  7     ecut=    50.00 Ry     beta= 0.30
     Davidson diagonalization with overlap
     ethr =  4.32E-06,  avg # of iterations =  8.6

     total cpu time spent up to now is       10.3 secs

     total energy              =    -361.57505750 Ry
     estimated scf accuracy    <       0.00975130 Ry

     iteration #  8     ecut=    50.00 Ry     beta= 0.30
     Davidson diagonalization with overlap
     ethr =  4.32E-06,  avg # of iterations =  5.0

     total cpu time spent up to now is       11.6 secs

     total energy              =    -361.57515669 Ry
     estimated scf accuracy    <       0.00146606 Ry

     iteration #  9     ecut=    50.00 Ry     beta= 0.30
     Davidson diagonalization with overlap
     ethr =  4.07E-06,  avg # of iterations =  3.6

     total cpu time spent up to now is       12.6 secs

     total energy              =    -361.57547859 Ry
     estimated scf accuracy    <       0.00005092 Ry

     iteration # 10     ecut=    50.00 Ry     beta= 0.30
     Davidson diagonalization with overlap
     ethr =  1.41E-07,  avg # of iterations =  8.0

     total cpu time spent up to now is       14.4 secs

     total energy              =    -361.57561055 Ry
     estimated scf accuracy    <       0.00007118 Ry

     iteration # 11     ecut=    50.00 Ry     beta= 0.30
     Davidson diagonalization with overlap
     ethr =  1.41E-07,  avg # of iterations =  2.7

     total cpu time spent up to now is       15.3 secs

     total energy              =    -361.57561652 Ry
     estimated scf accuracy    <       0.00000713 Ry

     iteration # 12     ecut=    50.00 Ry     beta= 0.30
     Davidson diagonalization with overlap
     ethr =  1.98E-08,  avg # of iterations =  7.7

     total cpu time spent up to now is       17.1 secs

     total energy              =    -361.57562634 Ry
     estimated scf accuracy    <       0.00000847 Ry

     iteration # 13     ecut=    50.00 Ry     beta= 0.30
     Davidson diagonalization with overlap
     ethr =  1.98E-08,  avg # of iterations =  1.0

     total cpu time spent up to now is       17.8 secs

     total energy              =    -361.57562624 Ry
     estimated scf accuracy    <       0.00000434 Ry

     iteration # 14     ecut=    50.00 Ry     beta= 0.30
     Davidson diagonalization with overlap
     ethr =  1.20E-08,  avg # of iterations =  1.6

     total cpu time spent up to now is       18.6 secs

     total energy              =    -361.57562617 Ry
     estimated scf accuracy    <       0.00000290 Ry

     iteration # 15     ecut=    50.00 Ry     beta= 0.30
     Davidson diagonalization with overlap
     ethr =  8.07E-09,  avg # of iterations =  1.2

     total cpu time spent up to now is       19.4 secs

     total energy              =    -361.57562558 Ry
     estimated scf accuracy    <       0.00000196 Ry

     iteration # 16     ecut=    50.00 Ry     beta= 0.30
     Davidson diagonalization with overlap
     ethr =  5.45E-09,  avg # of iterations =  3.1

     total cpu time spent up to now is       20.4 secs

     total energy              =    -361.57562593 Ry
     estimated scf accuracy    <       0.00000022 Ry

     iteration # 17     ecut=    50.00 Ry     beta= 0.30
     Davidson diagonalization with overlap
     ethr =  5.99E-10,  avg # of iterations =  6.3

     total cpu time spent up to now is       21.8 secs

     End of self-consistent calculation

          k = 0.0000 0.0000 0.0000 (  1665 PWs)   bands (ev):

   -10.0602  -8.9664   2.7078   2.7622   2.7649   2.7649   3.0638   3.0638
     4.1943   4.1943   4.5475   4.5475   4.8090   7.7089   7.7089   8.9329
     8.9329   9.0240

          k = 0.0000 0.0000 0.1147 (  1694 PWs)   bands (ev):

    -9.9896  -9.0416   2.5104   2.6592   2.7669   2.7669   3.0227   3.0227
     4.2343   4.2343   4.5438   4.5438   5.2374   7.7943   7.7943   8.5062
     8.8562   8.8562

          k = 0.0000 0.0000 0.2294 (  1706 PWs)   bands (ev):

    -9.7942  -9.2460   2.2707   2.4316   2.7855   2.7855   2.9299   2.9299
     4.3324   4.3324   4.5156   4.5156   6.1061   7.7800   8.0267   8.0267
     8.6419   8.6419

          k = 0.0000 0.0000-0.3441 (  1712 PWs)   bands (ev):

    -9.5225  -9.5225   2.2524   2.2524   2.8400   2.8400   2.8400   2.8400
     4.4405   4.4405   4.4405   4.4405   6.9946   6.9946   8.3390   8.3390
     8.3390   8.3390

          k = 0.0000 0.1925 0.0000 (  1708 PWs)   bands (ev):

    -9.8968  -8.9273   2.5286   2.8239   2.8395   2.8881   3.1575   3.1926
     4.1273   4.2008   4.5249   4.5729   4.9012   6.8705   7.3052   7.8652
     8.7565   8.7946

          k = 0.0000 0.1925 0.1147 (  1708 PWs)   bands (ev):

    -9.8323  -8.9915   2.4548   2.5828   2.8460   2.8672   3.0835   3.1475
     4.1862   4.2379   4.5626   4.5753   5.3061   6.9786   7.4099   7.6705
     8.6667   8.7825

          k = 0.0000 0.1925 0.2294 (  1711 PWs)   bands (ev):

    -9.6551  -9.1684   2.2423   2.3030   2.8460   2.8754   2.9754   3.0449
     4.3138   4.3304   4.5204   4.5463   6.1193   7.1846   7.4349   7.6905
     8.4160   8.5137

          k = 0.0000 0.1925-0.3441 (  1720 PWs)   bands (ev):

    -9.4117  -9.4117   2.1671   2.1671   2.8856   2.8856   2.9425   2.9425
     4.4370   4.4370   4.4492   4.4492   6.7787   6.7787   7.9556   7.9556
     8.0607   8.0607

          k = 0.0000 0.3849 0.0000 (  1716 PWs)   bands (ev):

    -9.5183  -8.8855   2.3120   2.7507   2.9527   3.0589   3.5274   3.5456
     4.1567   4.3120   4.4894   4.6101   5.0244   5.7004   6.4700   6.6537
     8.1493   8.3545

          k = 0.0000 0.3849 0.1147 (  1722 PWs)   bands (ev):

    -9.4716  -8.9222   2.2372   2.5412   2.9741   3.0236   3.3508   3.4637
     4.2028   4.3318   4.5862   4.6412   5.2187   5.9344   6.5789   6.6235
     8.2434   8.2722

          k = 0.0000 0.3849 0.2294 (  1728 PWs)   bands (ev):

    -9.3462  -9.0274   2.0776   2.1841   2.9977   3.0422   3.1539   3.3163
     4.3468   4.3853   4.5284   4.6173   5.5542   6.0726   7.0059   7.0102
     7.9333   8.2845

          k = 0.0000 0.3849-0.3441 (  1724 PWs)   bands (ev):

    -9.1818  -9.1818   2.0151   2.0151   3.0389   3.0389   3.1604   3.1604
     4.4565   4.4565   4.5001   4.5001   5.8394   5.8394   7.4891   7.4891
     7.8188   7.8188

          k = 0.0000-0.5774 0.0000 (  1730 PWs)   bands (ev):

    -9.2635  -8.9219   2.3637   2.5781   2.9856   3.1866   3.4687   3.7607
     4.2687   4.4458   4.6246   4.6712   5.2356   5.3134   5.9465   5.9782
     7.6780   8.1296

          k = 0.0000-0.5774 0.1147 (  1728 PWs)   bands (ev):

    -9.2335  -8.9367   2.2661   2.3983   3.0175   3.1435   3.3888   3.6768
     4.3670   4.4510   4.5850   4.6712   5.1659   5.2904   6.1789   6.3656
     7.8571   8.0093

          k = 0.0000-0.5774 0.2294 (  1726 PWs)   bands (ev):

    -9.1561  -8.9836   2.0635   2.0905   3.1136   3.1203   3.2508   3.4809
     4.4660   4.5100   4.5277   4.6558   5.1453   5.2441   6.6441   7.1688
     7.6722   8.0721

          k = 0.0000-0.5774-0.3441 (  1744 PWs)   bands (ev):

    -9.0623  -9.0623   1.9596   1.9596   3.1552   3.1552   3.2737   3.2737
     4.4902   4.4902   4.6057   4.6057   5.1887   5.1887   7.1849   7.1849
     7.8499   7.8499

          k = 0.1667 0.2887 0.0000 (  1715 PWs)   bands (ev):

    -9.6238  -8.8879   2.4242   2.6949   2.9914   3.0093   3.4283   3.4759
     4.0767   4.2386   4.5037   4.6006   5.0567   6.1271   6.3189   7.0808
     8.3210   8.3568

          k = 0.1667 0.2887 0.1147 (  1717 PWs)   bands (ev):

    -9.5714  -8.9327   2.3479   2.5447   2.9536   2.9649   3.2649   3.3703
     4.1487   4.3054   4.5834   4.6227   5.3528   6.3289   6.4199   6.9674
     8.2043   8.4507

          k = 0.1667 0.2887 0.2294 (  1718 PWs)   bands (ev):

    -9.4298  -9.0594   2.1762   2.2220   2.9187   2.9529   3.1213   3.2422
     4.3042   4.3763   4.5361   4.5998   5.8537   6.4449   7.0087   7.0196
     7.8862   8.3887

          k = 0.1667 0.2887-0.3441 (  1706 PWs)   bands (ev):

    -9.2408  -9.2408   2.0845   2.0845   2.9364   2.9364   3.1278   3.1278
     4.4354   4.4354   4.4974   4.4974   6.1966   6.1966   7.4230   7.4230
     7.8726   7.8726

          k = 0.1667 0.4811 0.0000 (  1719 PWs)   bands (ev):

    -9.2738  -8.9147   2.4701   2.7325   2.9638   3.1355   3.6023   3.7906
     4.2342   4.2468   4.6268   4.6961   4.9157   5.3819   5.8479   6.2297
     7.6246   7.8456

          k = 0.1667 0.4811 0.1147 (  1727 PWs)   bands (ev):

    -9.2428  -8.9309   2.3774   2.5737   2.9275   3.1054   3.4701   3.6496
     4.2238   4.3970   4.6067   4.7747   4.9635   5.5732   5.8259   6.5324
     7.6440   7.8762

          k = 0.1667 0.4811 0.2294 (  1723 PWs)   bands (ev):

    -9.1625  -8.9813   2.1771   2.2442   2.9526   3.0620   3.3299   3.4443
     4.3281   4.4270   4.6195   4.7492   5.1767   5.5649   6.1748   7.1710
     7.3691   8.0945

          k = 0.1667 0.4811-0.3441 (  1722 PWs)   bands (ev):

    -9.0644  -9.0644   2.0864   2.0864   3.0171   3.0171   3.3137   3.3137
     4.4012   4.4012   4.6775   4.6775   5.3902   5.3902   6.7296   6.7296
     7.9188   7.9188

          k = 0.3333 0.5774 0.0000 (  1737 PWs)   bands (ev):

    -9.0406  -9.0406   2.6592   2.8760   2.8760   3.4993   3.7574   3.7574
     4.1429   4.3750   4.3750   4.3768   4.7305   5.3937   5.3937   6.9313
     6.9313   7.3131

          k = 0.3333 0.5774 0.1147 (  1710 PWs)   bands (ev):

    -9.0321  -9.0321   2.6857   2.7132   2.7132   3.3613   3.6035   3.6035
     4.1666   4.3631   4.5777   4.5777   4.9593   5.3457   5.3457   7.1440
     7.2047   7.2047

          k = 0.3333 0.5774 0.2294 (  1734 PWs)   bands (ev):

    -9.0149  -9.0149   2.4028   2.4028   2.7665   3.1183   3.4757   3.4757
     4.2136   4.3244   4.8107   4.8107   5.2689   5.2689   5.4767   6.6950
     7.7187   7.7187

          k = 0.3333 0.5774-0.3441 (  1722 PWs)   bands (ev):

    -9.0063  -9.0063   2.2613   2.2613   2.9103   2.9103   3.4398   3.4398
     4.2704   4.2704   4.9010   4.9010   5.2317   5.2317   6.0961   6.0961
     7.9669   7.9669

     highest occupied level (ev):     9.0240

!    total energy              =    -361.57562610 Ry
     estimated scf accuracy    <          3.4E-09 Ry

     The total energy is the sum of the following terms:
     one-electron contribution =    -140.23139412 Ry
     hartree contribution      =     113.53338211 Ry
     xc contribution           =    -109.86768025 Ry
     ewald contribution        =    -225.00993384 Ry

     convergence has been achieved in  17 iterations

     Forces acting on atoms (cartesian axes, Ry/au):

     atom    1 type  1   force =     0.00000000    0.00000000   -0.08647109
     atom    2 type  1   force =     0.00000000    0.00000000   -0.08647109
     atom    3 type  2   force =     0.00000000   -0.00000000    0.08647109
     atom    4 type  2   force =    -0.00000000   -0.00000000    0.08647109
     The non-local contrib.  to forces
     atom    1 type  1   force =     0.00000000    0.00000000   -0.33459253
     atom    2 type  1   force =    -0.00000000    0.00000000   -0.33459253
     atom    3 type  2   force =     0.00000000   -0.00000000   -0.21924443
     atom    4 type  2   force =     0.00000000    0.00000000   -0.21924443
     The ionic contribution  to forces
     atom    1 type  1   force =    -0.00000000    0.00000000   -2.30610529
     atom    2 type  1   force =     0.00000000   -0.00000000   -2.30610529
     atom    3 type  2   force =    -0.00000000    0.00000000    2.30610529
     atom    4 type  2   force =     0.00000000   -0.00000000    2.30610529
     The local contribution  to forces
     atom    1 type  1   force =    -0.00000002    0.00000001    2.52530793
     atom    2 type  1   force =     0.00000006   -0.00000004    2.52530793
     atom    3 type  2   force =    -0.00000001    0.00000000   -2.00172031
     atom    4 type  2   force =     0.00000002   -0.00000001   -2.00172031
     The core correction contribution to forces
     atom    1 type  1   force =    -0.00000000    0.00000000    0.02891004
     atom    2 type  1   force =     0.00000001   -0.00000000    0.02891004
     atom    3 type  2   force =     0.00000000   -0.00000000    0.00137367
     atom    4 type  2   force =    -0.00000000    0.00000000    0.00137367
     The Hubbard contrib.    to forces
     atom    1 type  1   force =     0.00000000    0.00000000    0.00000000
     atom    2 type  1   force =     0.00000000    0.00000000    0.00000000
     atom    3 type  2   force =     0.00000000    0.00000000    0.00000000
     atom    4 type  2   force =     0.00000000    0.00000000    0.00000000
     The SCF correction term to forces
     atom    1 type  1   force =    -0.00000000    0.00000000    0.00000922
     atom    2 type  1   force =     0.00000000   -0.00000000    0.00000922
     atom    3 type  2   force =    -0.00000000    0.00000000   -0.00004267
     atom    4 type  2   force =     0.00000000   -0.00000000   -0.00004267

     Total force =     0.172942     Total SCF correction =     0.000062


     Computing stress (Cartesian axis) and pressure

          total   stress  (Ry/bohr**3)                   (kbar)     P=      276.67
   0.00096508   0.00000000   0.00000000          141.97        0.00        0.00
   0.00000000   0.00096508   0.00000000            0.00      141.97        0.00
   0.00000000   0.00000000   0.00371212            0.00        0.00      546.07


     Writing all to output data dir ./ZnO_ANN.save/

     init_run     :      1.73s CPU      1.17s WALL (       1 calls)
     electrons    :     52.80s CPU     20.35s WALL (       1 calls)
     forces       :      0.64s CPU      0.30s WALL (       1 calls)
     stress       :      1.97s CPU      1.00s WALL (       1 calls)

     Called by init_run:
     wfcinit      :      0.96s CPU      0.38s WALL (       1 calls)
     potinit      :      0.22s CPU      0.23s WALL (       1 calls)
     hinit0       :      0.45s CPU      0.46s WALL (       1 calls)

     Called by electrons:
     c_bands      :     43.30s CPU     16.52s WALL (      17 calls)
     sum_band     :      7.14s CPU      2.85s WALL (      17 calls)
     v_of_rho     :      0.53s CPU      0.25s WALL (      18 calls)
     newd         :      1.70s CPU      0.72s WALL (      18 calls)
     mix_rho      :      0.09s CPU      0.04s WALL (      17 calls)

     Called by c_bands:
     init_us_2    :      0.67s CPU      0.23s WALL (    1036 calls)
     init_us_2:cp :      0.66s CPU      0.23s WALL (    1036 calls)
     cegterg      :     41.84s CPU     15.97s WALL (     476 calls)

     Called by *egterg:
     cdiaghg      :      7.05s CPU      2.38s WALL (    2471 calls)
     h_psi        :     29.41s CPU     12.17s WALL (    2499 calls)
     s_psi        :      0.64s CPU      0.20s WALL (    2499 calls)
     g_psi        :      0.19s CPU      0.05s WALL (    1995 calls)

     Called by h_psi:
     h_psi:calbec :      0.98s CPU      0.36s WALL (    2499 calls)
     vloc_psi     :     27.57s CPU     11.52s WALL (    2499 calls)
     add_vuspsi   :      0.64s CPU      0.21s WALL (    2499 calls)

     General routines
     calbec       :      1.29s CPU      0.47s WALL (    3115 calls)
     fft          :      0.55s CPU      0.37s WALL (     257 calls)
     ffts         :      0.12s CPU      0.10s WALL (      35 calls)
     fftw         :     28.20s CPU     11.79s WALL (   67408 calls)
     interpolate  :      0.13s CPU      0.11s WALL (      18 calls)

     Parallel routines

     PWSCF        :     57.66s CPU     23.28s WALL


   This run was terminated on:  16:52: 2  13Jun2025            

=------------------------------------------------------------------------------=
   JOB DONE.
=------------------------------------------------------------------------------=
Note: The following floating-point exceptions are signalling: IEEE_INVALID_FLAG
