Authorization required, but no authorization protocol specified

Authorization required, but no authorization protocol specified

Authorization required, but no authorization protocol specified

Authorization required, but no authorization protocol specified

Authorization required, but no authorization protocol specified

Authorization required, but no authorization protocol specified

Authorization required, but no authorization protocol specified

Authorization required, but no authorization protocol specified

Authorization required, but no authorization protocol specified

Authorization required, but no authorization protocol specified


     Program PWSCF v.7.2 starts on 13Jun2025 at 16:32:33 

     This program is part of the open-source Quantum ESPRESSO suite
     for quantum simulation of materials; please cite
         "P. Giannozzi et al., J. Phys.:Condens. Matter 21 395502 (2009);
         "P. Giannozzi et al., J. Phys.:Condens. Matter 29 465901 (2017);
         "P. Giannozzi et al., J. Chem. Phys. 152 154105 (2020);
          URL http://www.quantum-espresso.org", 
     in publications or presentations arising from this work. More details at
     http://www.quantum-espresso.org/quote

     Parallel version (MPI), running on     8 processors

     MPI processes distributed on     1 nodes
     120717 MiB available memory on the printing compute node when the environment starts

     Reading input from /home/jvc/QEspresso7.2/ZnO_database_python/SCFs.in/scf-5.99-1.65.in

     Current dimensions of program PWSCF are:
     Max number of different atomic species (ntypx) = 10
     Max number of k-points (npk) =  40000
     Max angular momentum in pseudopotentials (lmaxx) =  4
     file Zn.upf: wavefunction(s)  3D renormalized

     R & G space division:  proc/nbgrp/npool/nimage =       8
     Subspace diagonalization in iterative solution of the eigenvalue problem:
     a serial algorithm will be used


     Parallelization info
     --------------------
     sticks:   dense  smooth     PW     G-vecs:    dense   smooth      PW
     Min         122      62     18                 5178     1826     314
     Max         123      63     19                 5183     1833     319
     Sum         979     499    151                41445    14631    2539

     Using Slab Decomposition



     bravais-lattice index     =            4
     lattice parameter (alat)  =       5.9935  a.u.
     unit-cell volume          =     307.0173 (a.u.)^3
     number of atoms/cell      =            4
     number of atomic types    =            2
     number of electrons       =        36.00
     number of Kohn-Sham states=           18
     kinetic-energy cutoff     =      50.0000  Ry
     charge density cutoff     =     400.0000  Ry
     scf convergence threshold =      1.0E-08
     mixing beta               =       0.3000
     number of iterations used =            8  plain     mixing
     Exchange-correlation= PBE
                           (   1   4   3   4   0   0   0)

     celldm(1)=   5.993457  celldm(2)=   0.000000  celldm(3)=   1.646646
     celldm(4)=   0.000000  celldm(5)=   0.000000  celldm(6)=   0.000000

     crystal axes: (cart. coord. in units of alat)
               a(1) = (   1.000000   0.000000   0.000000 )  
               a(2) = (  -0.500000   0.866025   0.000000 )  
               a(3) = (   0.000000   0.000000   1.646646 )  

     reciprocal axes: (cart. coord. in units 2 pi/alat)
               b(1) = (  1.000000  0.577350 -0.000000 )  
               b(2) = (  0.000000  1.154701  0.000000 )  
               b(3) = (  0.000000 -0.000000  0.607295 )  


     PseudoPot. # 1 for Zn read from file:
     /home/jvc/QEspresso7.2/ZnO_database/pseudos/Zn.upf
     MD5 check sum: 7f56cabf9682ed8c977c2f7d0c5985c5
     Pseudo is Ultrasoft + core correction, Zval = 12.0
     Generated using &quot;atomic&quot; code by A. Dal Corso  v.6.2.2
     Using radial grid of 1201 points,  6 beta functions with: 
                l(1) =   0
                l(2) =   0
                l(3) =   1
                l(4) =   1
                l(5) =   2
                l(6) =   2
     Q(r) pseudized with 0 coefficients 


     PseudoPot. # 2 for O  read from file:
     /home/jvc/QEspresso7.2/ZnO_database/pseudos/O.upf
     MD5 check sum: 91400c9766925bcf19f520983a725ff0
     Pseudo is Ultrasoft + core correction, Zval =  6.0
     Generated using &quot;atomic&quot; code by A. Dal Corso  v.6.3MaX
     Using radial grid of 1095 points,  4 beta functions with: 
                l(1) =   0
                l(2) =   0
                l(3) =   1
                l(4) =   1
     Q(r) pseudized with 0 coefficients 


     atomic species   valence    mass     pseudopotential
        Zn            12.00    63.38000     Zn( 1.00)
        O              6.00    15.99900     O ( 1.00)

     12 Sym. Ops. (no inversion) found ( 6 have fractional translation)



   Cartesian axes

     site n.     atom                  positions (alat units)
         1           Zn  tau(   1) = (   0.5000000   0.2886751   0.8243661  )
         2           Zn  tau(   2) = (  -0.0000000   0.5773503   0.0010433  )
         3           O   tau(   3) = (   0.5000000   0.2886751   1.4485152  )
         4           O   tau(   4) = (  -0.0000000   0.5773503   0.6251925  )

     number of k points=    28
                       cart. coord. in units 2pi/alat
        k(    1) = (   0.0000000   0.0000000   0.0000000), wk =   0.0092593
        k(    2) = (   0.0000000   0.0000000   0.1012159), wk =   0.0185185
        k(    3) = (   0.0000000   0.0000000   0.2024317), wk =   0.0185185
        k(    4) = (   0.0000000   0.0000000  -0.3036476), wk =   0.0092593
        k(    5) = (   0.0000000   0.1924501   0.0000000), wk =   0.0555556
        k(    6) = (   0.0000000   0.1924501   0.1012159), wk =   0.1111111
        k(    7) = (   0.0000000   0.1924501   0.2024317), wk =   0.1111111
        k(    8) = (   0.0000000   0.1924501  -0.3036476), wk =   0.0555556
        k(    9) = (   0.0000000   0.3849002   0.0000000), wk =   0.0555556
        k(   10) = (   0.0000000   0.3849002   0.1012159), wk =   0.1111111
        k(   11) = (   0.0000000   0.3849002   0.2024317), wk =   0.1111111
        k(   12) = (   0.0000000   0.3849002  -0.3036476), wk =   0.0555556
        k(   13) = (   0.0000000  -0.5773503   0.0000000), wk =   0.0277778
        k(   14) = (   0.0000000  -0.5773503   0.1012159), wk =   0.0555556
        k(   15) = (   0.0000000  -0.5773503   0.2024317), wk =   0.0555556
        k(   16) = (   0.0000000  -0.5773503  -0.3036476), wk =   0.0277778
        k(   17) = (   0.1666667   0.2886751   0.0000000), wk =   0.0555556
        k(   18) = (   0.1666667   0.2886751   0.1012159), wk =   0.1111111
        k(   19) = (   0.1666667   0.2886751   0.2024317), wk =   0.1111111
        k(   20) = (   0.1666667   0.2886751  -0.3036476), wk =   0.0555556
        k(   21) = (   0.1666667   0.4811252   0.0000000), wk =   0.1111111
        k(   22) = (   0.1666667   0.4811252   0.1012159), wk =   0.2222222
        k(   23) = (   0.1666667   0.4811252   0.2024317), wk =   0.2222222
        k(   24) = (   0.1666667   0.4811252  -0.3036476), wk =   0.1111111
        k(   25) = (   0.3333333   0.5773503   0.0000000), wk =   0.0185185
        k(   26) = (   0.3333333   0.5773503   0.1012159), wk =   0.0370370
        k(   27) = (   0.3333333   0.5773503   0.2024317), wk =   0.0370370
        k(   28) = (   0.3333333   0.5773503  -0.3036476), wk =   0.0185185

     Dense  grid:    41445 G-vectors     FFT dimensions: (  40,  40,  64)

     Smooth grid:    14631 G-vectors     FFT dimensions: (  27,  27,  48)

     Estimated max dynamical RAM per process >      24.28 MB

     Estimated total dynamical RAM >     194.24 MB

     Check: negative core charge=   -0.000002

     Initial potential from superposition of free atoms

     starting charge      35.9925, renormalised to      36.0000
     Starting wfcs are   26 randomized atomic wfcs

     total cpu time spent up to now is        1.5 secs

     Self-consistent Calculation

     iteration #  1     ecut=    50.00 Ry     beta= 0.30
     Davidson diagonalization with overlap
     ethr =  1.00E-02,  avg # of iterations =  2.0

     total cpu time spent up to now is        2.3 secs

     total energy              =    -361.47720128 Ry
     estimated scf accuracy    <       0.67394641 Ry

     iteration #  2     ecut=    50.00 Ry     beta= 0.30
     Davidson diagonalization with overlap
     ethr =  1.87E-03,  avg # of iterations =  2.0

     total cpu time spent up to now is        3.3 secs

     total energy              =    -361.56074715 Ry
     estimated scf accuracy    <       0.09839368 Ry

     iteration #  3     ecut=    50.00 Ry     beta= 0.30
     Davidson diagonalization with overlap
     ethr =  2.73E-04,  avg # of iterations =  5.9

     total cpu time spent up to now is        4.9 secs

     total energy              =    -361.59867170 Ry
     estimated scf accuracy    <       0.05990394 Ry

     iteration #  4     ecut=    50.00 Ry     beta= 0.30
     Davidson diagonalization with overlap
     ethr =  1.66E-04,  avg # of iterations =  8.0

     total cpu time spent up to now is        6.7 secs

     total energy              =    -361.64408334 Ry
     estimated scf accuracy    <       0.21488967 Ry

     iteration #  5     ecut=    50.00 Ry     beta= 0.30
     Davidson diagonalization with overlap
     ethr =  1.66E-04,  avg # of iterations =  1.2

     total cpu time spent up to now is        7.5 secs

     total energy              =    -361.54664437 Ry
     estimated scf accuracy    <       0.13009657 Ry

     iteration #  6     ecut=    50.00 Ry     beta= 0.30
     Davidson diagonalization with overlap
     ethr =  1.66E-04,  avg # of iterations =  8.5

     total cpu time spent up to now is        9.5 secs

     total energy              =    -361.61030358 Ry
     estimated scf accuracy    <       0.25400116 Ry

     iteration #  7     ecut=    50.00 Ry     beta= 0.30
     Davidson diagonalization with overlap
     ethr =  1.66E-04,  avg # of iterations =  4.6

     total cpu time spent up to now is       10.6 secs

     total energy              =    -361.63058486 Ry
     estimated scf accuracy    <       0.04731620 Ry

     iteration #  8     ecut=    50.00 Ry     beta= 0.30
     Davidson diagonalization with overlap
     ethr =  1.31E-04,  avg # of iterations =  1.8

     total cpu time spent up to now is       11.4 secs

     total energy              =    -361.63290991 Ry
     estimated scf accuracy    <       0.04340424 Ry

     iteration #  9     ecut=    50.00 Ry     beta= 0.30
     Davidson diagonalization with overlap
     ethr =  1.21E-04,  avg # of iterations =  1.1

     total cpu time spent up to now is       12.1 secs

     total energy              =    -361.62934091 Ry
     estimated scf accuracy    <       0.04129935 Ry

     iteration # 10     ecut=    50.00 Ry     beta= 0.30
     Davidson diagonalization with overlap
     ethr =  1.15E-04,  avg # of iterations =  1.3

     total cpu time spent up to now is       12.9 secs

     total energy              =    -361.62334319 Ry
     estimated scf accuracy    <       0.03039905 Ry

     iteration # 11     ecut=    50.00 Ry     beta= 0.30
     Davidson diagonalization with overlap
     ethr =  8.44E-05,  avg # of iterations =  2.0

     total cpu time spent up to now is       13.8 secs

     total energy              =    -361.62538863 Ry
     estimated scf accuracy    <       0.01238140 Ry

     iteration # 12     ecut=    50.00 Ry     beta= 0.30
     Davidson diagonalization with overlap
     ethr =  3.44E-05,  avg # of iterations =  1.7

     total cpu time spent up to now is       14.6 secs

     total energy              =    -361.62650002 Ry
     estimated scf accuracy    <       0.01119982 Ry

     iteration # 13     ecut=    50.00 Ry     beta= 0.30
     Davidson diagonalization with overlap
     ethr =  3.11E-05,  avg # of iterations =  1.0

     total cpu time spent up to now is       15.3 secs

     total energy              =    -361.62956748 Ry
     estimated scf accuracy    <       0.01049483 Ry

     iteration # 14     ecut=    50.00 Ry     beta= 0.30
     Davidson diagonalization with overlap
     ethr =  2.92E-05,  avg # of iterations =  1.0

     total cpu time spent up to now is       16.1 secs

     total energy              =    -361.63088231 Ry
     estimated scf accuracy    <       0.01578795 Ry

     iteration # 15     ecut=    50.00 Ry     beta= 0.30
     Davidson diagonalization with overlap
     ethr =  2.92E-05,  avg # of iterations =  1.0

     total cpu time spent up to now is       16.8 secs

     total energy              =    -361.63130807 Ry
     estimated scf accuracy    <       0.01885647 Ry

     iteration # 16     ecut=    50.00 Ry     beta= 0.30
     Davidson diagonalization with overlap
     ethr =  2.92E-05,  avg # of iterations =  1.0

     total cpu time spent up to now is       17.6 secs

     total energy              =    -361.62072728 Ry
     estimated scf accuracy    <       0.01983816 Ry

     iteration # 17     ecut=    50.00 Ry     beta= 0.30
     Davidson diagonalization with overlap
     ethr =  2.92E-05,  avg # of iterations =  4.6

     total cpu time spent up to now is       18.9 secs

     total energy              =    -361.62586850 Ry
     estimated scf accuracy    <       0.00066976 Ry

     iteration # 18     ecut=    50.00 Ry     beta= 0.30
     Davidson diagonalization with overlap
     ethr =  1.86E-06,  avg # of iterations =  3.3

     total cpu time spent up to now is       19.8 secs

     total energy              =    -361.62597993 Ry
     estimated scf accuracy    <       0.00047491 Ry

     iteration # 19     ecut=    50.00 Ry     beta= 0.30
     Davidson diagonalization with overlap
     ethr =  1.32E-06,  avg # of iterations =  1.1

     total cpu time spent up to now is       20.6 secs

     total energy              =    -361.62595895 Ry
     estimated scf accuracy    <       0.00042625 Ry

     iteration # 20     ecut=    50.00 Ry     beta= 0.30
     Davidson diagonalization with overlap
     ethr =  1.18E-06,  avg # of iterations =  1.0

     total cpu time spent up to now is       21.4 secs

     total energy              =    -361.62589425 Ry
     estimated scf accuracy    <       0.00035085 Ry

     iteration # 21     ecut=    50.00 Ry     beta= 0.30
     Davidson diagonalization with overlap
     ethr =  9.75E-07,  avg # of iterations =  1.8

     total cpu time spent up to now is       22.2 secs

     total energy              =    -361.62590322 Ry
     estimated scf accuracy    <       0.00012233 Ry

     iteration # 22     ecut=    50.00 Ry     beta= 0.30
     Davidson diagonalization with overlap
     ethr =  3.40E-07,  avg # of iterations =  1.9

     total cpu time spent up to now is       23.0 secs

     total energy              =    -361.62588467 Ry
     estimated scf accuracy    <       0.00007195 Ry

     iteration # 23     ecut=    50.00 Ry     beta= 0.30
     Davidson diagonalization with overlap
     ethr =  2.00E-07,  avg # of iterations =  4.1

     total cpu time spent up to now is       24.1 secs

     total energy              =    -361.62590388 Ry
     estimated scf accuracy    <       0.00000150 Ry

     iteration # 24     ecut=    50.00 Ry     beta= 0.30
     Davidson diagonalization with overlap
     ethr =  4.18E-09,  avg # of iterations =  8.4

     total cpu time spent up to now is       26.1 secs

     total energy              =    -361.62590865 Ry
     estimated scf accuracy    <       0.00000486 Ry

     iteration # 25     ecut=    50.00 Ry     beta= 0.30
     Davidson diagonalization with overlap
     ethr =  4.18E-09,  avg # of iterations =  1.0

     total cpu time spent up to now is       26.8 secs

     total energy              =    -361.62590615 Ry
     estimated scf accuracy    <       0.00000348 Ry

     iteration # 26     ecut=    50.00 Ry     beta= 0.30
     Davidson diagonalization with overlap
     ethr =  4.18E-09,  avg # of iterations =  8.4

     total cpu time spent up to now is       28.8 secs

     total energy              =    -361.62590725 Ry
     estimated scf accuracy    <       0.00000550 Ry

     iteration # 27     ecut=    50.00 Ry     beta= 0.30
     Davidson diagonalization with overlap
     ethr =  4.18E-09,  avg # of iterations =  5.0

     total cpu time spent up to now is       30.1 secs

     total energy              =    -361.62590797 Ry
     estimated scf accuracy    <       0.00000014 Ry

     iteration # 28     ecut=    50.00 Ry     beta= 0.30
     Davidson diagonalization with overlap
     ethr =  3.78E-10,  avg # of iterations =  5.8

     total cpu time spent up to now is       31.4 secs

     End of self-consistent calculation

          k = 0.0000 0.0000 0.0000 (  1811 PWs)   bands (ev):

   -10.4954  -9.7382   1.9237   2.0362   2.0362   2.0950   2.2332   2.2332
     3.3894   3.3894   3.6088   3.6088   3.9188   7.2092   7.2092   7.8450
     8.0051   8.0051

          k = 0.0000 0.0000 0.1012 (  1834 PWs)   bands (ev):

   -10.4477  -9.7922   1.8533   2.0384   2.0440   2.0440   2.2139   2.2139
     3.4087   3.4087   3.5989   3.5989   4.1939   7.2631   7.2631   7.2943
     7.9526   7.9526

          k = 0.0000 0.0000 0.2024 (  1864 PWs)   bands (ev):

   -10.3152  -9.9369   1.7693   1.9082   2.0688   2.0688   2.1661   2.1661
     3.4579   3.4579   3.5686   3.5686   4.8498   6.4828   7.4101   7.4101
     7.8084   7.8084

          k = 0.0000 0.0000-0.3036 (  1846 PWs)   bands (ev):

   -10.1291 -10.1291   1.7916   1.7916   2.1120   2.1120   2.1120   2.1120
     3.5184   3.5184   3.5184   3.5184   5.6534   5.6534   7.6101   7.6101
     7.6101   7.6101

          k = 0.0000 0.1925 0.0000 (  1828 PWs)   bands (ev):

   -10.3313  -9.6616   1.8493   2.1273   2.1363   2.1783   2.2728   2.3655
     3.3179   3.3865   3.6199   3.7132   3.8816   6.2490   6.8412   6.8854
     7.6581   7.7939

          k = 0.0000 0.1925 0.1012 (  1829 PWs)   bands (ev):

   -10.2882  -9.7082   1.8147   1.9718   2.1380   2.1853   2.2811   2.3434
     3.3502   3.4051   3.6075   3.6565   4.2276   6.3027   6.7252   6.9070
     7.5681   7.7316

          k = 0.0000 0.1925 0.2024 (  1837 PWs)   bands (ev):

   -10.1693  -9.8344   1.7322   1.7858   2.1706   2.1823   2.2505   2.2883
     3.4266   3.4537   3.5706   3.5949   4.9118   6.1939   6.6149   7.0849
     7.2857   7.5606

          k = 0.0000 0.1925-0.3036 (  1838 PWs)   bands (ev):

   -10.0036 -10.0036   1.7026   1.7026   2.2073   2.2073   2.2239   2.2239
     3.5151   3.5151   3.5161   3.5161   5.6290   5.6290   6.9111   6.9111
     7.3245   7.3245

          k = 0.0000 0.3849 0.0000 (  1832 PWs)   bands (ev):

    -9.9624  -9.5285   1.6543   2.0387   2.2769   2.4825   2.6849   2.7640
     3.2616   3.4696   3.6426   3.7627   4.0499   4.7053   5.6728   6.0778
     7.0860   7.3322

          k = 0.0000 0.3849 0.1012 (  1832 PWs)   bands (ev):

    -9.9326  -9.5566   1.6225   1.9266   2.2983   2.4582   2.6501   2.6551
     3.3122   3.4800   3.6281   3.7437   4.3006   4.8349   5.6276   6.1698
     7.0880   7.2528

          k = 0.0000 0.3849 0.2024 (  1830 PWs)   bands (ev):

    -9.8517  -9.6343   1.5653   1.7082   2.3602   2.4365   2.5335   2.5614
     3.4245   3.5085   3.5924   3.6634   4.6379   5.0229   5.8176   6.4123
     6.9249   7.0340

          k = 0.0000 0.3849-0.3036 (  1836 PWs)   bands (ev):

    -9.7422  -9.7422   1.5728   1.5728   2.4543   2.4543   2.4614   2.4614
     3.5489   3.5489   3.5501   3.5501   4.8818   4.8818   6.4369   6.4369
     6.7288   6.7288

          k = 0.0000-0.5774 0.0000 (  1826 PWs)   bands (ev):

    -9.7295  -9.4990   1.7496   1.8842   2.3272   2.7199   2.7614   2.8848
     3.4139   3.5790   3.6643   3.7494   4.1878   4.2473   5.0333   5.6463
     6.6011   7.0774

          k = 0.0000-0.5774 0.1012 (  1842 PWs)   bands (ev):

    -9.7121  -9.5122   1.6978   1.7939   2.3557   2.6817   2.7343   2.8358
     3.4836   3.5816   3.6509   3.7480   4.1451   4.2195   5.3115   5.7578
     6.6749   6.9895

          k = 0.0000-0.5774 0.2024 (  1838 PWs)   bands (ev):

    -9.6658  -9.5501   1.5947   1.6294   2.4390   2.6439   2.6826   2.7129
     3.5898   3.5998   3.6257   3.7335   4.1078   4.1632   5.9038   6.0436
     6.7180   6.7467

          k = 0.0000-0.5774-0.3036 (  1832 PWs)   bands (ev):

    -9.6058  -9.6058   1.5490   1.5490   2.5664   2.5664   2.6464   2.6464
     3.6042   3.6042   3.6876   3.6876   4.1176   4.1176   6.4050   6.4050
     6.4586   6.4586

          k = 0.1667 0.2887 0.0000 (  1831 PWs)   bands (ev):

   -10.0631  -9.5571   1.7854   2.0165   2.2826   2.3147   2.6159   2.6322
     3.2552   3.4069   3.6337   3.7896   3.9957   5.3547   5.6763   6.2299
     7.2884   7.3001

          k = 0.1667 0.2887 0.1012 (  1825 PWs)   bands (ev):

   -10.0292  -9.5907   1.7474   1.9381   2.2728   2.2848   2.5355   2.5874
     3.3016   3.4414   3.6202   3.7394   4.3286   5.4706   5.6619   6.2270
     7.2045   7.2703

          k = 0.1667 0.2887 0.2024 (  1838 PWs)   bands (ev):

    -9.9364  -9.6830   1.6707   1.7529   2.2659   2.2718   2.4563   2.5191
     3.4111   3.4871   3.5850   3.6549   4.8710   5.5242   5.8649   6.3563
     6.9794   7.0469

          k = 0.1667 0.2887-0.3036 (  1836 PWs)   bands (ev):

    -9.8096  -9.8096   1.6483   1.6483   2.2734   2.2734   2.4567   2.4567
     3.5234   3.5234   3.5533   3.5533   5.2589   5.2589   6.4421   6.4421
     6.7204   6.7204

          k = 0.1667 0.4811 0.0000 (  1836 PWs)   bands (ev):

    -9.7390  -9.4945   1.8575   2.0975   2.3139   2.5635   2.8466   2.9096
     3.3333   3.4273   3.6797   3.8650   4.0068   4.6239   4.9803   5.3334
     6.5589   6.7834

          k = 0.1667 0.4811 0.1012 (  1833 PWs)   bands (ev):

    -9.7206  -9.5087   1.8182   2.0078   2.3059   2.5355   2.7820   2.8267
     3.3554   3.5097   3.6759   3.8963   4.0208   4.6544   5.0915   5.5059
     6.5404   6.7714

          k = 0.1667 0.4811 0.2024 (  1830 PWs)   bands (ev):

    -9.6719  -9.5493   1.7335   1.8215   2.3300   2.4818   2.6941   2.7190
     3.4512   3.5471   3.6849   3.8233   4.1925   4.5560   5.4432   5.9463
     6.3347   6.7780

          k = 0.1667 0.4811-0.3036 (  1824 PWs)   bands (ev):

    -9.6086  -9.6086   1.7104   1.7104   2.4054   2.4054   2.6678   2.6678
     3.5270   3.5270   3.7353   3.7353   4.3850   4.3850   5.8484   5.8484
     6.5499   6.5499

          k = 0.3333 0.5774 0.0000 (  1833 PWs)   bands (ev):

    -9.5528  -9.5528   1.9678   2.4287   2.4287   2.6567   3.0907   3.0907
     3.2859   3.4213   3.4213   3.4385   4.1615   4.3900   4.3900   5.9580
     5.9580   6.1006

          k = 0.3333 0.5774 0.1012 (  1824 PWs)   bands (ev):

    -9.5502  -9.5502   1.9949   2.3164   2.3164   2.5683   2.9851   2.9851
     3.3052   3.4306   3.6060   3.6060   4.3110   4.3426   4.3426   5.9685
     6.1163   6.1163

          k = 0.3333 0.5774 0.2024 (  1839 PWs)   bands (ev):

    -9.5451  -9.5451   2.0767   2.1113   2.1113   2.3874   2.9110   2.9110
     3.3403   3.4083   3.8424   3.8424   4.2377   4.2377   4.6828   5.6184
     6.4254   6.4254

          k = 0.3333 0.5774-0.3036 (  1842 PWs)   bands (ev):

    -9.5425  -9.5425   2.0195   2.0195   2.2112   2.2112   2.8921   2.8921
     3.3762   3.3762   3.9675   3.9675   4.1556   4.1556   5.1538   5.1538
     6.5785   6.5785

     highest occupied level (ev):     8.0051

!    total energy              =    -361.62590806 Ry
     estimated scf accuracy    <          6.8E-09 Ry

     The total energy is the sum of the following terms:
     one-electron contribution =    -146.20558070 Ry
     hartree contribution      =     115.35203433 Ry
     xc contribution           =    -109.69839234 Ry
     ewald contribution        =    -221.07396935 Ry

     convergence has been achieved in  28 iterations

     Forces acting on atoms (cartesian axes, Ry/au):

     atom    1 type  1   force =     0.00000000    0.00000000    0.00882098
     atom    2 type  1   force =     0.00000000    0.00000000    0.00882098
     atom    3 type  2   force =    -0.00000000    0.00000000   -0.00882098
     atom    4 type  2   force =     0.00000000   -0.00000000   -0.00882098
     The non-local contrib.  to forces
     atom    1 type  1   force =     0.00000000    0.00000000    0.05297907
     atom    2 type  1   force =     0.00000000   -0.00000000    0.05297907
     atom    3 type  2   force =     0.00000000    0.00000000    0.05191832
     atom    4 type  2   force =    -0.00000000   -0.00000000    0.05191832
     The ionic contribution  to forces
     atom    1 type  1   force =    -0.00000000    0.00000000    0.49425572
     atom    2 type  1   force =     0.00000000   -0.00000000    0.49425572
     atom    3 type  2   force =    -0.00000000    0.00000000   -0.49425572
     atom    4 type  2   force =     0.00000000   -0.00000000   -0.49425572
     The local contribution  to forces
     atom    1 type  1   force =    -0.00000002    0.00000001   -0.53445525
     atom    2 type  1   force =     0.00000006   -0.00000004   -0.53445526
     atom    3 type  2   force =    -0.00000001    0.00000000    0.43392084
     atom    4 type  2   force =     0.00000002   -0.00000001    0.43392084
     The core correction contribution to forces
     atom    1 type  1   force =    -0.00000000    0.00000000   -0.00394652
     atom    2 type  1   force =     0.00000001   -0.00000000   -0.00394653
     atom    3 type  2   force =     0.00000000   -0.00000000   -0.00040634
     atom    4 type  2   force =    -0.00000000    0.00000000   -0.00040634
     The Hubbard contrib.    to forces
     atom    1 type  1   force =     0.00000000    0.00000000    0.00000000
     atom    2 type  1   force =     0.00000000    0.00000000    0.00000000
     atom    3 type  2   force =     0.00000000    0.00000000    0.00000000
     atom    4 type  2   force =     0.00000000    0.00000000    0.00000000
     The SCF correction term to forces
     atom    1 type  1   force =     0.00000000   -0.00000000   -0.00002107
     atom    2 type  1   force =    -0.00000000    0.00000000   -0.00002107
     atom    3 type  2   force =     0.00000000   -0.00000000   -0.00000712
     atom    4 type  2   force =    -0.00000000    0.00000000   -0.00000712

     Total force =     0.017642     Total SCF correction =     0.000031


     Computing stress (Cartesian axis) and pressure

          total   stress  (Ry/bohr**3)                   (kbar)     P=      112.30
   0.00088637   0.00000000   0.00000000          130.39        0.00        0.00
   0.00000000   0.00088637   0.00000000            0.00      130.39        0.00
   0.00000000   0.00000000   0.00051751            0.00        0.00       76.13


     Writing all to output data dir ./ZnO_ANN.save/

     init_run     :      1.72s CPU      1.18s WALL (       1 calls)
     electrons    :     79.37s CPU     29.94s WALL (       1 calls)
     forces       :      0.69s CPU      0.32s WALL (       1 calls)
     stress       :      2.33s CPU      1.23s WALL (       1 calls)

     Called by init_run:
     wfcinit      :      0.93s CPU      0.38s WALL (       1 calls)
     potinit      :      0.22s CPU      0.23s WALL (       1 calls)
     hinit0       :      0.46s CPU      0.47s WALL (       1 calls)

     Called by electrons:
     c_bands      :     63.18s CPU     23.55s WALL (      28 calls)
     sum_band     :     12.05s CPU      4.71s WALL (      28 calls)
     v_of_rho     :      0.89s CPU      0.40s WALL (      29 calls)
     newd         :      3.01s CPU      1.23s WALL (      29 calls)
     mix_rho      :      0.15s CPU      0.07s WALL (      28 calls)

     Called by c_bands:
     init_us_2    :      1.10s CPU      0.40s WALL (    1652 calls)
     init_us_2:cp :      1.08s CPU      0.39s WALL (    1652 calls)
     cegterg      :     60.76s CPU     22.60s WALL (     784 calls)

     Called by *egterg:
     cdiaghg      :      9.50s CPU      3.12s WALL (    3319 calls)
     h_psi        :     42.67s CPU     17.42s WALL (    3347 calls)
     s_psi        :      1.00s CPU      0.28s WALL (    3347 calls)
     g_psi        :      0.30s CPU      0.08s WALL (    2535 calls)

     Called by h_psi:
     h_psi:calbec :      1.48s CPU      0.52s WALL (    3347 calls)
     vloc_psi     :     39.84s CPU     16.47s WALL (    3347 calls)
     add_vuspsi   :      0.97s CPU      0.31s WALL (    3347 calls)

     General routines
     calbec       :      1.99s CPU      0.68s WALL (    4271 calls)
     fft          :      0.74s CPU      0.43s WALL (     400 calls)
     ffts         :      0.14s CPU      0.11s WALL (      57 calls)
     fftw         :     41.26s CPU     17.10s WALL (   98578 calls)
     interpolate  :      0.16s CPU      0.12s WALL (      29 calls)

     Parallel routines

     PWSCF        :   1m24.67s CPU     33.14s WALL


   This run was terminated on:  16:33: 7  13Jun2025            

=------------------------------------------------------------------------------=
   JOB DONE.
=------------------------------------------------------------------------------=
Note: The following floating-point exceptions are signalling: IEEE_INVALID_FLAG
