Authorization required, but no authorization protocol specified

Authorization required, but no authorization protocol specified

Authorization required, but no authorization protocol specified

Authorization required, but no authorization protocol specified

Authorization required, but no authorization protocol specified

Authorization required, but no authorization protocol specified

Authorization required, but no authorization protocol specified

Authorization required, but no authorization protocol specified

Authorization required, but no authorization protocol specified

Authorization required, but no authorization protocol specified


     Program PWSCF v.7.2 starts on 13Jun2025 at 16: 5:49 

     This program is part of the open-source Quantum ESPRESSO suite
     for quantum simulation of materials; please cite
         "P. Giannozzi et al., J. Phys.:Condens. Matter 21 395502 (2009);
         "P. Giannozzi et al., J. Phys.:Condens. Matter 29 465901 (2017);
         "P. Giannozzi et al., J. Chem. Phys. 152 154105 (2020);
          URL http://www.quantum-espresso.org", 
     in publications or presentations arising from this work. More details at
     http://www.quantum-espresso.org/quote

     Parallel version (MPI), running on     8 processors

     MPI processes distributed on     1 nodes
     120724 MiB available memory on the printing compute node when the environment starts

     Reading input from /home/jvc/QEspresso7.2/ZnO_database_python/SCFs.in/scf-5.87-1.57.in

     Current dimensions of program PWSCF are:
     Max number of different atomic species (ntypx) = 10
     Max number of k-points (npk) =  40000
     Max angular momentum in pseudopotentials (lmaxx) =  4
     file Zn.upf: wavefunction(s)  3D renormalized

     R & G space division:  proc/nbgrp/npool/nimage =       8
     Subspace diagonalization in iterative solution of the eigenvalue problem:
     a serial algorithm will be used


     Parallelization info
     --------------------
     sticks:   dense  smooth     PW     G-vecs:    dense   smooth      PW
     Min         119      59     18                 4647     1637     282
     Max         120      60     19                 4654     1642     285
     Sum         955     475    151                37205    13115    2273

     Using Slab Decomposition



     bravais-lattice index     =            4
     lattice parameter (alat)  =       5.8699  a.u.
     unit-cell volume          =     274.2774 (a.u.)^3
     number of atoms/cell      =            4
     number of atomic types    =            2
     number of electrons       =        36.00
     number of Kohn-Sham states=           18
     kinetic-energy cutoff     =      50.0000  Ry
     charge density cutoff     =     400.0000  Ry
     scf convergence threshold =      1.0E-08
     mixing beta               =       0.3000
     number of iterations used =            8  plain     mixing
     Exchange-correlation= PBE
                           (   1   4   3   4   0   0   0)

     celldm(1)=   5.869880  celldm(2)=   0.000000  celldm(3)=   1.565928
     celldm(4)=   0.000000  celldm(5)=   0.000000  celldm(6)=   0.000000

     crystal axes: (cart. coord. in units of alat)
               a(1) = (   1.000000   0.000000   0.000000 )  
               a(2) = (  -0.500000   0.866025   0.000000 )  
               a(3) = (   0.000000   0.000000   1.565928 )  

     reciprocal axes: (cart. coord. in units 2 pi/alat)
               b(1) = (  1.000000  0.577350 -0.000000 )  
               b(2) = (  0.000000  1.154701  0.000000 )  
               b(3) = (  0.000000 -0.000000  0.638599 )  


     PseudoPot. # 1 for Zn read from file:
     /home/jvc/QEspresso7.2/ZnO_database/pseudos/Zn.upf
     MD5 check sum: 7f56cabf9682ed8c977c2f7d0c5985c5
     Pseudo is Ultrasoft + core correction, Zval = 12.0
     Generated using &quot;atomic&quot; code by A. Dal Corso  v.6.2.2
     Using radial grid of 1201 points,  6 beta functions with: 
                l(1) =   0
                l(2) =   0
                l(3) =   1
                l(4) =   1
                l(5) =   2
                l(6) =   2
     Q(r) pseudized with 0 coefficients 


     PseudoPot. # 2 for O  read from file:
     /home/jvc/QEspresso7.2/ZnO_database/pseudos/O.upf
     MD5 check sum: 91400c9766925bcf19f520983a725ff0
     Pseudo is Ultrasoft + core correction, Zval =  6.0
     Generated using &quot;atomic&quot; code by A. Dal Corso  v.6.3MaX
     Using radial grid of 1095 points,  4 beta functions with: 
                l(1) =   0
                l(2) =   0
                l(3) =   1
                l(4) =   1
     Q(r) pseudized with 0 coefficients 


     atomic species   valence    mass     pseudopotential
        Zn            12.00    63.38000     Zn( 1.00)
        O              6.00    15.99900     O ( 1.00)

     12 Sym. Ops. (no inversion) found ( 6 have fractional translation)



   Cartesian axes

     site n.     atom                  positions (alat units)
         1           Zn  tau(   1) = (   0.5000000   0.2886751   0.7839560  )
         2           Zn  tau(   2) = (  -0.0000000   0.5773503   0.0009921  )
         3           O   tau(   3) = (   0.5000000   0.2886751   1.3775096  )
         4           O   tau(   4) = (  -0.0000000   0.5773503   0.5945458  )

     number of k points=    28
                       cart. coord. in units 2pi/alat
        k(    1) = (   0.0000000   0.0000000   0.0000000), wk =   0.0092593
        k(    2) = (   0.0000000   0.0000000   0.1064332), wk =   0.0185185
        k(    3) = (   0.0000000   0.0000000   0.2128664), wk =   0.0185185
        k(    4) = (   0.0000000   0.0000000  -0.3192996), wk =   0.0092593
        k(    5) = (   0.0000000   0.1924501   0.0000000), wk =   0.0555556
        k(    6) = (   0.0000000   0.1924501   0.1064332), wk =   0.1111111
        k(    7) = (   0.0000000   0.1924501   0.2128664), wk =   0.1111111
        k(    8) = (   0.0000000   0.1924501  -0.3192996), wk =   0.0555556
        k(    9) = (   0.0000000   0.3849002   0.0000000), wk =   0.0555556
        k(   10) = (   0.0000000   0.3849002   0.1064332), wk =   0.1111111
        k(   11) = (   0.0000000   0.3849002   0.2128664), wk =   0.1111111
        k(   12) = (   0.0000000   0.3849002  -0.3192996), wk =   0.0555556
        k(   13) = (   0.0000000  -0.5773503   0.0000000), wk =   0.0277778
        k(   14) = (   0.0000000  -0.5773503   0.1064332), wk =   0.0555556
        k(   15) = (   0.0000000  -0.5773503   0.2128664), wk =   0.0555556
        k(   16) = (   0.0000000  -0.5773503  -0.3192996), wk =   0.0277778
        k(   17) = (   0.1666667   0.2886751   0.0000000), wk =   0.0555556
        k(   18) = (   0.1666667   0.2886751   0.1064332), wk =   0.1111111
        k(   19) = (   0.1666667   0.2886751   0.2128664), wk =   0.1111111
        k(   20) = (   0.1666667   0.2886751  -0.3192996), wk =   0.0555556
        k(   21) = (   0.1666667   0.4811252   0.0000000), wk =   0.1111111
        k(   22) = (   0.1666667   0.4811252   0.1064332), wk =   0.2222222
        k(   23) = (   0.1666667   0.4811252   0.2128664), wk =   0.2222222
        k(   24) = (   0.1666667   0.4811252  -0.3192996), wk =   0.1111111
        k(   25) = (   0.3333333   0.5773503   0.0000000), wk =   0.0185185
        k(   26) = (   0.3333333   0.5773503   0.1064332), wk =   0.0370370
        k(   27) = (   0.3333333   0.5773503   0.2128664), wk =   0.0370370
        k(   28) = (   0.3333333   0.5773503  -0.3192996), wk =   0.0185185

     Dense  grid:    37205 G-vectors     FFT dimensions: (  40,  40,  60)

     Smooth grid:    13115 G-vectors     FFT dimensions: (  27,  27,  48)

     Estimated max dynamical RAM per process >      22.19 MB

     Estimated total dynamical RAM >     177.50 MB

     Check: negative core charge=   -0.000002

     Initial potential from superposition of free atoms

     starting charge      35.9925, renormalised to      36.0000
     Starting wfcs are   26 randomized atomic wfcs

     total cpu time spent up to now is        1.5 secs

     Self-consistent Calculation

     iteration #  1     ecut=    50.00 Ry     beta= 0.30
     Davidson diagonalization with overlap
     ethr =  1.00E-02,  avg # of iterations =  2.0

     total cpu time spent up to now is        2.3 secs

     total energy              =    -361.43052664 Ry
     estimated scf accuracy    <       0.67186074 Ry

     iteration #  2     ecut=    50.00 Ry     beta= 0.30
     Davidson diagonalization with overlap
     ethr =  1.87E-03,  avg # of iterations =  2.1

     total cpu time spent up to now is        3.2 secs

     total energy              =    -361.49005134 Ry
     estimated scf accuracy    <       0.11911930 Ry

     iteration #  3     ecut=    50.00 Ry     beta= 0.30
     Davidson diagonalization with overlap
     ethr =  3.31E-04,  avg # of iterations =  6.1

     total cpu time spent up to now is        4.8 secs

     total energy              =    -361.54862494 Ry
     estimated scf accuracy    <       0.07685725 Ry

     iteration #  4     ecut=    50.00 Ry     beta= 0.30
     Davidson diagonalization with overlap
     ethr =  2.13E-04,  avg # of iterations =  3.1

     total cpu time spent up to now is        5.7 secs

     total energy              =    -361.57835035 Ry
     estimated scf accuracy    <       0.00630935 Ry

     iteration #  5     ecut=    50.00 Ry     beta= 0.30
     Davidson diagonalization with overlap
     ethr =  1.75E-05,  avg # of iterations = 10.8

     total cpu time spent up to now is        8.3 secs

     total energy              =    -361.65330712 Ry
     estimated scf accuracy    <       0.38541376 Ry

     iteration #  6     ecut=    50.00 Ry     beta= 0.30
     Davidson diagonalization with overlap
     ethr =  1.75E-05,  avg # of iterations =  2.0

     total cpu time spent up to now is        9.1 secs

     total energy              =    -361.74629180 Ry
     estimated scf accuracy    <       0.33354251 Ry

     iteration #  7     ecut=    50.00 Ry     beta= 0.30
     Davidson diagonalization with overlap
     ethr =  1.75E-05,  avg # of iterations =  6.9

     total cpu time spent up to now is       10.7 secs

     total energy              =    -361.38231849 Ry
     estimated scf accuracy    <       0.63733270 Ry

     iteration #  8     ecut=    50.00 Ry     beta= 0.30
     Davidson diagonalization with overlap
     ethr =  1.75E-05,  avg # of iterations = 12.7

     total cpu time spent up to now is       13.6 secs

     total energy              =    -361.59127235 Ry
     estimated scf accuracy    <       0.07067619 Ry

     iteration #  9     ecut=    50.00 Ry     beta= 0.30
     Davidson diagonalization with overlap
     ethr =  1.75E-05,  avg # of iterations =  1.1

     total cpu time spent up to now is       14.4 secs

     total energy              =    -361.57398404 Ry
     estimated scf accuracy    <       0.07460424 Ry

     iteration # 10     ecut=    50.00 Ry     beta= 0.30
     Davidson diagonalization with overlap
     ethr =  1.75E-05,  avg # of iterations =  4.4

     total cpu time spent up to now is       15.5 secs

     total energy              =    -361.56738542 Ry
     estimated scf accuracy    <       0.02986901 Ry

     iteration # 11     ecut=    50.00 Ry     beta= 0.30
     Davidson diagonalization with overlap
     ethr =  1.75E-05,  avg # of iterations =  4.9

     total cpu time spent up to now is       16.7 secs

     total energy              =    -361.56849365 Ry
     estimated scf accuracy    <       0.00463864 Ry

     iteration # 12     ecut=    50.00 Ry     beta= 0.30
     Davidson diagonalization with overlap
     ethr =  1.29E-05,  avg # of iterations =  4.0

     total cpu time spent up to now is       17.7 secs

     total energy              =    -361.56944939 Ry
     estimated scf accuracy    <       0.00023128 Ry

     iteration # 13     ecut=    50.00 Ry     beta= 0.30
     Davidson diagonalization with overlap
     ethr =  6.42E-07,  avg # of iterations =  7.9

     total cpu time spent up to now is       19.5 secs

     total energy              =    -361.57020354 Ry
     estimated scf accuracy    <       0.00076613 Ry

     iteration # 14     ecut=    50.00 Ry     beta= 0.30
     Davidson diagonalization with overlap
     ethr =  6.42E-07,  avg # of iterations =  1.3

     total cpu time spent up to now is       20.3 secs

     total energy              =    -361.56971828 Ry
     estimated scf accuracy    <       0.00077273 Ry

     iteration # 15     ecut=    50.00 Ry     beta= 0.30
     Davidson diagonalization with overlap
     ethr =  6.42E-07,  avg # of iterations =  7.1

     total cpu time spent up to now is       22.0 secs

     total energy              =    -361.56995170 Ry
     estimated scf accuracy    <       0.00016069 Ry

     iteration # 16     ecut=    50.00 Ry     beta= 0.30
     Davidson diagonalization with overlap
     ethr =  4.46E-07,  avg # of iterations =  2.0

     total cpu time spent up to now is       22.9 secs

     total energy              =    -361.56997253 Ry
     estimated scf accuracy    <       0.00002154 Ry

     iteration # 17     ecut=    50.00 Ry     beta= 0.30
     Davidson diagonalization with overlap
     ethr =  5.98E-08,  avg # of iterations =  5.2

     total cpu time spent up to now is       24.2 secs

     total energy              =    -361.56998566 Ry
     estimated scf accuracy    <       0.00000133 Ry

     iteration # 18     ecut=    50.00 Ry     beta= 0.30
     Davidson diagonalization with overlap
     ethr =  3.70E-09,  avg # of iterations =  4.7

     total cpu time spent up to now is       25.3 secs

     total energy              =    -361.56998586 Ry
     estimated scf accuracy    <       0.00000069 Ry

     iteration # 19     ecut=    50.00 Ry     beta= 0.30
     Davidson diagonalization with overlap
     ethr =  1.91E-09,  avg # of iterations =  6.5

     total cpu time spent up to now is       26.9 secs

     total energy              =    -361.56998624 Ry
     estimated scf accuracy    <       0.00000081 Ry

     iteration # 20     ecut=    50.00 Ry     beta= 0.30
     Davidson diagonalization with overlap
     ethr =  1.91E-09,  avg # of iterations =  1.1

     total cpu time spent up to now is       27.6 secs

     total energy              =    -361.56998602 Ry
     estimated scf accuracy    <       0.00000036 Ry

     iteration # 21     ecut=    50.00 Ry     beta= 0.30
     Davidson diagonalization with overlap
     ethr =  1.00E-09,  avg # of iterations =  6.2

     total cpu time spent up to now is       29.1 secs

     total energy              =    -361.56998615 Ry
     estimated scf accuracy    <       0.00000040 Ry

     iteration # 22     ecut=    50.00 Ry     beta= 0.30
     Davidson diagonalization with overlap
     ethr =  1.00E-09,  avg # of iterations =  2.3

     total cpu time spent up to now is       30.0 secs

     total energy              =    -361.56998619 Ry
     estimated scf accuracy    <       0.00000003 Ry

     iteration # 23     ecut=    50.00 Ry     beta= 0.30
     Davidson diagonalization with overlap
     ethr =  8.09E-11,  avg # of iterations =  9.1

     total cpu time spent up to now is       32.1 secs

     total energy              =    -361.56998618 Ry
     estimated scf accuracy    <       0.00000040 Ry

     iteration # 24     ecut=    50.00 Ry     beta= 0.30
     Davidson diagonalization with overlap
     ethr =  8.09E-11,  avg # of iterations =  8.4

     total cpu time spent up to now is       34.1 secs

     End of self-consistent calculation

          k = 0.0000 0.0000 0.0000 (  1677 PWs)   bands (ev):

    -9.6397  -8.5869   2.9478   3.2758   3.2758   3.3299   3.5433   3.5433
     4.9588   4.9588   5.2882   5.2882   5.6136   8.7872   8.7872   9.7949
     9.8639   9.8639

          k = 0.0000 0.0000 0.1064 (  1677 PWs)   bands (ev):

    -9.5736  -8.6619   2.8648   3.2388   3.2832   3.2832   3.5135   3.5135
     4.9908   4.9908   5.2784   5.2784   5.9462   8.8601   8.8601   9.2792
     9.7935   9.7935

          k = 0.0000 0.0000 0.2129 (  1659 PWs)   bands (ev):

    -9.3898  -8.8636   2.7753   3.0295   3.3111   3.3111   3.4425   3.4425
     5.0719   5.0719   5.2399   5.2399   6.7202   8.4831   9.0595   9.0595
     9.5995   9.5995

          k = 0.0000 0.0000-0.3193 (  1640 PWs)   bands (ev):

    -9.1312  -9.1312   2.8361   2.8361   3.3664   3.3664   3.3664   3.3664
     5.1664   5.1664   5.1664   5.1664   7.6197   7.6197   9.3309   9.3309
     9.3309   9.3309

          k = 0.0000 0.1925 0.0000 (  1653 PWs)   bands (ev):

    -9.4465  -8.5129   3.0071   3.2237   3.3738   3.4116   3.5613   3.6920
     4.8708   4.9580   5.3094   5.3308   5.6313   7.8232   8.3612   8.7652
     9.5610   9.6392

          k = 0.0000 0.1925 0.1064 (  1648 PWs)   bands (ev):

    -9.3863  -8.5774   2.9291   3.0566   3.3850   3.4138   3.5551   3.6585
     4.9212   4.9883   5.2936   5.3276   5.9826   7.9075   8.4506   8.5818
     9.4939   9.5570

          k = 0.0000 0.1925 0.2129 (  1643 PWs)   bands (ev):

    -9.2200  -8.7526   2.7615   2.8607   3.4073   3.4223   3.5047   3.5780
     5.0368   5.0664   5.2438   5.2718   6.7703   8.0451   8.2989   8.6917
     9.1716   9.3302

          k = 0.0000 0.1925-0.3193 (  1642 PWs)   bands (ev):

    -8.9886  -8.9886   2.7331   2.7331   3.4416   3.4416   3.4896   3.4896
     5.1618   5.1618   5.1671   5.1671   7.5473   7.5473   8.6652   8.6652
     9.0145   9.0145

          k = 0.0000 0.3849 0.0000 (  1636 PWs)   bands (ev):

    -9.0041  -8.3958   2.7458   3.1995   3.5315   3.6486   4.0334   4.0655
     4.8072   5.0695   5.2785   5.3410   5.8241   6.3372   7.4502   7.4739
     8.8939   9.1369

          k = 0.0000 0.3849 0.1064 (  1637 PWs)   bands (ev):

    -8.9613  -8.4337   2.6886   3.0142   3.5564   3.6320   3.9192   4.0145
     4.8837   5.0863   5.3183   5.3886   5.9963   6.5149   7.3741   7.6020
     8.9429   9.0349

          k = 0.0000 0.3849 0.2129 (  1631 PWs)   bands (ev):

    -8.8454  -8.5398   2.5754   2.7078   3.6263   3.6303   3.7733   3.8904
     5.0426   5.1323   5.2632   5.3487   6.3423   6.7938   7.5613   7.9327
     8.7521   8.8324

          k = 0.0000 0.3849-0.3193 (  1640 PWs)   bands (ev):

    -8.6902  -8.6902   2.5487   2.5487   3.6726   3.6726   3.7479   3.7479
     5.1957   5.1957   5.2113   5.2113   6.6226   6.6226   8.3019   8.3019
     8.3535   8.3535

          k = 0.0000-0.5774 0.0000 (  1634 PWs)   bands (ev):

    -8.7151  -8.3913   2.8368   2.9389   3.5825   3.8245   4.0929   4.3171
     4.9980   5.2144   5.3588   5.4401   5.8208   5.9916   6.6023   6.9547
     8.3810   8.8542

          k = 0.0000-0.5774 0.1064 (  1630 PWs)   bands (ev):

    -8.6888  -8.4078   2.7518   2.8083   3.6169   3.7977   4.0330   4.2457
     5.0927   5.2189   5.3328   5.4406   5.8258   5.9121   6.9601   7.1168
     8.4902   8.7428

          k = 0.0000-0.5774 0.2129 (  1634 PWs)   bands (ev):

    -8.6200  -8.4571   2.5790   2.5815   3.7184   3.7892   3.9211   4.0733
     5.2318   5.2464   5.2879   5.4219   5.8305   5.8474   7.5127   7.6762
     8.4332   8.5919

          k = 0.0000-0.5774-0.3193 (  1632 PWs)   bands (ev):

    -8.5337  -8.5337   2.4874   2.4874   3.8325   3.8325   3.8790   3.8790
     5.2540   5.2540   5.3601   5.3601   5.8311   5.8311   7.9917   7.9917
     8.3239   8.3239

          k = 0.1667 0.2887 0.0000 (  1631 PWs)   bands (ev):

    -9.1264  -8.4180   2.9019   3.1678   3.5367   3.5702   3.8380   3.9710
     4.7981   4.9818   5.3254   5.3301   5.7976   6.8950   7.2781   7.9212
     9.1060   9.1270

          k = 0.1667 0.2887 0.1064 (  1639 PWs)   bands (ev):

    -9.0781  -8.4638   2.8406   3.0226   3.5145   3.5266   3.7718   3.9271
     4.8650   5.0400   5.3104   5.3898   6.0704   7.0326   7.3455   7.8435
     8.9983   9.1413

          k = 0.1667 0.2887 0.2129 (  1641 PWs)   bands (ev):

    -8.9463  -8.5907   2.7073   2.7539   3.4948   3.5135   3.7117   3.8258
     5.0187   5.1108   5.2594   5.3360   6.6476   7.3084   7.5362   7.9204
     8.7088   8.9519

          k = 0.1667 0.2887-0.3193 (  1638 PWs)   bands (ev):

    -8.7673  -8.7673   2.6393   2.6393   3.5063   3.5063   3.7311   3.7311
     5.1680   5.1680   5.2122   5.2122   7.0410   7.0410   8.1995   8.1995
     8.4400   8.4400

          k = 0.1667 0.4811 0.0000 (  1637 PWs)   bands (ev):

    -8.7278  -8.3842   2.9524   3.2049   3.5294   3.7354   4.1797   4.3154
     4.9096   4.9900   5.3663   5.4388   5.7016   6.2419   6.4986   6.9357
     8.3064   8.5547

          k = 0.1667 0.4811 0.1064 (  1634 PWs)   bands (ev):

    -8.7004  -8.4022   2.8783   3.0674   3.5132   3.7051   4.0860   4.2158
     4.9339   5.1333   5.3544   5.5494   5.6707   6.3556   6.5649   7.1384
     8.2935   8.5559

          k = 0.1667 0.4811 0.2129 (  1637 PWs)   bands (ev):

    -8.6283  -8.4554   2.7234   2.7992   3.5363   3.6597   3.9838   4.0601
     5.0571   5.1810   5.3634   5.5282   5.8547   6.2766   6.9615   7.6782
     8.0403   8.6290

          k = 0.1667 0.4811-0.3193 (  1638 PWs)   bands (ev):

    -8.5371  -8.5371   2.6613   2.6613   3.6031   3.6031   3.9674   3.9674
     5.1515   5.1515   5.4269   5.4269   6.0886   6.0886   7.4572   7.4572
     8.3911   8.3911

          k = 0.3333 0.5774 0.0000 (  1632 PWs)   bands (ev):

    -8.4844  -8.4844   3.1499   3.5389   3.5389   3.8356   4.3695   4.3695
     4.8469   5.0129   5.0129   5.0741   5.6131   6.1652   6.1652   7.6226
     7.6226   7.8326

          k = 0.3333 0.5774 0.1064 (  1623 PWs)   bands (ev):

    -8.4787  -8.4787   3.1765   3.3727   3.3727   3.7492   4.2694   4.2694
     4.8706   5.0614   5.2334   5.2334   5.7761   6.1079   6.1079   7.6759
     7.8253   7.8253

          k = 0.3333 0.5774 0.2129 (  1629 PWs)   bands (ev):

    -8.4672  -8.4672   3.0816   3.0816   3.2571   3.5685   4.1894   4.1894
     4.9192   5.0256   5.5417   5.5417   5.9824   5.9824   6.1905   7.2647
     8.2230   8.2230

          k = 0.3333 0.5774-0.3193 (  1638 PWs)   bands (ev):

    -8.4615  -8.4615   2.9538   2.9538   3.3911   3.3911   4.1669   4.1669
     4.9746   4.9746   5.7193   5.7193   5.8674   5.8674   6.7265   6.7265
     8.4211   8.4211

     highest occupied level (ev):     9.8639

!    total energy              =    -361.56998624 Ry
     estimated scf accuracy    <          2.0E-09 Ry

     The total energy is the sum of the following terms:
     one-electron contribution =    -133.03307371 Ry
     hartree contribution      =     110.86247855 Ry
     xc contribution           =    -109.96919316 Ry
     ewald contribution        =    -229.43019792 Ry

     convergence has been achieved in  24 iterations

     Forces acting on atoms (cartesian axes, Ry/au):

     atom    1 type  1   force =     0.00000000    0.00000000   -0.02425332
     atom    2 type  1   force =     0.00000000    0.00000000   -0.02425332
     atom    3 type  2   force =     0.00000000    0.00000000    0.02425332
     atom    4 type  2   force =     0.00000000    0.00000000    0.02425332
     The non-local contrib.  to forces
     atom    1 type  1   force =     0.00000000    0.00000000   -0.10187386
     atom    2 type  1   force =     0.00000000   -0.00000000   -0.10187386
     atom    3 type  2   force =     0.00000000    0.00000000   -0.06342310
     atom    4 type  2   force =     0.00000000   -0.00000000   -0.06342310
     The ionic contribution  to forces
     atom    1 type  1   force =    -0.00000000    0.00000000   -0.63839410
     atom    2 type  1   force =     0.00000000   -0.00000000   -0.63839410
     atom    3 type  2   force =    -0.00000000    0.00000000    0.63839410
     atom    4 type  2   force =     0.00000000   -0.00000000    0.63839410
     The local contribution  to forces
     atom    1 type  1   force =    -0.00000002    0.00000001    0.70684420
     atom    2 type  1   force =     0.00000006   -0.00000003    0.70684420
     atom    3 type  2   force =    -0.00000001    0.00000000   -0.55106025
     atom    4 type  2   force =     0.00000002   -0.00000001   -0.55106025
     The core correction contribution to forces
     atom    1 type  1   force =    -0.00000000    0.00000000    0.00913638
     atom    2 type  1   force =     0.00000001   -0.00000000    0.00913638
     atom    3 type  2   force =     0.00000000   -0.00000000    0.00038869
     atom    4 type  2   force =    -0.00000000    0.00000000    0.00038869
     The Hubbard contrib.    to forces
     atom    1 type  1   force =     0.00000000    0.00000000    0.00000000
     atom    2 type  1   force =     0.00000000    0.00000000    0.00000000
     atom    3 type  2   force =     0.00000000    0.00000000    0.00000000
     atom    4 type  2   force =     0.00000000    0.00000000    0.00000000
     The SCF correction term to forces
     atom    1 type  1   force =     0.00000000   -0.00000000    0.00005472
     atom    2 type  1   force =    -0.00000000    0.00000000    0.00005472
     atom    3 type  2   force =     0.00000000   -0.00000000   -0.00002546
     atom    4 type  2   force =    -0.00000000    0.00000000   -0.00002546

     Total force =     0.048507     Total SCF correction =     0.000085


     Computing stress (Cartesian axis) and pressure

          total   stress  (Ry/bohr**3)                   (kbar)     P=      372.82
   0.00225244  -0.00000000  -0.00000000          331.35       -0.00       -0.00
  -0.00000000   0.00225244  -0.00000000           -0.00      331.35       -0.00
   0.00000000   0.00000000   0.00309833            0.00        0.00      455.78


     Writing all to output data dir ./ZnO_ANN.save/

     init_run     :      1.68s CPU      1.17s WALL (       1 calls)
     electrons    :     85.87s CPU     32.57s WALL (       1 calls)
     forces       :      0.61s CPU      0.30s WALL (       1 calls)
     stress       :      1.96s CPU      0.96s WALL (       1 calls)

     Called by init_run:
     wfcinit      :      0.89s CPU      0.37s WALL (       1 calls)
     potinit      :      0.22s CPU      0.22s WALL (       1 calls)
     hinit0       :      0.47s CPU      0.48s WALL (       1 calls)

     Called by electrons:
     c_bands      :     72.92s CPU     27.36s WALL (      24 calls)
     sum_band     :      9.63s CPU      3.87s WALL (      24 calls)
     v_of_rho     :      0.78s CPU      0.34s WALL (      25 calls)
     newd         :      2.35s CPU      0.96s WALL (      25 calls)
     mix_rho      :      0.14s CPU      0.06s WALL (      24 calls)

     Called by c_bands:
     init_us_2    :      0.80s CPU      0.29s WALL (    1428 calls)
     init_us_2:cp :      0.79s CPU      0.29s WALL (    1428 calls)
     cegterg      :     71.02s CPU     26.64s WALL (     672 calls)

     Called by *egterg:
     cdiaghg      :     12.04s CPU      4.03s WALL (    4085 calls)
     h_psi        :     48.95s CPU     19.96s WALL (    4113 calls)
     s_psi        :      1.03s CPU      0.32s WALL (    4113 calls)
     g_psi        :      0.33s CPU      0.09s WALL (    3413 calls)

     Called by h_psi:
     h_psi:calbec :      1.59s CPU      0.60s WALL (    4113 calls)
     vloc_psi     :     45.97s CPU     18.90s WALL (    4113 calls)
     add_vuspsi   :      1.00s CPU      0.34s WALL (    4113 calls)

     General routines
     calbec       :      1.99s CPU      0.74s WALL (    4925 calls)
     fft          :      0.69s CPU      0.43s WALL (     348 calls)
     ffts         :      0.14s CPU      0.11s WALL (      49 calls)
     fftw         :     45.78s CPU     18.87s WALL (  110316 calls)
     interpolate  :      0.16s CPU      0.12s WALL (      25 calls)

     Parallel routines

     PWSCF        :   1m30.67s CPU     35.45s WALL


   This run was terminated on:  16: 6:25  13Jun2025            

=------------------------------------------------------------------------------=
   JOB DONE.
=------------------------------------------------------------------------------=
Note: The following floating-point exceptions are signalling: IEEE_INVALID_FLAG
