Authorization required, but no authorization protocol specified

Authorization required, but no authorization protocol specified

Authorization required, but no authorization protocol specified

Authorization required, but no authorization protocol specified

Authorization required, but no authorization protocol specified

Authorization required, but no authorization protocol specified

Authorization required, but no authorization protocol specified

Authorization required, but no authorization protocol specified

Authorization required, but no authorization protocol specified

Authorization required, but no authorization protocol specified


     Program PWSCF v.7.2 starts on 13Jun2025 at 19:33:25 

     This program is part of the open-source Quantum ESPRESSO suite
     for quantum simulation of materials; please cite
         "P. Giannozzi et al., J. Phys.:Condens. Matter 21 395502 (2009);
         "P. Giannozzi et al., J. Phys.:Condens. Matter 29 465901 (2017);
         "P. Giannozzi et al., J. Chem. Phys. 152 154105 (2020);
          URL http://www.quantum-espresso.org", 
     in publications or presentations arising from this work. More details at
     http://www.quantum-espresso.org/quote

     Parallel version (MPI), running on     8 processors

     MPI processes distributed on     1 nodes
     120711 MiB available memory on the printing compute node when the environment starts

     Reading input from /home/jvc/QEspresso7.2/ZnO_database_python/SCFs.in/scf-6.67-1.74.in

     Current dimensions of program PWSCF are:
     Max number of different atomic species (ntypx) = 10
     Max number of k-points (npk) =  40000
     Max angular momentum in pseudopotentials (lmaxx) =  4
     file Zn.upf: wavefunction(s)  3D renormalized

     R & G space division:  proc/nbgrp/npool/nimage =       8
     Subspace diagonalization in iterative solution of the eigenvalue problem:
     a serial algorithm will be used


     Parallelization info
     --------------------
     sticks:   dense  smooth     PW     G-vecs:    dense   smooth      PW
     Min         154      75     23                 7574     2671     437
     Max         155      78     24                 7579     2679     442
     Sum        1237     613    187                60615    21389    3515

     Using Slab Decomposition



     bravais-lattice index     =            4
     lattice parameter (alat)  =       6.6731  a.u.
     unit-cell volume          =     448.6860 (a.u.)^3
     number of atoms/cell      =            4
     number of atomic types    =            2
     number of electrons       =        36.00
     number of Kohn-Sham states=           18
     kinetic-energy cutoff     =      50.0000  Ry
     charge density cutoff     =     400.0000  Ry
     scf convergence threshold =      1.0E-08
     mixing beta               =       0.3000
     number of iterations used =            8  plain     mixing
     Exchange-correlation= PBE
                           (   1   4   3   4   0   0   0)

     celldm(1)=   6.673127  celldm(2)=   0.000000  celldm(3)=   1.743507
     celldm(4)=   0.000000  celldm(5)=   0.000000  celldm(6)=   0.000000

     crystal axes: (cart. coord. in units of alat)
               a(1) = (   1.000000   0.000000   0.000000 )  
               a(2) = (  -0.500000   0.866025   0.000000 )  
               a(3) = (   0.000000   0.000000   1.743507 )  

     reciprocal axes: (cart. coord. in units 2 pi/alat)
               b(1) = (  1.000000  0.577350 -0.000000 )  
               b(2) = (  0.000000  1.154701  0.000000 )  
               b(3) = (  0.000000 -0.000000  0.573557 )  


     PseudoPot. # 1 for Zn read from file:
     /home/jvc/QEspresso7.2/ZnO_database/pseudos/Zn.upf
     MD5 check sum: 7f56cabf9682ed8c977c2f7d0c5985c5
     Pseudo is Ultrasoft + core correction, Zval = 12.0
     Generated using &quot;atomic&quot; code by A. Dal Corso  v.6.2.2
     Using radial grid of 1201 points,  6 beta functions with: 
                l(1) =   0
                l(2) =   0
                l(3) =   1
                l(4) =   1
                l(5) =   2
                l(6) =   2
     Q(r) pseudized with 0 coefficients 


     PseudoPot. # 2 for O  read from file:
     /home/jvc/QEspresso7.2/ZnO_database/pseudos/O.upf
     MD5 check sum: 91400c9766925bcf19f520983a725ff0
     Pseudo is Ultrasoft + core correction, Zval =  6.0
     Generated using &quot;atomic&quot; code by A. Dal Corso  v.6.3MaX
     Using radial grid of 1095 points,  4 beta functions with: 
                l(1) =   0
                l(2) =   0
                l(3) =   1
                l(4) =   1
     Q(r) pseudized with 0 coefficients 


     atomic species   valence    mass     pseudopotential
        Zn            12.00    63.38000     Zn( 1.00)
        O              6.00    15.99900     O ( 1.00)

     12 Sym. Ops. (no inversion) found ( 6 have fractional translation)



   Cartesian axes

     site n.     atom                  positions (alat units)
         1           Zn  tau(   1) = (   0.5000000   0.2886751   0.8728582  )
         2           Zn  tau(   2) = (  -0.0000000   0.5773503   0.0011047  )
         3           O   tau(   3) = (   0.5000000   0.2886751   1.5337220  )
         4           O   tau(   4) = (  -0.0000000   0.5773503   0.6619685  )

     number of k points=    28
                       cart. coord. in units 2pi/alat
        k(    1) = (   0.0000000   0.0000000   0.0000000), wk =   0.0092593
        k(    2) = (   0.0000000   0.0000000   0.0955928), wk =   0.0185185
        k(    3) = (   0.0000000   0.0000000   0.1911855), wk =   0.0185185
        k(    4) = (   0.0000000   0.0000000  -0.2867783), wk =   0.0092593
        k(    5) = (   0.0000000   0.1924501   0.0000000), wk =   0.0555556
        k(    6) = (   0.0000000   0.1924501   0.0955928), wk =   0.1111111
        k(    7) = (   0.0000000   0.1924501   0.1911855), wk =   0.1111111
        k(    8) = (   0.0000000   0.1924501  -0.2867783), wk =   0.0555556
        k(    9) = (   0.0000000   0.3849002   0.0000000), wk =   0.0555556
        k(   10) = (   0.0000000   0.3849002   0.0955928), wk =   0.1111111
        k(   11) = (   0.0000000   0.3849002   0.1911855), wk =   0.1111111
        k(   12) = (   0.0000000   0.3849002  -0.2867783), wk =   0.0555556
        k(   13) = (   0.0000000  -0.5773503   0.0000000), wk =   0.0277778
        k(   14) = (   0.0000000  -0.5773503   0.0955928), wk =   0.0555556
        k(   15) = (   0.0000000  -0.5773503   0.1911855), wk =   0.0555556
        k(   16) = (   0.0000000  -0.5773503  -0.2867783), wk =   0.0277778
        k(   17) = (   0.1666667   0.2886751   0.0000000), wk =   0.0555556
        k(   18) = (   0.1666667   0.2886751   0.0955928), wk =   0.1111111
        k(   19) = (   0.1666667   0.2886751   0.1911855), wk =   0.1111111
        k(   20) = (   0.1666667   0.2886751  -0.2867783), wk =   0.0555556
        k(   21) = (   0.1666667   0.4811252   0.0000000), wk =   0.1111111
        k(   22) = (   0.1666667   0.4811252   0.0955928), wk =   0.2222222
        k(   23) = (   0.1666667   0.4811252   0.1911855), wk =   0.2222222
        k(   24) = (   0.1666667   0.4811252  -0.2867783), wk =   0.1111111
        k(   25) = (   0.3333333   0.5773503   0.0000000), wk =   0.0185185
        k(   26) = (   0.3333333   0.5773503   0.0955928), wk =   0.0370370
        k(   27) = (   0.3333333   0.5773503   0.1911855), wk =   0.0370370
        k(   28) = (   0.3333333   0.5773503  -0.2867783), wk =   0.0185185

     Dense  grid:    60615 G-vectors     FFT dimensions: (  45,  45,  80)

     Smooth grid:    21389 G-vectors     FFT dimensions: (  32,  32,  54)

     Estimated max dynamical RAM per process >      34.12 MB

     Estimated total dynamical RAM >     272.93 MB

     Check: negative core charge=   -0.000003

     Initial potential from superposition of free atoms

     starting charge      35.9925, renormalised to      36.0000
     Starting wfcs are   26 randomized atomic wfcs

     total cpu time spent up to now is        1.7 secs

     Self-consistent Calculation

     iteration #  1     ecut=    50.00 Ry     beta= 0.30
     Davidson diagonalization with overlap
     ethr =  1.00E-02,  avg # of iterations =  1.2

     total cpu time spent up to now is        2.6 secs

     total energy              =    -361.31890365 Ry
     estimated scf accuracy    <       0.87432687 Ry

     iteration #  2     ecut=    50.00 Ry     beta= 0.30
     Davidson diagonalization with overlap
     ethr =  2.43E-03,  avg # of iterations =  2.2

     total cpu time spent up to now is        3.6 secs

     total energy              =    -361.44721969 Ry
     estimated scf accuracy    <       0.09853462 Ry

     iteration #  3     ecut=    50.00 Ry     beta= 0.30
     Davidson diagonalization with overlap
     ethr =  2.74E-04,  avg # of iterations =  6.2

     total cpu time spent up to now is        5.2 secs

     total energy              =    -361.43897354 Ry
     estimated scf accuracy    <       0.19269642 Ry

     iteration #  4     ecut=    50.00 Ry     beta= 0.30
     Davidson diagonalization with overlap
     ethr =  2.74E-04,  avg # of iterations =  9.6

     total cpu time spent up to now is        7.4 secs

     total energy              =    -361.59330938 Ry
     estimated scf accuracy    <       0.38732175 Ry

     iteration #  5     ecut=    50.00 Ry     beta= 0.30
     Davidson diagonalization with overlap
     ethr =  2.74E-04,  avg # of iterations =  1.1

     total cpu time spent up to now is        8.3 secs

     total energy              =    -361.43350285 Ry
     estimated scf accuracy    <       0.31711727 Ry

     iteration #  6     ecut=    50.00 Ry     beta= 0.30
     Davidson diagonalization with overlap
     ethr =  2.74E-04,  avg # of iterations =  7.2

     total cpu time spent up to now is        9.9 secs

     total energy              =    -361.53367451 Ry
     estimated scf accuracy    <       0.04858669 Ry

     iteration #  7     ecut=    50.00 Ry     beta= 0.30
     Davidson diagonalization with overlap
     ethr =  1.35E-04,  avg # of iterations =  1.2

     total cpu time spent up to now is       10.8 secs

     total energy              =    -361.53534968 Ry
     estimated scf accuracy    <       0.02826699 Ry

     iteration #  8     ecut=    50.00 Ry     beta= 0.30
     Davidson diagonalization with overlap
     ethr =  7.85E-05,  avg # of iterations =  1.0

     total cpu time spent up to now is       11.6 secs

     total energy              =    -361.53580299 Ry
     estimated scf accuracy    <       0.02880831 Ry

     iteration #  9     ecut=    50.00 Ry     beta= 0.30
     Davidson diagonalization with overlap
     ethr =  7.85E-05,  avg # of iterations =  1.0

     total cpu time spent up to now is       12.5 secs

     total energy              =    -361.53358541 Ry
     estimated scf accuracy    <       0.02700522 Ry

     iteration # 10     ecut=    50.00 Ry     beta= 0.30
     Davidson diagonalization with overlap
     ethr =  7.50E-05,  avg # of iterations =  1.1

     total cpu time spent up to now is       13.4 secs

     total energy              =    -361.53382344 Ry
     estimated scf accuracy    <       0.01687586 Ry

     iteration # 11     ecut=    50.00 Ry     beta= 0.30
     Davidson diagonalization with overlap
     ethr =  4.69E-05,  avg # of iterations =  1.0

     total cpu time spent up to now is       14.3 secs

     total energy              =    -361.53257721 Ry
     estimated scf accuracy    <       0.01555265 Ry

     iteration # 12     ecut=    50.00 Ry     beta= 0.30
     Davidson diagonalization with overlap
     ethr =  4.32E-05,  avg # of iterations =  1.5

     total cpu time spent up to now is       15.2 secs

     total energy              =    -361.54144249 Ry
     estimated scf accuracy    <       0.01224860 Ry

     iteration # 13     ecut=    50.00 Ry     beta= 0.30
     Davidson diagonalization with overlap
     ethr =  3.40E-05,  avg # of iterations =  2.2

     total cpu time spent up to now is       16.2 secs

     total energy              =    -361.53584108 Ry
     estimated scf accuracy    <       0.03034994 Ry

     iteration # 14     ecut=    50.00 Ry     beta= 0.30
     Davidson diagonalization with overlap
     ethr =  3.40E-05,  avg # of iterations =  1.0

     total cpu time spent up to now is       17.0 secs

     total energy              =    -361.52422584 Ry
     estimated scf accuracy    <       0.02089270 Ry

     iteration # 15     ecut=    50.00 Ry     beta= 0.30
     Davidson diagonalization with overlap
     ethr =  3.40E-05,  avg # of iterations =  6.0

     total cpu time spent up to now is       18.5 secs

     total energy              =    -361.53390261 Ry
     estimated scf accuracy    <       0.00991781 Ry

     iteration # 16     ecut=    50.00 Ry     beta= 0.30
     Davidson diagonalization with overlap
     ethr =  2.75E-05,  avg # of iterations =  1.0

     total cpu time spent up to now is       19.4 secs

     total energy              =    -361.53264708 Ry
     estimated scf accuracy    <       0.00871797 Ry

     iteration # 17     ecut=    50.00 Ry     beta= 0.30
     Davidson diagonalization with overlap
     ethr =  2.42E-05,  avg # of iterations =  1.0

     total cpu time spent up to now is       20.3 secs

     total energy              =    -361.53210709 Ry
     estimated scf accuracy    <       0.00624683 Ry

     iteration # 18     ecut=    50.00 Ry     beta= 0.30
     Davidson diagonalization with overlap
     ethr =  1.74E-05,  avg # of iterations =  1.4

     total cpu time spent up to now is       21.2 secs

     total energy              =    -361.53200340 Ry
     estimated scf accuracy    <       0.00349336 Ry

     iteration # 19     ecut=    50.00 Ry     beta= 0.30
     Davidson diagonalization with overlap
     ethr =  9.70E-06,  avg # of iterations =  1.1

     total cpu time spent up to now is       22.0 secs

     total energy              =    -361.53191293 Ry
     estimated scf accuracy    <       0.00260507 Ry

     iteration # 20     ecut=    50.00 Ry     beta= 0.30
     Davidson diagonalization with overlap
     ethr =  7.24E-06,  avg # of iterations =  1.9

     total cpu time spent up to now is       23.0 secs

     total energy              =    -361.53171960 Ry
     estimated scf accuracy    <       0.00167817 Ry

     iteration # 21     ecut=    50.00 Ry     beta= 0.30
     Davidson diagonalization with overlap
     ethr =  4.66E-06,  avg # of iterations =  3.9

     total cpu time spent up to now is       24.0 secs

     total energy              =    -361.53188788 Ry
     estimated scf accuracy    <       0.00041562 Ry

     iteration # 22     ecut=    50.00 Ry     beta= 0.30
     Davidson diagonalization with overlap
     ethr =  1.15E-06,  avg # of iterations =  5.2

     total cpu time spent up to now is       25.3 secs

     total energy              =    -361.53201294 Ry
     estimated scf accuracy    <       0.00003461 Ry

     iteration # 23     ecut=    50.00 Ry     beta= 0.30
     Davidson diagonalization with overlap
     c_bands:  1 eigenvalues not converged
     ethr =  9.61E-08,  avg # of iterations =  6.6

     total cpu time spent up to now is       26.7 secs

     total energy              =    -361.53220315 Ry
     estimated scf accuracy    <       0.00000776 Ry

     iteration # 24     ecut=    50.00 Ry     beta= 0.30
     Davidson diagonalization with overlap
     ethr =  2.16E-08,  avg # of iterations =  4.2

     total cpu time spent up to now is       27.8 secs

     total energy              =    -361.53221689 Ry
     estimated scf accuracy    <       0.00001561 Ry

     iteration # 25     ecut=    50.00 Ry     beta= 0.30
     Davidson diagonalization with overlap
     ethr =  2.16E-08,  avg # of iterations =  6.2

     total cpu time spent up to now is       29.3 secs

     total energy              =    -361.53223756 Ry
     estimated scf accuracy    <       0.00010741 Ry

     iteration # 26     ecut=    50.00 Ry     beta= 0.30
     Davidson diagonalization with overlap
     ethr =  2.16E-08,  avg # of iterations =  3.4

     total cpu time spent up to now is       30.4 secs

     total energy              =    -361.53228128 Ry
     estimated scf accuracy    <       0.00014062 Ry

     iteration # 27     ecut=    50.00 Ry     beta= 0.30
     Davidson diagonalization with overlap
     ethr =  2.16E-08,  avg # of iterations =  7.7

     total cpu time spent up to now is       32.1 secs

     total energy              =    -361.53229436 Ry
     estimated scf accuracy    <       0.00041986 Ry

     iteration # 28     ecut=    50.00 Ry     beta= 0.30
     Davidson diagonalization with overlap
     ethr =  2.16E-08,  avg # of iterations =  1.0

     total cpu time spent up to now is       33.0 secs

     total energy              =    -361.53217032 Ry
     estimated scf accuracy    <       0.00041478 Ry

     iteration # 29     ecut=    50.00 Ry     beta= 0.30
     Davidson diagonalization with overlap
     ethr =  2.16E-08,  avg # of iterations = 10.5

     total cpu time spent up to now is       35.3 secs

     total energy              =    -361.53221613 Ry
     estimated scf accuracy    <       0.00002956 Ry

     iteration # 30     ecut=    50.00 Ry     beta= 0.30
     Davidson diagonalization with overlap
     ethr =  2.16E-08,  avg # of iterations =  2.0

     total cpu time spent up to now is       36.2 secs

     total energy              =    -361.53221179 Ry
     estimated scf accuracy    <       0.00004525 Ry

     iteration # 31     ecut=    50.00 Ry     beta= 0.30
     Davidson diagonalization with overlap
     ethr =  2.16E-08,  avg # of iterations =  1.0

     total cpu time spent up to now is       37.1 secs

     total energy              =    -361.53220219 Ry
     estimated scf accuracy    <       0.00003876 Ry

     iteration # 32     ecut=    50.00 Ry     beta= 0.30
     Davidson diagonalization with overlap
     ethr =  2.16E-08,  avg # of iterations =  4.2

     total cpu time spent up to now is       38.2 secs

     total energy              =    -361.53219641 Ry
     estimated scf accuracy    <       0.00001675 Ry

     iteration # 33     ecut=    50.00 Ry     beta= 0.30
     Davidson diagonalization with overlap
     ethr =  2.16E-08,  avg # of iterations =  5.8

     total cpu time spent up to now is       39.7 secs

     total energy              =    -361.53220222 Ry
     estimated scf accuracy    <       0.00000278 Ry

     iteration # 34     ecut=    50.00 Ry     beta= 0.30
     Davidson diagonalization with overlap
     ethr =  7.72E-09,  avg # of iterations =  5.4

     total cpu time spent up to now is       40.9 secs

     total energy              =    -361.53220291 Ry
     estimated scf accuracy    <       0.00000004 Ry

     iteration # 35     ecut=    50.00 Ry     beta= 0.30
     Davidson diagonalization with overlap
     ethr =  1.22E-10,  avg # of iterations =  8.9

     total cpu time spent up to now is       42.8 secs

     total energy              =    -361.53220315 Ry
     estimated scf accuracy    <       0.00000054 Ry

     iteration # 36     ecut=    50.00 Ry     beta= 0.30
     Davidson diagonalization with overlap
     ethr =  1.22E-10,  avg # of iterations =  4.7

     total cpu time spent up to now is       44.0 secs

     total energy              =    -361.53220316 Ry
     estimated scf accuracy    <       0.00000077 Ry

     iteration # 37     ecut=    50.00 Ry     beta= 0.30
     Davidson diagonalization with overlap
     ethr =  1.22E-10,  avg # of iterations =  2.0

     total cpu time spent up to now is       44.9 secs

     total energy              =    -361.53220301 Ry
     estimated scf accuracy    <       0.00000082 Ry

     iteration # 38     ecut=    50.00 Ry     beta= 0.30
     Davidson diagonalization with overlap
     ethr =  1.22E-10,  avg # of iterations =  5.7

     total cpu time spent up to now is       46.3 secs

     total energy              =    -361.53220303 Ry
     estimated scf accuracy    <       0.00000035 Ry

     iteration # 39     ecut=    50.00 Ry     beta= 0.30
     Davidson diagonalization with overlap
     ethr =  1.22E-10,  avg # of iterations =  1.4

     total cpu time spent up to now is       47.2 secs

     total energy              =    -361.53220303 Ry
     estimated scf accuracy    <       0.00000034 Ry

     iteration # 40     ecut=    50.00 Ry     beta= 0.30
     Davidson diagonalization with overlap
     ethr =  1.22E-10,  avg # of iterations =  1.1

     total cpu time spent up to now is       48.0 secs

     total energy              =    -361.53220293 Ry
     estimated scf accuracy    <       0.00000033 Ry

     iteration # 41     ecut=    50.00 Ry     beta= 0.30
     Davidson diagonalization with overlap
     ethr =  1.22E-10,  avg # of iterations =  6.2

     total cpu time spent up to now is       49.6 secs

     total energy              =    -361.53220296 Ry
     estimated scf accuracy    <       0.00000002 Ry

     iteration # 42     ecut=    50.00 Ry     beta= 0.30
     Davidson diagonalization with overlap
     ethr =  5.67E-11,  avg # of iterations =  1.7

     total cpu time spent up to now is       50.5 secs

     total energy              =    -361.53220297 Ry
     estimated scf accuracy    <       0.00000002 Ry

     iteration # 43     ecut=    50.00 Ry     beta= 0.30
     Davidson diagonalization with overlap
     ethr =  4.97E-11,  avg # of iterations =  1.2

     total cpu time spent up to now is       51.4 secs

     total energy              =    -361.53220295 Ry
     estimated scf accuracy    <       0.00000003 Ry

     iteration # 44     ecut=    50.00 Ry     beta= 0.30
     Davidson diagonalization with overlap
     ethr =  4.97E-11,  avg # of iterations =  6.8

     total cpu time spent up to now is       52.9 secs

     End of self-consistent calculation

          k = 0.0000 0.0000 0.0000 (  2649 PWs)   bands (ev):

   -12.9183 -12.6513  -1.6812  -1.6812  -1.6473  -1.6071  -1.6071  -1.2249
    -1.2099  -1.2099  -1.1431  -1.1431  -0.1974   2.8402   2.8402   2.9819
     3.1930   3.1930

          k = 0.0000 0.0000 0.0956 (  2672 PWs)   bands (ev):

   -12.9009 -12.6697  -1.6775  -1.6775  -1.6473  -1.6134  -1.6134  -1.3238
    -1.2047  -1.2047  -1.1466  -1.1466   0.0117   2.4217   2.8640   2.8640
     3.1696   3.1696

          k = 0.0000 0.0000 0.1912 (  2678 PWs)   bands (ev):

   -12.8530 -12.7195  -1.6666  -1.6666  -1.6354  -1.6296  -1.6296  -1.4813
    -1.1905  -1.1905  -1.1568  -1.1568   0.4859   1.7308   2.9289   2.9289
     3.1053   3.1053

          k = 0.0000 0.0000-0.2868 (  2714 PWs)   bands (ev):

   -12.7867 -12.7867  -1.6497  -1.6497  -1.6497  -1.6497  -1.5881  -1.5881
    -1.1729  -1.1729  -1.1729  -1.1729   1.0775   1.0775   3.0172   3.0172
     3.0172   3.0172

          k = 0.0000 0.1925 0.0000 (  2683 PWs)   bands (ev):

   -12.8428 -12.6082  -1.6952  -1.6329  -1.6146  -1.5678  -1.5419  -1.2615
    -1.2356  -1.2098  -1.1399  -1.0753  -0.0034   1.9109   2.2073   2.6288
     2.9662   3.0599

          k = 0.0000 0.1925 0.0956 (  2691 PWs)   bands (ev):

   -12.8273 -12.6242  -1.6946  -1.6279  -1.6180  -1.5707  -1.5491  -1.3228
    -1.2261  -1.2047  -1.1440  -1.1068   0.1758   1.8053   2.2179   2.6578
     2.8875   3.0311

          k = 0.0000 0.1925 0.1912 (  2702 PWs)   bands (ev):

   -12.7850 -12.6677  -1.6874  -1.6331  -1.6135  -1.5680  -1.5668  -1.4465
    -1.2029  -1.1909  -1.1558  -1.1427   0.5786   1.4830   2.3199   2.7084
     2.7370   2.9524

          k = 0.0000 0.1925-0.2868 (  2706 PWs)   bands (ev):

   -12.7267 -12.7267  -1.6635  -1.6635  -1.5918  -1.5918  -1.5323  -1.5323
    -1.1733  -1.1733  -1.1728  -1.1728   1.0446   1.0446   2.5006   2.5006
     2.8448   2.8448

          k = 0.0000 0.3849 0.0000 (  2673 PWs)   bands (ev):

   -12.6794 -12.5290  -1.6706  -1.5649  -1.5588  -1.4028  -1.3955  -1.2863
    -1.2298  -1.1719  -1.1270  -1.0231   0.3506   0.7611   1.3559   2.2121
     2.6681   2.7824

          k = 0.0000 0.3849 0.0956 (  2678 PWs)   bands (ev):

   -12.6692 -12.5389  -1.6723  -1.5781  -1.5493  -1.4140  -1.3978  -1.3034
    -1.2257  -1.1694  -1.1306  -1.0496   0.3640   0.7712   1.4496   2.2506
     2.6391   2.7443

          k = 0.0000 0.3849 0.1912 (  2693 PWs)   bands (ev):

   -12.6415 -12.5663  -1.6698  -1.6114  -1.5226  -1.4444  -1.4004  -1.3547
    -1.1950  -1.1622  -1.1400  -1.0999   0.4316   0.6940   1.7671   2.3555
     2.4911   2.6402

          k = 0.0000 0.3849-0.2868 (  2690 PWs)   bands (ev):

   -12.6038 -12.6038  -1.6489  -1.6489  -1.4843  -1.4843  -1.3910  -1.3910
    -1.1515  -1.1515  -1.1498  -1.1498   0.5545   0.5545   2.1734   2.1734
     2.4980   2.4980

          k = 0.0000-0.5774 0.0000 (  2666 PWs)   bands (ev):

   -12.5826 -12.5016  -1.6522  -1.5374  -1.4793  -1.3456  -1.3362  -1.2259
    -1.1267  -1.1097  -1.0940  -1.0656   0.0094   0.4393   1.3795   2.0008
     2.3662   2.6387

          k = 0.0000-0.5774 0.0956 (  2666 PWs)   bands (ev):

   -12.5770 -12.5068  -1.6558  -1.5252  -1.5138  -1.3506  -1.3374  -1.2171
    -1.1262  -1.1120  -1.1016  -1.0667  -0.0052   0.3718   1.5309   2.0442
     2.3985   2.5962

          k = 0.0000-0.5774 0.1912 (  2668 PWs)   bands (ev):

   -12.5616 -12.5211  -1.6565  -1.5811  -1.4907  -1.3898  -1.3126  -1.2308
    -1.1245  -1.1168  -1.0999  -1.0717   0.0043   0.2248   1.8742   2.1620
     2.3941   2.4801

          k = 0.0000-0.5774-0.2868 (  2676 PWs)   bands (ev):

   -12.5411 -12.5411  -1.6346  -1.6346  -1.4417  -1.4417  -1.2731  -1.2731
    -1.1215  -1.1215  -1.0836  -1.0836   0.0852   0.0852   2.2132   2.2132
     2.3215   2.3215

          k = 0.1667 0.2887 0.0000 (  2675 PWs)   bands (ev):

   -12.7228 -12.5472  -1.6300  -1.6155  -1.5432  -1.5069  -1.4226  -1.2694
    -1.2597  -1.1932  -1.1316  -1.0279   0.3050   1.1701   1.4921   2.1799
     2.7207   2.7866

          k = 0.1667 0.2887 0.0956 (  2681 PWs)   bands (ev):

   -12.7111 -12.5590  -1.6320  -1.6111  -1.5456  -1.5127  -1.4303  -1.3153
    -1.2438  -1.1853  -1.1354  -1.0568   0.3931   1.1168   1.5951   2.2010
     2.6805   2.7429

          k = 0.1667 0.2887 0.1912 (  2689 PWs)   bands (ev):

   -12.6790 -12.5911  -1.6315  -1.6055  -1.5445  -1.5260  -1.4480  -1.4037
    -1.2054  -1.1730  -1.1449  -1.1068   0.5826   0.9754   1.8755   2.2735
     2.5734   2.5778

          k = 0.1667 0.2887-0.2868 (  2688 PWs)   bands (ev):

   -12.6351 -12.6351  -1.6170  -1.6170  -1.5366  -1.5366  -1.4528  -1.4528
    -1.1648  -1.1648  -1.1508  -1.1508   0.7870   0.7870   2.2233   2.2233
     2.4468   2.4468

          k = 0.1667 0.4811 0.0000 (  2670 PWs)   bands (ev):

   -12.5852 -12.5005  -1.6338  -1.5151  -1.4180  -1.3526  -1.3093  -1.2842
    -1.2140  -1.1635  -1.0874  -0.9978   0.2453   0.5392   1.3743   1.6589
     2.3190   2.4351

          k = 0.1667 0.4811 0.0956 (  2670 PWs)   bands (ev):

   -12.5793 -12.5059  -1.6259  -1.5185  -1.4466  -1.3622  -1.3128  -1.2948
    -1.2071  -1.1534  -1.0861  -1.0077   0.2233   0.4954   1.4763   1.7474
     2.2718   2.4578

          k = 0.1667 0.4811 0.1912 (  2669 PWs)   bands (ev):

   -12.5633 -12.5209  -1.6065  -1.5351  -1.4791  -1.3974  -1.3261  -1.3167
    -1.1765  -1.1442  -1.0792  -1.0328   0.2190   0.3878   1.6769   1.9857
     2.1445   2.4581

          k = 0.1667 0.4811-0.2868 (  2666 PWs)   bands (ev):

   -12.5418 -12.5418  -1.5768  -1.5768  -1.4495  -1.4495  -1.3282  -1.3282
    -1.1508  -1.1508  -1.0609  -1.0609   0.2792   0.2792   1.8935   1.8935
     2.3129   2.3129

          k = 0.3333 0.5774 0.0000 (  2664 PWs)   bands (ev):

   -12.5124 -12.5124  -1.6482  -1.3907  -1.3907  -1.3294  -1.2345  -1.2345
    -1.2109  -1.1909  -1.0087  -1.0087   0.4096   0.4096   0.8636   1.9341
     1.9962   1.9962

          k = 0.3333 0.5774 0.0956 (  2667 PWs)   bands (ev):

   -12.5120 -12.5120  -1.6312  -1.4111  -1.4111  -1.3563  -1.2327  -1.2327
    -1.2114  -1.1928  -1.0010  -1.0010   0.3669   0.3669   0.9365   1.8602
     2.0906   2.0906

          k = 0.3333 0.5774 0.1912 (  2664 PWs)   bands (ev):

   -12.5113 -12.5113  -1.5824  -1.4487  -1.4487  -1.4252  -1.2309  -1.2309
    -1.2091  -1.1976  -0.9867  -0.9867   0.2934   0.2934   1.1323   1.6618
     2.2703   2.2703

          k = 0.3333 0.5774-0.2868 (  2652 PWs)   bands (ev):

   -12.5110 -12.5110  -1.5089  -1.5089  -1.4663  -1.4663  -1.2304  -1.2304
    -1.2036  -1.2036  -0.9800  -0.9800   0.2612   0.2612   1.3962   1.3962
     2.3572   2.3572

     highest occupied level (ev):     3.1930

!    total energy              =    -361.53220296 Ry
     estimated scf accuracy    <          6.1E-09 Ry

     The total energy is the sum of the following terms:
     one-electron contribution =    -188.80680888 Ry
     hartree contribution      =     130.89481708 Ry
     xc contribution           =    -109.01842462 Ry
     ewald contribution        =    -194.60178655 Ry

     convergence has been achieved in  44 iterations

     Forces acting on atoms (cartesian axes, Ry/au):

     atom    1 type  1   force =     0.00000000   -0.00000000   -0.01153456
     atom    2 type  1   force =     0.00000000    0.00000000   -0.01153456
     atom    3 type  2   force =     0.00000000   -0.00000000    0.01153456
     atom    4 type  2   force =     0.00000000    0.00000000    0.01153456
     The non-local contrib.  to forces
     atom    1 type  1   force =     0.00000000   -0.00000000    0.17467587
     atom    2 type  1   force =     0.00000000    0.00000000    0.17467587
     atom    3 type  2   force =    -0.00000000   -0.00000000    0.21112985
     atom    4 type  2   force =     0.00000000    0.00000000    0.21112985
     The ionic contribution  to forces
     atom    1 type  1   force =    -0.00000000    0.00000000    1.34868324
     atom    2 type  1   force =     0.00000000   -0.00000000    1.34868324
     atom    3 type  2   force =    -0.00000000    0.00000000   -1.34868324
     atom    4 type  2   force =     0.00000000   -0.00000000   -1.34868324
     The local contribution  to forces
     atom    1 type  1   force =    -0.00000002    0.00000001   -1.52517159
     atom    2 type  1   force =     0.00000007   -0.00000004   -1.52517159
     atom    3 type  2   force =    -0.00000001    0.00000000    1.15109797
     atom    4 type  2   force =     0.00000002   -0.00000001    1.15109797
     The core correction contribution to forces
     atom    1 type  1   force =    -0.00000000    0.00000000   -0.00971370
     atom    2 type  1   force =     0.00000001   -0.00000001   -0.00971370
     atom    3 type  2   force =     0.00000000   -0.00000000   -0.00198713
     atom    4 type  2   force =    -0.00000000    0.00000000   -0.00198713
     The Hubbard contrib.    to forces
     atom    1 type  1   force =     0.00000000    0.00000000    0.00000000
     atom    2 type  1   force =     0.00000000    0.00000000    0.00000000
     atom    3 type  2   force =     0.00000000    0.00000000    0.00000000
     atom    4 type  2   force =     0.00000000    0.00000000    0.00000000
     The SCF correction term to forces
     atom    1 type  1   force =     0.00000000   -0.00000000   -0.00001143
     atom    2 type  1   force =    -0.00000000    0.00000000   -0.00001143
     atom    3 type  2   force =     0.00000000   -0.00000000   -0.00002593
     atom    4 type  2   force =    -0.00000000    0.00000000   -0.00002593

     Total force =     0.023069     Total SCF correction =     0.000040


     Computing stress (Cartesian axis) and pressure

          total   stress  (Ry/bohr**3)                   (kbar)     P=     -202.82
  -0.00130132   0.00000000   0.00000000         -191.43        0.00        0.00
   0.00000000  -0.00130132   0.00000000            0.00     -191.43        0.00
   0.00000000   0.00000000  -0.00153355            0.00        0.00     -225.59


     Writing all to output data dir ./ZnO_ANN.save/

     init_run     :      1.99s CPU      1.35s WALL (       1 calls)
     electrons    :    138.08s CPU     51.20s WALL (       1 calls)
     forces       :      0.86s CPU      0.46s WALL (       1 calls)
     stress       :      3.02s CPU      1.53s WALL (       1 calls)

     Called by init_run:
     wfcinit      :      1.05s CPU      0.41s WALL (       1 calls)
     potinit      :      0.30s CPU      0.30s WALL (       1 calls)
     hinit0       :      0.44s CPU      0.45s WALL (       1 calls)

     Called by electrons:
     c_bands      :    104.38s CPU     38.08s WALL (      44 calls)
     sum_band     :     24.06s CPU      9.19s WALL (      44 calls)
     v_of_rho     :      2.14s CPU      0.96s WALL (      45 calls)
     newd         :      6.90s CPU      2.74s WALL (      45 calls)
     mix_rho      :      0.46s CPU      0.21s WALL (      44 calls)

     Called by c_bands:
     init_us_2    :      2.51s CPU      0.90s WALL (    2548 calls)
     init_us_2:cp :      2.47s CPU      0.88s WALL (    2548 calls)
     cegterg      :     98.96s CPU     35.94s WALL (    1232 calls)

     Called by *egterg:
     cdiaghg      :     16.01s CPU      5.20s WALL (    5625 calls)
     h_psi        :     65.80s CPU     26.69s WALL (    5653 calls)
     s_psi        :      1.78s CPU      0.49s WALL (    5653 calls)
     g_psi        :      0.60s CPU      0.15s WALL (    4393 calls)

     Called by h_psi:
     h_psi:calbec :      2.58s CPU      0.91s WALL (    5653 calls)
     vloc_psi     :     60.67s CPU     24.98s WALL (    5653 calls)
     add_vuspsi   :      1.86s CPU      0.58s WALL (    5653 calls)

     General routines
     calbec       :      3.49s CPU      1.20s WALL (    7025 calls)
     fft          :      1.42s CPU      0.73s WALL (     608 calls)
     ffts         :      0.20s CPU      0.15s WALL (      89 calls)
     fftw         :     60.39s CPU     24.96s WALL (  144790 calls)
     interpolate  :      0.27s CPU      0.18s WALL (      45 calls)

     Parallel routines

     PWSCF        :   2m24.50s CPU     55.04s WALL


   This run was terminated on:  19:34:20  13Jun2025            

=------------------------------------------------------------------------------=
   JOB DONE.
=------------------------------------------------------------------------------=
Note: The following floating-point exceptions are signalling: IEEE_INVALID_FLAG
