Authorization required, but no authorization protocol specified

Authorization required, but no authorization protocol specified

Authorization required, but no authorization protocol specified

Authorization required, but no authorization protocol specified

Authorization required, but no authorization protocol specified

Authorization required, but no authorization protocol specified

Authorization required, but no authorization protocol specified

Authorization required, but no authorization protocol specified

Authorization required, but no authorization protocol specified

Authorization required, but no authorization protocol specified


     Program PWSCF v.7.2 starts on 13Jun2025 at 18: 4:36 

     This program is part of the open-source Quantum ESPRESSO suite
     for quantum simulation of materials; please cite
         "P. Giannozzi et al., J. Phys.:Condens. Matter 21 395502 (2009);
         "P. Giannozzi et al., J. Phys.:Condens. Matter 29 465901 (2017);
         "P. Giannozzi et al., J. Chem. Phys. 152 154105 (2020);
          URL http://www.quantum-espresso.org", 
     in publications or presentations arising from this work. More details at
     http://www.quantum-espresso.org/quote

     Parallel version (MPI), running on     8 processors

     MPI processes distributed on     1 nodes
     120706 MiB available memory on the printing compute node when the environment starts

     Reading input from /home/jvc/QEspresso7.2/ZnO_database_python/SCFs.in/scf-6.36-1.68.in

     Current dimensions of program PWSCF are:
     Max number of different atomic species (ntypx) = 10
     Max number of k-points (npk) =  40000
     Max angular momentum in pseudopotentials (lmaxx) =  4
     file Zn.upf: wavefunction(s)  3D renormalized

     R & G space division:  proc/nbgrp/npool/nimage =       8
     Subspace diagonalization in iterative solution of the eigenvalue problem:
     a serial algorithm will be used


     Parallelization info
     --------------------
     sticks:   dense  smooth     PW     G-vecs:    dense   smooth      PW
     Min         140      69     20                 6332     2235     372
     Max         141      70     21                 6335     2242     379
     Sum        1123     559    163                50667    17923    2997

     Using Slab Decomposition



     bravais-lattice index     =            4
     lattice parameter (alat)  =       6.3642  a.u.
     unit-cell volume          =     374.7939 (a.u.)^3
     number of atoms/cell      =            4
     number of atomic types    =            2
     number of electrons       =        36.00
     number of Kohn-Sham states=           18
     kinetic-energy cutoff     =      50.0000  Ry
     charge density cutoff     =     400.0000  Ry
     scf convergence threshold =      1.0E-08
     mixing beta               =       0.3000
     number of iterations used =            8  plain     mixing
     Exchange-correlation= PBE
                           (   1   4   3   4   0   0   0)

     celldm(1)=   6.364186  celldm(2)=   0.000000  celldm(3)=   1.678933
     celldm(4)=   0.000000  celldm(5)=   0.000000  celldm(6)=   0.000000

     crystal axes: (cart. coord. in units of alat)
               a(1) = (   1.000000   0.000000   0.000000 )  
               a(2) = (  -0.500000   0.866025   0.000000 )  
               a(3) = (   0.000000   0.000000   1.678933 )  

     reciprocal axes: (cart. coord. in units 2 pi/alat)
               b(1) = (  1.000000  0.577350 -0.000000 )  
               b(2) = (  0.000000  1.154701  0.000000 )  
               b(3) = (  0.000000 -0.000000  0.595616 )  


     PseudoPot. # 1 for Zn read from file:
     /home/jvc/QEspresso7.2/ZnO_database/pseudos/Zn.upf
     MD5 check sum: 7f56cabf9682ed8c977c2f7d0c5985c5
     Pseudo is Ultrasoft + core correction, Zval = 12.0
     Generated using &quot;atomic&quot; code by A. Dal Corso  v.6.2.2
     Using radial grid of 1201 points,  6 beta functions with: 
                l(1) =   0
                l(2) =   0
                l(3) =   1
                l(4) =   1
                l(5) =   2
                l(6) =   2
     Q(r) pseudized with 0 coefficients 


     PseudoPot. # 2 for O  read from file:
     /home/jvc/QEspresso7.2/ZnO_database/pseudos/O.upf
     MD5 check sum: 91400c9766925bcf19f520983a725ff0
     Pseudo is Ultrasoft + core correction, Zval =  6.0
     Generated using &quot;atomic&quot; code by A. Dal Corso  v.6.3MaX
     Using radial grid of 1095 points,  4 beta functions with: 
                l(1) =   0
                l(2) =   0
                l(3) =   1
                l(4) =   1
     Q(r) pseudized with 0 coefficients 


     atomic species   valence    mass     pseudopotential
        Zn            12.00    63.38000     Zn( 1.00)
        O              6.00    15.99900     O ( 1.00)

     12 Sym. Ops. (no inversion) found ( 6 have fractional translation)



   Cartesian axes

     site n.     atom                  positions (alat units)
         1           Zn  tau(   1) = (   0.5000000   0.2886751   0.8405301  )
         2           Zn  tau(   2) = (  -0.0000000   0.5773503   0.0010637  )
         3           O   tau(   3) = (   0.5000000   0.2886751   1.4769175  )
         4           O   tau(   4) = (  -0.0000000   0.5773503   0.6374511  )

     number of k points=    28
                       cart. coord. in units 2pi/alat
        k(    1) = (   0.0000000   0.0000000   0.0000000), wk =   0.0092593
        k(    2) = (   0.0000000   0.0000000   0.0992694), wk =   0.0185185
        k(    3) = (   0.0000000   0.0000000   0.1985388), wk =   0.0185185
        k(    4) = (   0.0000000   0.0000000  -0.2978082), wk =   0.0092593
        k(    5) = (   0.0000000   0.1924501   0.0000000), wk =   0.0555556
        k(    6) = (   0.0000000   0.1924501   0.0992694), wk =   0.1111111
        k(    7) = (   0.0000000   0.1924501   0.1985388), wk =   0.1111111
        k(    8) = (   0.0000000   0.1924501  -0.2978082), wk =   0.0555556
        k(    9) = (   0.0000000   0.3849002   0.0000000), wk =   0.0555556
        k(   10) = (   0.0000000   0.3849002   0.0992694), wk =   0.1111111
        k(   11) = (   0.0000000   0.3849002   0.1985388), wk =   0.1111111
        k(   12) = (   0.0000000   0.3849002  -0.2978082), wk =   0.0555556
        k(   13) = (   0.0000000  -0.5773503   0.0000000), wk =   0.0277778
        k(   14) = (   0.0000000  -0.5773503   0.0992694), wk =   0.0555556
        k(   15) = (   0.0000000  -0.5773503   0.1985388), wk =   0.0555556
        k(   16) = (   0.0000000  -0.5773503  -0.2978082), wk =   0.0277778
        k(   17) = (   0.1666667   0.2886751   0.0000000), wk =   0.0555556
        k(   18) = (   0.1666667   0.2886751   0.0992694), wk =   0.1111111
        k(   19) = (   0.1666667   0.2886751   0.1985388), wk =   0.1111111
        k(   20) = (   0.1666667   0.2886751  -0.2978082), wk =   0.0555556
        k(   21) = (   0.1666667   0.4811252   0.0000000), wk =   0.1111111
        k(   22) = (   0.1666667   0.4811252   0.0992694), wk =   0.2222222
        k(   23) = (   0.1666667   0.4811252   0.1985388), wk =   0.2222222
        k(   24) = (   0.1666667   0.4811252  -0.2978082), wk =   0.1111111
        k(   25) = (   0.3333333   0.5773503   0.0000000), wk =   0.0185185
        k(   26) = (   0.3333333   0.5773503   0.0992694), wk =   0.0370370
        k(   27) = (   0.3333333   0.5773503   0.1985388), wk =   0.0370370
        k(   28) = (   0.3333333   0.5773503  -0.2978082), wk =   0.0185185

     Dense  grid:    50667 G-vectors     FFT dimensions: (  45,  45,  72)

     Smooth grid:    17923 G-vectors     FFT dimensions: (  30,  30,  50)

     Estimated max dynamical RAM per process >      29.13 MB

     Estimated total dynamical RAM >     233.02 MB

     Check: negative core charge=   -0.000002

     Initial potential from superposition of free atoms

     starting charge      35.9925, renormalised to      36.0000
     Starting wfcs are   26 randomized atomic wfcs

     total cpu time spent up to now is        1.6 secs

     Self-consistent Calculation

     iteration #  1     ecut=    50.00 Ry     beta= 0.30
     Davidson diagonalization with overlap
     ethr =  1.00E-02,  avg # of iterations =  1.5

     total cpu time spent up to now is        2.5 secs

     total energy              =    -361.44075467 Ry
     estimated scf accuracy    <       0.74901686 Ry

     iteration #  2     ecut=    50.00 Ry     beta= 0.30
     Davidson diagonalization with overlap
     ethr =  2.08E-03,  avg # of iterations =  2.1

     total cpu time spent up to now is        3.6 secs

     total energy              =    -361.55632852 Ry
     estimated scf accuracy    <       0.08463900 Ry

     iteration #  3     ecut=    50.00 Ry     beta= 0.30
     Davidson diagonalization with overlap
     ethr =  2.35E-04,  avg # of iterations =  6.4

     total cpu time spent up to now is        5.4 secs

     total energy              =    -361.57576405 Ry
     estimated scf accuracy    <       0.08305463 Ry

     iteration #  4     ecut=    50.00 Ry     beta= 0.30
     Davidson diagonalization with overlap
     ethr =  2.31E-04,  avg # of iterations =  9.1

     total cpu time spent up to now is        7.7 secs

     total energy              =    -361.64261962 Ry
     estimated scf accuracy    <       0.42419732 Ry

     iteration #  5     ecut=    50.00 Ry     beta= 0.30
     Davidson diagonalization with overlap
     ethr =  2.31E-04,  avg # of iterations =  2.0

     total cpu time spent up to now is        8.7 secs

     total energy              =    -361.64782076 Ry
     estimated scf accuracy    <       0.26628097 Ry

     iteration #  6     ecut=    50.00 Ry     beta= 0.30
     Davidson diagonalization with overlap
     ethr =  2.31E-04,  avg # of iterations =  1.6

     total cpu time spent up to now is        9.6 secs

     total energy              =    -361.50865004 Ry
     estimated scf accuracy    <       0.22846676 Ry

     iteration #  7     ecut=    50.00 Ry     beta= 0.30
     Davidson diagonalization with overlap
     ethr =  2.31E-04,  avg # of iterations =  6.9

     total cpu time spent up to now is       11.4 secs

     total energy              =    -361.62410067 Ry
     estimated scf accuracy    <       0.15478510 Ry

     iteration #  8     ecut=    50.00 Ry     beta= 0.30
     Davidson diagonalization with overlap
     ethr =  2.31E-04,  avg # of iterations =  1.1

     total cpu time spent up to now is       12.2 secs

     total energy              =    -361.62486605 Ry
     estimated scf accuracy    <       0.08913828 Ry

     iteration #  9     ecut=    50.00 Ry     beta= 0.30
     Davidson diagonalization with overlap
     ethr =  2.31E-04,  avg # of iterations =  1.0

     total cpu time spent up to now is       13.2 secs

     total energy              =    -361.62642156 Ry
     estimated scf accuracy    <       0.07962188 Ry

     iteration # 10     ecut=    50.00 Ry     beta= 0.30
     Davidson diagonalization with overlap
     ethr =  2.21E-04,  avg # of iterations =  1.0

     total cpu time spent up to now is       14.0 secs

     total energy              =    -361.62326822 Ry
     estimated scf accuracy    <       0.07271187 Ry

     iteration # 11     ecut=    50.00 Ry     beta= 0.30
     Davidson diagonalization with overlap
     ethr =  2.02E-04,  avg # of iterations =  1.0

     total cpu time spent up to now is       14.9 secs

     total energy              =    -361.60302222 Ry
     estimated scf accuracy    <       0.05400269 Ry

     iteration # 12     ecut=    50.00 Ry     beta= 0.30
     Davidson diagonalization with overlap
     ethr =  1.50E-04,  avg # of iterations =  3.0

     total cpu time spent up to now is       16.0 secs

     total energy              =    -361.60685530 Ry
     estimated scf accuracy    <       0.01176119 Ry

     iteration # 13     ecut=    50.00 Ry     beta= 0.30
     Davidson diagonalization with overlap
     ethr =  3.27E-05,  avg # of iterations =  6.0

     total cpu time spent up to now is       17.6 secs

     total energy              =    -361.61734464 Ry
     estimated scf accuracy    <       0.00271348 Ry

     iteration # 14     ecut=    50.00 Ry     beta= 0.30
     Davidson diagonalization with overlap
     ethr =  7.54E-06,  avg # of iterations =  2.1

     total cpu time spent up to now is       18.6 secs

     total energy              =    -361.61568435 Ry
     estimated scf accuracy    <       0.00237951 Ry

     iteration # 15     ecut=    50.00 Ry     beta= 0.30
     Davidson diagonalization with overlap
     ethr =  6.61E-06,  avg # of iterations =  6.1

     total cpu time spent up to now is       20.3 secs

     total energy              =    -361.61732048 Ry
     estimated scf accuracy    <       0.00335990 Ry

     iteration # 16     ecut=    50.00 Ry     beta= 0.30
     Davidson diagonalization with overlap
     ethr =  6.61E-06,  avg # of iterations =  1.0

     total cpu time spent up to now is       21.2 secs

     total energy              =    -361.61685492 Ry
     estimated scf accuracy    <       0.00240531 Ry

     iteration # 17     ecut=    50.00 Ry     beta= 0.30
     Davidson diagonalization with overlap
     ethr =  6.61E-06,  avg # of iterations =  1.1

     total cpu time spent up to now is       22.1 secs

     total energy              =    -361.61644009 Ry
     estimated scf accuracy    <       0.00117620 Ry

     iteration # 18     ecut=    50.00 Ry     beta= 0.30
     Davidson diagonalization with overlap
     ethr =  3.27E-06,  avg # of iterations =  4.2

     total cpu time spent up to now is       23.4 secs

     total energy              =    -361.61686454 Ry
     estimated scf accuracy    <       0.00010606 Ry

     iteration # 19     ecut=    50.00 Ry     beta= 0.30
     Davidson diagonalization with overlap
     ethr =  2.95E-07,  avg # of iterations =  4.4

     total cpu time spent up to now is       24.8 secs

     total energy              =    -361.61713375 Ry
     estimated scf accuracy    <       0.00003962 Ry

     iteration # 20     ecut=    50.00 Ry     beta= 0.30
     Davidson diagonalization with overlap
     ethr =  1.10E-07,  avg # of iterations = 11.8

     total cpu time spent up to now is       27.7 secs

     total energy              =    -361.61774400 Ry
     estimated scf accuracy    <       0.00281587 Ry

     iteration # 21     ecut=    50.00 Ry     beta= 0.30
     Davidson diagonalization with overlap
     ethr =  1.10E-07,  avg # of iterations =  3.1

     total cpu time spent up to now is       28.8 secs

     total energy              =    -361.61748297 Ry
     estimated scf accuracy    <       0.00320991 Ry

     iteration # 22     ecut=    50.00 Ry     beta= 0.30
     Davidson diagonalization with overlap
     ethr =  1.10E-07,  avg # of iterations =  2.7

     total cpu time spent up to now is       29.8 secs

     total energy              =    -361.61651171 Ry
     estimated scf accuracy    <       0.00273706 Ry

     iteration # 23     ecut=    50.00 Ry     beta= 0.30
     Davidson diagonalization with overlap
     ethr =  1.10E-07,  avg # of iterations = 11.9

     total cpu time spent up to now is       32.7 secs

     total energy              =    -361.61705257 Ry
     estimated scf accuracy    <       0.00007237 Ry

     iteration # 24     ecut=    50.00 Ry     beta= 0.30
     Davidson diagonalization with overlap
     ethr =  1.10E-07,  avg # of iterations = 10.2

     total cpu time spent up to now is       35.2 secs

     total energy              =    -361.61655222 Ry
     estimated scf accuracy    <       0.00132285 Ry

     iteration # 25     ecut=    50.00 Ry     beta= 0.30
     Davidson diagonalization with overlap
     ethr =  1.10E-07,  avg # of iterations = 12.0

     total cpu time spent up to now is       38.1 secs

     total energy              =    -361.61860913 Ry
     estimated scf accuracy    <       0.00020057 Ry

     iteration # 26     ecut=    50.00 Ry     beta= 0.30
     Davidson diagonalization with overlap
     c_bands:  1 eigenvalues not converged
     c_bands:  1 eigenvalues not converged
     c_bands:  2 eigenvalues not converged
     c_bands:  1 eigenvalues not converged
     c_bands:  1 eigenvalues not converged
     ethr =  1.10E-07,  avg # of iterations = 16.1

     total cpu time spent up to now is       42.2 secs

     total energy              =    -361.62423331 Ry
     estimated scf accuracy    <       0.03884302 Ry

     iteration # 27     ecut=    50.00 Ry     beta= 0.30
     Davidson diagonalization with overlap
     ethr =  1.10E-07,  avg # of iterations =  7.4

     total cpu time spent up to now is       44.1 secs

     total energy              =    -361.61963457 Ry
     estimated scf accuracy    <       0.03171649 Ry

     iteration # 28     ecut=    50.00 Ry     beta= 0.30
     Davidson diagonalization with overlap
     c_bands:  1 eigenvalues not converged
     ethr =  1.10E-07,  avg # of iterations = 11.9

     total cpu time spent up to now is       47.1 secs

     total energy              =    -361.61993642 Ry
     estimated scf accuracy    <       0.01427560 Ry

     iteration # 29     ecut=    50.00 Ry     beta= 0.30
     Davidson diagonalization with overlap
     ethr =  1.10E-07,  avg # of iterations =  3.3

     total cpu time spent up to now is       48.2 secs

     total energy              =    -361.61548139 Ry
     estimated scf accuracy    <       0.01358375 Ry

     iteration # 30     ecut=    50.00 Ry     beta= 0.30
     Davidson diagonalization with overlap
     ethr =  1.10E-07,  avg # of iterations = 13.8

     total cpu time spent up to now is       51.6 secs

     total energy              =    -361.61685123 Ry
     estimated scf accuracy    <       0.00053448 Ry

     iteration # 31     ecut=    50.00 Ry     beta= 0.30
     Davidson diagonalization with overlap
     ethr =  1.10E-07,  avg # of iterations =  7.2

     total cpu time spent up to now is       53.5 secs

     total energy              =    -361.61686554 Ry
     estimated scf accuracy    <       0.00004910 Ry

     iteration # 32     ecut=    50.00 Ry     beta= 0.30
     Davidson diagonalization with overlap
     ethr =  1.10E-07,  avg # of iterations =  7.0

     total cpu time spent up to now is       55.3 secs

     total energy              =    -361.61688260 Ry
     estimated scf accuracy    <       0.00007958 Ry

     iteration # 33     ecut=    50.00 Ry     beta= 0.30
     Davidson diagonalization with overlap
     ethr =  1.10E-07,  avg # of iterations =  2.0

     total cpu time spent up to now is       56.4 secs

     total energy              =    -361.61687251 Ry
     estimated scf accuracy    <       0.00002328 Ry

     iteration # 34     ecut=    50.00 Ry     beta= 0.30
     Davidson diagonalization with overlap
     ethr =  6.47E-08,  avg # of iterations =  7.2

     total cpu time spent up to now is       58.3 secs

     total energy              =    -361.61689055 Ry
     estimated scf accuracy    <       0.00004666 Ry

     iteration # 35     ecut=    50.00 Ry     beta= 0.30
     Davidson diagonalization with overlap
     ethr =  6.47E-08,  avg # of iterations =  2.0

     total cpu time spent up to now is       59.2 secs

     total energy              =    -361.61688995 Ry
     estimated scf accuracy    <       0.00001985 Ry

     iteration # 36     ecut=    50.00 Ry     beta= 0.30
     Davidson diagonalization with overlap
     ethr =  5.51E-08,  avg # of iterations =  2.0

     total cpu time spent up to now is       60.2 secs

     total energy              =    -361.61688853 Ry
     estimated scf accuracy    <       0.00000828 Ry

     iteration # 37     ecut=    50.00 Ry     beta= 0.30
     Davidson diagonalization with overlap
     ethr =  2.30E-08,  avg # of iterations =  5.5

     total cpu time spent up to now is       61.7 secs

     total energy              =    -361.61689305 Ry
     estimated scf accuracy    <       0.00000142 Ry

     iteration # 38     ecut=    50.00 Ry     beta= 0.30
     Davidson diagonalization with overlap
     ethr =  3.94E-09,  avg # of iterations =  2.5

     total cpu time spent up to now is       62.7 secs

     total energy              =    -361.61689258 Ry
     estimated scf accuracy    <       0.00000119 Ry

     iteration # 39     ecut=    50.00 Ry     beta= 0.30
     Davidson diagonalization with overlap
     ethr =  3.32E-09,  avg # of iterations =  4.0

     total cpu time spent up to now is       63.9 secs

     total energy              =    -361.61689283 Ry
     estimated scf accuracy    <       0.00000003 Ry

     iteration # 40     ecut=    50.00 Ry     beta= 0.30
     Davidson diagonalization with overlap
     ethr =  7.83E-11,  avg # of iterations =  8.6

     total cpu time spent up to now is       66.0 secs

     total energy              =    -361.61689291 Ry
     estimated scf accuracy    <       0.00000002 Ry

     iteration # 41     ecut=    50.00 Ry     beta= 0.30
     Davidson diagonalization with overlap
     ethr =  4.18E-11,  avg # of iterations =  3.1

     total cpu time spent up to now is       67.1 secs

     End of self-consistent calculation

          k = 0.0000 0.0000 0.0000 (  2239 PWs)   bands (ev):

   -11.8426 -11.3783   0.0262   0.0262   0.0703   0.1552   0.1552   0.4434
     0.8316   0.8316   0.9585   0.9585   1.3066   4.6343   4.6343   5.0464
     5.1847   5.1847

          k = 0.0000 0.0000 0.0993 (  2238 PWs)   bands (ev):

   -11.8128 -11.4107   0.0320   0.0320   0.0500   0.1434   0.1434   0.2874
     0.8426   0.8426   0.9526   0.9526   1.6118   4.4641   4.6718   4.6718
     5.1485   5.1485

          k = 0.0000 0.0000 0.1985 (  2220 PWs)   bands (ev):

   -11.7303 -11.4983   0.0122   0.0498   0.0498   0.0946   0.1138   0.1138
     0.8709   0.8709   0.9346   0.9346   2.2273   3.6955   4.7737   4.7737
     5.0489   5.0489

          k = 0.0000 0.0000-0.2978 (  2232 PWs)   bands (ev):

   -11.6156 -11.6156   0.0087   0.0087   0.0788   0.0788   0.0788   0.0788
     0.9049   0.9049   0.9049   0.9049   2.9429   2.9429   4.9118   4.9118
     4.9118   4.9118

          k = 0.0000 0.1925 0.0000 (  2213 PWs)   bands (ev):

   -11.7323 -11.3230  -0.0469   0.0933   0.1166   0.1881   0.2512   0.5368
     0.7903   0.8312   0.9648   1.0773   1.3650   3.7455   4.0820   4.3542
     4.9201   5.0201

          k = 0.0000 0.1925 0.0993 (  2233 PWs)   bands (ev):

   -11.7056 -11.3512  -0.0577   0.0975   0.1009   0.1730   0.2373   0.3957
     0.8088   0.8412   0.9573   1.0063   1.7134   3.7234   4.0018   4.3997
     4.8357   4.9762

          k = 0.0000 0.1925 0.1985 (  2231 PWs)   bands (ev):

   -11.6322 -11.4276  -0.0773   0.0170   0.1242   0.1600   0.2026   0.2450
     0.8525   0.8686   0.9357   0.9550   2.3056   3.4185   4.0819   4.5233
     4.6110   4.8559

          k = 0.0000 0.1925-0.2978 (  2242 PWs)   bands (ev):

   -11.5307 -11.5307  -0.0634  -0.0634   0.1604   0.1604   0.1826   0.1826
     0.9034   0.9034   0.9051   0.9051   2.9057   2.9057   4.3266   4.3266
     4.6904   4.6904

          k = 0.0000 0.3849 0.0000 (  2240 PWs)   bands (ev):

   -11.4889 -11.2251  -0.0959   0.1320   0.2001   0.4149   0.4700   0.6437
     0.7807   0.8847   0.9798   1.1502   1.7430   2.3613   3.0614   3.7877
     4.4920   4.6687

          k = 0.0000 0.3849 0.0993 (  2236 PWs)   bands (ev):

   -11.4710 -11.2424  -0.1087   0.0922   0.2153   0.4023   0.4489   0.5612
     0.7988   0.8902   0.9720   1.0893   1.8877   2.4533   3.0875   3.8496
     4.4792   4.6114

          k = 0.0000 0.3849 0.1985 (  2238 PWs)   bands (ev):

   -11.4221 -11.2901  -0.1265  -0.0109   0.2591   0.3820   0.3935   0.4419
     0.8596   0.9057   0.9521   1.0107   2.0963   2.4581   3.4088   4.0157
     4.3280   4.4542

          k = 0.0000 0.3849-0.2978 (  2244 PWs)   bands (ev):

   -11.3558 -11.3558  -0.1018  -0.1018   0.3233   0.3233   0.3880   0.3880
     0.9279   0.9279   0.9350   0.9350   2.2932   2.2932   3.9324   3.9324
     4.2370   4.2370

          k = 0.0000-0.5774 0.0000 (  2236 PWs)   bands (ev):

   -11.3396 -11.1982  -0.0414   0.1868   0.2345   0.5378   0.5923   0.6996
     0.8984   0.9525   0.9967   1.0584   1.5808   2.0119   2.8166   3.4866
     4.0952   4.4816

          k = 0.0000-0.5774 0.0993 (  2250 PWs)   bands (ev):

   -11.3294 -11.2069  -0.0607   0.1220   0.2544   0.5368   0.5642   0.6691
     0.9280   0.9539   0.9902   1.0573   1.5635   1.9422   3.0360   3.5583
     4.1538   4.4178

          k = 0.0000-0.5774 0.1985 (  2254 PWs)   bands (ev):

   -11.3019 -11.2311  -0.0936  -0.0034   0.3119   0.4904   0.5418   0.6109
     0.9581   0.9771   0.9846   1.0506   1.5771   1.7962   3.5120   3.7488
     4.1799   4.2425

          k = 0.0000-0.5774-0.2978 (  2248 PWs)   bands (ev):

   -11.2656 -11.2656  -0.0861  -0.0861   0.3972   0.3972   0.5648   0.5648
     0.9659   0.9659   1.0285   1.0285   1.6602   1.6602   3.9617   3.9617
     3.9993   3.9993

          k = 0.1667 0.2887 0.0000 (  2235 PWs)   bands (ev):

   -11.5545 -11.2467  -0.0248   0.0846   0.2142   0.2629   0.4297   0.6422
     0.7524   0.8495   0.9741   1.1492   1.6492   3.0379   3.0451   3.8074
     4.6115   4.6548

          k = 0.1667 0.2887 0.0993 (  2230 PWs)   bands (ev):

   -11.5339 -11.2673  -0.0414   0.0750   0.2106   0.2486   0.4127   0.5163
     0.7805   0.8673   0.9664   1.0793   1.9013   2.9854   3.1642   3.8310
     4.5508   4.6199

          k = 0.1667 0.2887 0.1985 (  2224 PWs)   bands (ev):

   -11.4775 -11.3235  -0.0694   0.0169   0.2124   0.2294   0.3706   0.3712
     0.8470   0.8919   0.9468   1.0029   2.2845   2.8265   3.5183   3.9417
     4.3887   4.4331

          k = 0.1667 0.2887-0.2978 (  2236 PWs)   bands (ev):

   -11.4005 -11.4005  -0.0570  -0.0570   0.2242   0.2242   0.3368   0.3368
     0.9119   0.9119   0.9339   0.9339   2.5899   2.5899   3.9742   3.9742
     4.1999   4.1999

          k = 0.1667 0.4811 0.0000 (  2245 PWs)   bands (ev):

   -11.3446 -11.1958   0.0215   0.2252   0.3151   0.4947   0.6007   0.6509
     0.8140   0.8815   1.0151   1.1760   1.7001   2.1790   2.8106   3.1111
     4.0775   4.2152

          k = 0.1667 0.4811 0.0993 (  2244 PWs)   bands (ev):

   -11.3338 -11.2050   0.0175   0.1978   0.2846   0.4871   0.5691   0.5955
     0.8245   0.9127   1.0153   1.1590   1.7059   2.1554   2.9299   3.2525
     4.0416   4.2275

          k = 0.1667 0.4811 0.1985 (  2236 PWs)   bands (ev):

   -11.3050 -11.2306   0.0042   0.1016   0.2864   0.4531   0.4930   0.5303
     0.8803   0.9322   1.0251   1.1127   1.7734   2.0434   3.1986   3.6101
     3.8655   4.2437

          k = 0.1667 0.4811-0.2978 (  2236 PWs)   bands (ev):

   -11.2670 -11.2670   0.0194   0.0194   0.3552   0.3552   0.4958   0.4958
     0.9227   0.9227   1.0593   1.0593   1.8982   1.8982   3.5078   3.5078
     4.0626   4.0626

          k = 0.3333 0.5774 0.0000 (  2241 PWs)   bands (ev):

   -11.2271 -11.2271   0.0349   0.4003   0.4003   0.6086   0.7838   0.7838
     0.7989   0.8621   1.0314   1.0314   1.9066   1.9066   2.0956   3.5935
     3.5935   3.6728

          k = 0.3333 0.5774 0.0993 (  2247 PWs)   bands (ev):

   -11.2261 -11.2261   0.0596   0.3543   0.3543   0.5417   0.7403   0.7403
     0.8048   0.8580   1.0874   1.0874   1.8643   1.8643   2.2185   3.5687
     3.7272   3.7272

          k = 0.3333 0.5774 0.1985 (  2244 PWs)   bands (ev):

   -11.2240 -11.2240   0.1323   0.2610   0.2610   0.3975   0.6950   0.6950
     0.8172   0.8473   1.1639   1.1639   1.7936   1.7936   2.5254   3.2894
     3.9812   3.9812

          k = 0.3333 0.5774-0.2978 (  2262 PWs)   bands (ev):

   -11.2230 -11.2230   0.2151   0.2151   0.2491   0.2491   0.6810   0.6810
     0.8324   0.8324   1.1942   1.1942   1.7629   1.7629   2.9124   2.9124
     4.1040   4.1040

     highest occupied level (ev):     5.1847

!    total energy              =    -361.61689292 Ry
     estimated scf accuracy    <          1.8E-09 Ry

     The total energy is the sum of the following terms:
     one-electron contribution =    -168.99389179 Ry
     hartree contribution      =     123.49862838 Ry
     xc contribution           =    -109.30380645 Ry
     ewald contribution        =    -206.81782307 Ry

     convergence has been achieved in  41 iterations

     Forces acting on atoms (cartesian axes, Ry/au):

     atom    1 type  1   force =     0.00000000    0.00000000    0.00207766
     atom    2 type  1   force =     0.00000000    0.00000000    0.00207766
     atom    3 type  2   force =     0.00000000    0.00000000   -0.00207766
     atom    4 type  2   force =     0.00000000    0.00000000   -0.00207766
     The non-local contrib.  to forces
     atom    1 type  1   force =     0.00000000    0.00000000    0.09833982
     atom    2 type  1   force =     0.00000000    0.00000000    0.09833982
     atom    3 type  2   force =     0.00000000   -0.00000000    0.10689920
     atom    4 type  2   force =     0.00000000    0.00000000    0.10689920
     The ionic contribution  to forces
     atom    1 type  1   force =    -0.00000000    0.00000000    0.80129175
     atom    2 type  1   force =     0.00000000   -0.00000000    0.80129175
     atom    3 type  2   force =    -0.00000000    0.00000000   -0.80129175
     atom    4 type  2   force =     0.00000000   -0.00000000   -0.80129175
     The local contribution  to forces
     atom    1 type  1   force =    -0.00000002    0.00000001   -0.89120827
     atom    2 type  1   force =     0.00000007   -0.00000004   -0.89120827
     atom    3 type  2   force =    -0.00000001    0.00000000    0.69325298
     atom    4 type  2   force =     0.00000002   -0.00000001    0.69325298
     The core correction contribution to forces
     atom    1 type  1   force =    -0.00000000    0.00000000   -0.00633346
     atom    2 type  1   force =     0.00000001   -0.00000001   -0.00633346
     atom    3 type  2   force =     0.00000000   -0.00000000   -0.00093441
     atom    4 type  2   force =    -0.00000000    0.00000000   -0.00093441
     The Hubbard contrib.    to forces
     atom    1 type  1   force =     0.00000000    0.00000000    0.00000000
     atom    2 type  1   force =     0.00000000    0.00000000    0.00000000
     atom    3 type  2   force =     0.00000000    0.00000000    0.00000000
     atom    4 type  2   force =     0.00000000    0.00000000    0.00000000
     The SCF correction term to forces
     atom    1 type  1   force =    -0.00000000    0.00000000   -0.00001692
     atom    2 type  1   force =     0.00000000   -0.00000000   -0.00001692
     atom    3 type  2   force =    -0.00000000    0.00000000   -0.00000841
     atom    4 type  2   force =     0.00000000   -0.00000000   -0.00000841

     Total force =     0.004155     Total SCF correction =     0.000027


     Computing stress (Cartesian axis) and pressure

          total   stress  (Ry/bohr**3)                   (kbar)     P=     -127.21
  -0.00076068   0.00000000  -0.00000000         -111.90        0.00       -0.00
   0.00000000  -0.00076068  -0.00000000            0.00     -111.90       -0.00
  -0.00000000  -0.00000000  -0.00107295           -0.00       -0.00     -157.84


     Writing all to output data dir ./ZnO_ANN.save/

     init_run     :      2.00s CPU      1.28s WALL (       1 calls)
     electrons    :    174.87s CPU     65.46s WALL (       1 calls)
     forces       :      0.74s CPU      0.35s WALL (       1 calls)
     stress       :      2.72s CPU      1.31s WALL (       1 calls)

     Called by init_run:
     wfcinit      :      1.15s CPU      0.44s WALL (       1 calls)
     potinit      :      0.25s CPU      0.25s WALL (       1 calls)
     hinit0       :      0.45s CPU      0.46s WALL (       1 calls)

     Called by electrons:
     c_bands      :    146.03s CPU     54.09s WALL (      41 calls)
     sum_band     :     21.22s CPU      8.25s WALL (      41 calls)
     v_of_rho     :      1.80s CPU      0.81s WALL (      42 calls)
     newd         :      5.38s CPU      2.16s WALL (      42 calls)
     mix_rho      :      0.28s CPU      0.13s WALL (      41 calls)

     Called by c_bands:
     init_us_2    :      1.90s CPU      0.69s WALL (    2380 calls)
     init_us_2:cp :      1.86s CPU      0.68s WALL (    2380 calls)
     cegterg      :    141.82s CPU     52.42s WALL (    1148 calls)

     Called by *egterg:
     cdiaghg      :     21.44s CPU      7.11s WALL (    7223 calls)
     h_psi        :     97.73s CPU     39.63s WALL (    7251 calls)
     s_psi        :      2.12s CPU      0.62s WALL (    7251 calls)
     g_psi        :      0.80s CPU      0.20s WALL (    6075 calls)

     Called by h_psi:
     h_psi:calbec :      3.08s CPU      1.11s WALL (    7251 calls)
     vloc_psi     :     91.66s CPU     37.56s WALL (    7251 calls)
     add_vuspsi   :      2.12s CPU      0.69s WALL (    7251 calls)

     General routines
     calbec       :      3.82s CPU      1.36s WALL (    8539 calls)
     fft          :      1.20s CPU      0.65s WALL (     569 calls)
     ffts         :      0.16s CPU      0.13s WALL (      83 calls)
     fftw         :     89.76s CPU     36.91s WALL (  185594 calls)
     interpolate  :      0.22s CPU      0.15s WALL (      42 calls)

     Parallel routines

     PWSCF        :   3m 0.87s CPU   1m 8.89s WALL


   This run was terminated on:  18: 5:45  13Jun2025            

=------------------------------------------------------------------------------=
   JOB DONE.
=------------------------------------------------------------------------------=
Note: The following floating-point exceptions are signalling: IEEE_INVALID_FLAG
