Authorization required, but no authorization protocol specified

Authorization required, but no authorization protocol specified

Authorization required, but no authorization protocol specified

Authorization required, but no authorization protocol specified

Authorization required, but no authorization protocol specified

Authorization required, but no authorization protocol specified

Authorization required, but no authorization protocol specified

Authorization required, but no authorization protocol specified

Authorization required, but no authorization protocol specified

Authorization required, but no authorization protocol specified


     Program PWSCF v.7.2 starts on 13Jun2025 at 19:29:37 

     This program is part of the open-source Quantum ESPRESSO suite
     for quantum simulation of materials; please cite
         "P. Giannozzi et al., J. Phys.:Condens. Matter 21 395502 (2009);
         "P. Giannozzi et al., J. Phys.:Condens. Matter 29 465901 (2017);
         "P. Giannozzi et al., J. Chem. Phys. 152 154105 (2020);
          URL http://www.quantum-espresso.org", 
     in publications or presentations arising from this work. More details at
     http://www.quantum-espresso.org/quote

     Parallel version (MPI), running on     8 processors

     MPI processes distributed on     1 nodes
     120710 MiB available memory on the printing compute node when the environment starts

     Reading input from /home/jvc/QEspresso7.2/ZnO_database_python/SCFs.in/scf-6.67-1.66.in

     Current dimensions of program PWSCF are:
     Max number of different atomic species (ntypx) = 10
     Max number of k-points (npk) =  40000
     Max angular momentum in pseudopotentials (lmaxx) =  4
     file Zn.upf: wavefunction(s)  3D renormalized

     R & G space division:  proc/nbgrp/npool/nimage =       8
     Subspace diagonalization in iterative solution of the eigenvalue problem:
     a serial algorithm will be used


     Parallelization info
     --------------------
     sticks:   dense  smooth     PW     G-vecs:    dense   smooth      PW
     Min         154      75     23                 7222     2532     419
     Max         155      78     24                 7227     2537     424
     Sum        1237     613    187                57791    20269    3369

     Using Slab Decomposition



     bravais-lattice index     =            4
     lattice parameter (alat)  =       6.6731  a.u.
     unit-cell volume          =     427.9135 (a.u.)^3
     number of atoms/cell      =            4
     number of atomic types    =            2
     number of electrons       =        36.00
     number of Kohn-Sham states=           18
     kinetic-energy cutoff     =      50.0000  Ry
     charge density cutoff     =     400.0000  Ry
     scf convergence threshold =      1.0E-08
     mixing beta               =       0.3000
     number of iterations used =            8  plain     mixing
     Exchange-correlation= PBE
                           (   1   4   3   4   0   0   0)

     celldm(1)=   6.673127  celldm(2)=   0.000000  celldm(3)=   1.662789
     celldm(4)=   0.000000  celldm(5)=   0.000000  celldm(6)=   0.000000

     crystal axes: (cart. coord. in units of alat)
               a(1) = (   1.000000   0.000000   0.000000 )  
               a(2) = (  -0.500000   0.866025   0.000000 )  
               a(3) = (   0.000000   0.000000   1.662789 )  

     reciprocal axes: (cart. coord. in units 2 pi/alat)
               b(1) = (  1.000000  0.577350 -0.000000 )  
               b(2) = (  0.000000  1.154701  0.000000 )  
               b(3) = (  0.000000 -0.000000  0.601399 )  


     PseudoPot. # 1 for Zn read from file:
     /home/jvc/QEspresso7.2/ZnO_database/pseudos/Zn.upf
     MD5 check sum: 7f56cabf9682ed8c977c2f7d0c5985c5
     Pseudo is Ultrasoft + core correction, Zval = 12.0
     Generated using &quot;atomic&quot; code by A. Dal Corso  v.6.2.2
     Using radial grid of 1201 points,  6 beta functions with: 
                l(1) =   0
                l(2) =   0
                l(3) =   1
                l(4) =   1
                l(5) =   2
                l(6) =   2
     Q(r) pseudized with 0 coefficients 


     PseudoPot. # 2 for O  read from file:
     /home/jvc/QEspresso7.2/ZnO_database/pseudos/O.upf
     MD5 check sum: 91400c9766925bcf19f520983a725ff0
     Pseudo is Ultrasoft + core correction, Zval =  6.0
     Generated using &quot;atomic&quot; code by A. Dal Corso  v.6.3MaX
     Using radial grid of 1095 points,  4 beta functions with: 
                l(1) =   0
                l(2) =   0
                l(3) =   1
                l(4) =   1
     Q(r) pseudized with 0 coefficients 


     atomic species   valence    mass     pseudopotential
        Zn            12.00    63.38000     Zn( 1.00)
        O              6.00    15.99900     O ( 1.00)

     12 Sym. Ops. (no inversion) found ( 6 have fractional translation)



   Cartesian axes

     site n.     atom                  positions (alat units)
         1           Zn  tau(   1) = (   0.5000000   0.2886751   0.8324481  )
         2           Zn  tau(   2) = (  -0.0000000   0.5773503   0.0010535  )
         3           O   tau(   3) = (   0.5000000   0.2886751   1.4627164  )
         4           O   tau(   4) = (  -0.0000000   0.5773503   0.6313218  )

     number of k points=    28
                       cart. coord. in units 2pi/alat
        k(    1) = (   0.0000000   0.0000000   0.0000000), wk =   0.0092593
        k(    2) = (   0.0000000   0.0000000   0.1002332), wk =   0.0185185
        k(    3) = (   0.0000000   0.0000000   0.2004664), wk =   0.0185185
        k(    4) = (   0.0000000   0.0000000  -0.3006996), wk =   0.0092593
        k(    5) = (   0.0000000   0.1924501   0.0000000), wk =   0.0555556
        k(    6) = (   0.0000000   0.1924501   0.1002332), wk =   0.1111111
        k(    7) = (   0.0000000   0.1924501   0.2004664), wk =   0.1111111
        k(    8) = (   0.0000000   0.1924501  -0.3006996), wk =   0.0555556
        k(    9) = (   0.0000000   0.3849002   0.0000000), wk =   0.0555556
        k(   10) = (   0.0000000   0.3849002   0.1002332), wk =   0.1111111
        k(   11) = (   0.0000000   0.3849002   0.2004664), wk =   0.1111111
        k(   12) = (   0.0000000   0.3849002  -0.3006996), wk =   0.0555556
        k(   13) = (   0.0000000  -0.5773503   0.0000000), wk =   0.0277778
        k(   14) = (   0.0000000  -0.5773503   0.1002332), wk =   0.0555556
        k(   15) = (   0.0000000  -0.5773503   0.2004664), wk =   0.0555556
        k(   16) = (   0.0000000  -0.5773503  -0.3006996), wk =   0.0277778
        k(   17) = (   0.1666667   0.2886751   0.0000000), wk =   0.0555556
        k(   18) = (   0.1666667   0.2886751   0.1002332), wk =   0.1111111
        k(   19) = (   0.1666667   0.2886751   0.2004664), wk =   0.1111111
        k(   20) = (   0.1666667   0.2886751  -0.3006996), wk =   0.0555556
        k(   21) = (   0.1666667   0.4811252   0.0000000), wk =   0.1111111
        k(   22) = (   0.1666667   0.4811252   0.1002332), wk =   0.2222222
        k(   23) = (   0.1666667   0.4811252   0.2004664), wk =   0.2222222
        k(   24) = (   0.1666667   0.4811252  -0.3006996), wk =   0.1111111
        k(   25) = (   0.3333333   0.5773503   0.0000000), wk =   0.0185185
        k(   26) = (   0.3333333   0.5773503   0.1002332), wk =   0.0370370
        k(   27) = (   0.3333333   0.5773503   0.2004664), wk =   0.0370370
        k(   28) = (   0.3333333   0.5773503  -0.3006996), wk =   0.0185185

     Dense  grid:    57791 G-vectors     FFT dimensions: (  45,  45,  72)

     Smooth grid:    20269 G-vectors     FFT dimensions: (  32,  32,  50)

     Estimated max dynamical RAM per process >      32.60 MB

     Estimated total dynamical RAM >     260.83 MB

     Check: negative core charge=   -0.000002

     Initial potential from superposition of free atoms

     starting charge      35.9925, renormalised to      36.0000
     Starting wfcs are   26 randomized atomic wfcs

     total cpu time spent up to now is        1.6 secs

     Self-consistent Calculation

     iteration #  1     ecut=    50.00 Ry     beta= 0.30
     Davidson diagonalization with overlap
     ethr =  1.00E-02,  avg # of iterations =  1.2

     total cpu time spent up to now is        2.5 secs

     total energy              =    -361.36045852 Ry
     estimated scf accuracy    <       0.83256461 Ry

     iteration #  2     ecut=    50.00 Ry     beta= 0.30
     Davidson diagonalization with overlap
     ethr =  2.31E-03,  avg # of iterations =  2.2

     total cpu time spent up to now is        3.5 secs

     total energy              =    -361.48433056 Ry
     estimated scf accuracy    <       0.09363456 Ry

     iteration #  3     ecut=    50.00 Ry     beta= 0.30
     Davidson diagonalization with overlap
     ethr =  2.60E-04,  avg # of iterations =  5.8

     total cpu time spent up to now is        5.0 secs

     total energy              =    -361.48155355 Ry
     estimated scf accuracy    <       0.15682187 Ry

     iteration #  4     ecut=    50.00 Ry     beta= 0.30
     Davidson diagonalization with overlap
     ethr =  2.60E-04,  avg # of iterations =  9.5

     total cpu time spent up to now is        7.2 secs

     total energy              =    -361.62385860 Ry
     estimated scf accuracy    <       0.42437780 Ry

     iteration #  5     ecut=    50.00 Ry     beta= 0.30
     Davidson diagonalization with overlap
     ethr =  2.60E-04,  avg # of iterations =  1.0

     total cpu time spent up to now is        8.1 secs

     total energy              =    -361.44018976 Ry
     estimated scf accuracy    <       0.33456741 Ry

     iteration #  6     ecut=    50.00 Ry     beta= 0.30
     Davidson diagonalization with overlap
     ethr =  2.60E-04,  avg # of iterations =  6.9

     total cpu time spent up to now is        9.6 secs

     total energy              =    -361.56153464 Ry
     estimated scf accuracy    <       0.09580236 Ry

     iteration #  7     ecut=    50.00 Ry     beta= 0.30
     Davidson diagonalization with overlap
     ethr =  2.60E-04,  avg # of iterations =  1.0

     total cpu time spent up to now is       10.5 secs

     total energy              =    -361.56485535 Ry
     estimated scf accuracy    <       0.04839575 Ry

     iteration #  8     ecut=    50.00 Ry     beta= 0.30
     Davidson diagonalization with overlap
     ethr =  1.34E-04,  avg # of iterations =  1.0

     total cpu time spent up to now is       11.3 secs

     total energy              =    -361.56363197 Ry
     estimated scf accuracy    <       0.04817516 Ry

     iteration #  9     ecut=    50.00 Ry     beta= 0.30
     Davidson diagonalization with overlap
     ethr =  1.34E-04,  avg # of iterations =  1.0

     total cpu time spent up to now is       12.2 secs

     total energy              =    -361.56686886 Ry
     estimated scf accuracy    <       0.03925691 Ry

     iteration # 10     ecut=    50.00 Ry     beta= 0.30
     Davidson diagonalization with overlap
     ethr =  1.09E-04,  avg # of iterations =  1.0

     total cpu time spent up to now is       13.0 secs

     total energy              =    -361.56787683 Ry
     estimated scf accuracy    <       0.04246554 Ry

     iteration # 11     ecut=    50.00 Ry     beta= 0.30
     Davidson diagonalization with overlap
     ethr =  1.09E-04,  avg # of iterations =  1.0

     total cpu time spent up to now is       13.9 secs

     total energy              =    -361.55348636 Ry
     estimated scf accuracy    <       0.04007457 Ry

     iteration # 12     ecut=    50.00 Ry     beta= 0.30
     Davidson diagonalization with overlap
     ethr =  1.09E-04,  avg # of iterations =  3.4

     total cpu time spent up to now is       14.9 secs

     total energy              =    -361.55841436 Ry
     estimated scf accuracy    <       0.00764368 Ry

     iteration # 13     ecut=    50.00 Ry     beta= 0.30
     Davidson diagonalization with overlap
     ethr =  2.12E-05,  avg # of iterations =  5.0

     total cpu time spent up to now is       16.2 secs

     total energy              =    -361.56091005 Ry
     estimated scf accuracy    <       0.00052019 Ry

     iteration # 14     ecut=    50.00 Ry     beta= 0.30
     Davidson diagonalization with overlap
     ethr =  1.44E-06,  avg # of iterations =  7.3

     total cpu time spent up to now is       17.8 secs

     total energy              =    -361.56106431 Ry
     estimated scf accuracy    <       0.00169443 Ry

     iteration # 15     ecut=    50.00 Ry     beta= 0.30
     Davidson diagonalization with overlap
     ethr =  1.44E-06,  avg # of iterations =  6.1

     total cpu time spent up to now is       19.3 secs

     total energy              =    -361.56146441 Ry
     estimated scf accuracy    <       0.00005807 Ry

     iteration # 16     ecut=    50.00 Ry     beta= 0.30
     Davidson diagonalization with overlap
     ethr =  1.61E-07,  avg # of iterations =  8.1

     total cpu time spent up to now is       21.0 secs

     total energy              =    -361.56242983 Ry
     estimated scf accuracy    <       0.00066034 Ry

     iteration # 17     ecut=    50.00 Ry     beta= 0.30
     Davidson diagonalization with overlap
     c_bands:  1 eigenvalues not converged
     ethr =  1.61E-07,  avg # of iterations = 13.8

     total cpu time spent up to now is       23.8 secs

     total energy              =    -361.56493026 Ry
     estimated scf accuracy    <       0.00723412 Ry

     iteration # 18     ecut=    50.00 Ry     beta= 0.30
     Davidson diagonalization with overlap
     c_bands:  1 eigenvalues not converged
     ethr =  1.61E-07,  avg # of iterations = 12.2

     total cpu time spent up to now is       26.3 secs

     total energy              =    -361.56071472 Ry
     estimated scf accuracy    <       0.01761932 Ry

     iteration # 19     ecut=    50.00 Ry     beta= 0.30
     Davidson diagonalization with overlap
     c_bands:  1 eigenvalues not converged
     c_bands:  1 eigenvalues not converged
     ethr =  1.61E-07,  avg # of iterations = 13.9

     total cpu time spent up to now is       29.3 secs

     total energy              =    -361.56290762 Ry
     estimated scf accuracy    <       0.00230404 Ry

     iteration # 20     ecut=    50.00 Ry     beta= 0.30
     Davidson diagonalization with overlap
     c_bands:  1 eigenvalues not converged
     ethr =  1.61E-07,  avg # of iterations = 11.0

     total cpu time spent up to now is       31.6 secs

     total energy              =    -361.56489940 Ry
     estimated scf accuracy    <       0.00796435 Ry

     iteration # 21     ecut=    50.00 Ry     beta= 0.30
     Davidson diagonalization with overlap
     c_bands:  1 eigenvalues not converged
     ethr =  1.61E-07,  avg # of iterations = 11.5

     total cpu time spent up to now is       34.0 secs

     total energy              =    -361.55951603 Ry
     estimated scf accuracy    <       0.01698449 Ry

     iteration # 22     ecut=    50.00 Ry     beta= 0.30
     Davidson diagonalization with overlap
     c_bands:  1 eigenvalues not converged
     ethr =  1.61E-07,  avg # of iterations = 14.4

     total cpu time spent up to now is       37.1 secs

     total energy              =    -361.56126179 Ry
     estimated scf accuracy    <       0.00041702 Ry

     iteration # 23     ecut=    50.00 Ry     beta= 0.30
     Davidson diagonalization with overlap
     ethr =  1.61E-07,  avg # of iterations =  8.9

     total cpu time spent up to now is       39.1 secs

     total energy              =    -361.56141908 Ry
     estimated scf accuracy    <       0.00011151 Ry

     iteration # 24     ecut=    50.00 Ry     beta= 0.30
     Davidson diagonalization with overlap
     ethr =  1.61E-07,  avg # of iterations =  1.1

     total cpu time spent up to now is       40.0 secs

     total energy              =    -361.56138240 Ry
     estimated scf accuracy    <       0.00008779 Ry

     iteration # 25     ecut=    50.00 Ry     beta= 0.30
     Davidson diagonalization with overlap
     ethr =  1.61E-07,  avg # of iterations =  4.9

     total cpu time spent up to now is       41.2 secs

     total energy              =    -361.56140176 Ry
     estimated scf accuracy    <       0.00000010 Ry

     iteration # 26     ecut=    50.00 Ry     beta= 0.30
     Davidson diagonalization with overlap
     c_bands:  2 eigenvalues not converged
     ethr =  2.90E-10,  avg # of iterations = 12.0

     total cpu time spent up to now is       43.7 secs

     total energy              =    -361.56140288 Ry
     estimated scf accuracy    <       0.00000187 Ry

     iteration # 27     ecut=    50.00 Ry     beta= 0.30
     Davidson diagonalization with overlap
     ethr =  2.90E-10,  avg # of iterations = 11.3

     total cpu time spent up to now is       46.1 secs

     total energy              =    -361.56140332 Ry
     estimated scf accuracy    <       0.00000010 Ry

     iteration # 28     ecut=    50.00 Ry     beta= 0.30
     Davidson diagonalization with overlap
     ethr =  2.88E-10,  avg # of iterations =  2.0

     total cpu time spent up to now is       47.1 secs

     total energy              =    -361.56140332 Ry
     estimated scf accuracy    <       0.00000002 Ry

     iteration # 29     ecut=    50.00 Ry     beta= 0.30
     Davidson diagonalization with overlap
     ethr =  6.37E-11,  avg # of iterations =  6.3

     total cpu time spent up to now is       48.6 secs

     total energy              =    -361.56140334 Ry
     estimated scf accuracy    <       0.00000003 Ry

     iteration # 30     ecut=    50.00 Ry     beta= 0.30
     Davidson diagonalization with overlap
     ethr =  6.37E-11,  avg # of iterations =  1.1

     total cpu time spent up to now is       49.4 secs

     total energy              =    -361.56140334 Ry
     estimated scf accuracy    <       0.00000001 Ry

     iteration # 31     ecut=    50.00 Ry     beta= 0.30
     Davidson diagonalization with overlap
     ethr =  3.71E-11,  avg # of iterations =  5.4

     total cpu time spent up to now is       50.8 secs

     End of self-consistent calculation

          k = 0.0000 0.0000 0.0000 (  2563 PWs)   bands (ev):

   -12.6346 -12.2907  -1.2235  -1.2235  -1.1990  -1.1262  -1.1262  -0.6987
    -0.6987  -0.6725  -0.6046  -0.6046   0.0774   3.1911   3.1911   3.5672
     3.6473   3.6473

          k = 0.0000 0.0000 0.1002 (  2581 PWs)   bands (ev):

   -12.6122 -12.3145  -1.2195  -1.2195  -1.2047  -1.1353  -1.1353  -0.8355
    -0.6907  -0.6907  -0.6095  -0.6095   0.3617   2.9626   3.2222   3.2222
     3.6172   3.6172

          k = 0.0000 0.0000 0.2005 (  2563 PWs)   bands (ev):

   -12.5506 -12.3787  -1.2069  -1.2063  -1.2063  -1.1577  -1.1577  -1.0468
    -0.6695  -0.6695  -0.6227  -0.6227   0.9187   2.2470   3.3066   3.3066
     3.5347   3.5347

          k = 0.0000 0.0000-0.3007 (  2508 PWs)   bands (ev):

   -12.4653 -12.4653  -1.1840  -1.1840  -1.1840  -1.1840  -1.1670  -1.1670
    -0.6439  -0.6439  -0.6439  -0.6439   1.5628   1.5628   3.4212   3.4212
     3.4212   3.4212

          k = 0.0000 0.1925 0.0000 (  2575 PWs)   bands (ev):

   -12.5545 -12.2519  -1.2477  -1.1744  -1.1562  -1.0937  -1.0554  -0.7374
    -0.7250  -0.6985  -0.6004  -0.5093   0.2724   2.3441   2.6126   2.9630
     3.4671   3.5166

          k = 0.0000 0.1925 0.1002 (  2575 PWs)   bands (ev):

   -12.5346 -12.2725  -1.2510  -1.1684  -1.1598  -1.1028  -1.0656  -0.8351
    -0.7117  -0.6908  -0.6058  -0.5602   0.5153   2.2636   2.5999   3.0006
     3.3937   3.4800

          k = 0.0000 0.1925 0.2005 (  2560 PWs)   bands (ev):

   -12.4799 -12.3286  -1.2513  -1.1770  -1.1506  -1.1154  -1.0916  -1.0029
    -0.6800  -0.6705  -0.6214  -0.6036   0.9920   1.9448   2.7205   3.1030
     3.1998   3.3797

          k = 0.0000 0.1925-0.3007 (  2568 PWs)   bands (ev):

   -12.4046 -12.4046  -1.2240  -1.2240  -1.1233  -1.1233  -1.0915  -1.0915
    -0.6449  -0.6449  -0.6415  -0.6415   1.4949   1.4949   2.9485   2.9485
     3.2418   3.2418

          k = 0.0000 0.3849 0.0000 (  2567 PWs)   bands (ev):

   -12.3790 -12.1841  -1.2359  -1.0989  -1.0981  -0.9224  -0.8983  -0.7888
    -0.7077  -0.6578  -0.5898  -0.4637   0.6682   1.1606   1.7427   2.5130
     3.1135   3.2407

          k = 0.0000 0.3849 0.1002 (  2563 PWs)   bands (ev):

   -12.3657 -12.1969  -1.2420  -1.1176  -1.0870  -0.9287  -0.9133  -0.8201
    -0.7048  -0.6538  -0.5954  -0.4987   0.6980   1.1965   1.8295   2.5630
     3.1060   3.1926

          k = 0.0000 0.3849 0.2005 (  2560 PWs)   bands (ev):

   -12.3296 -12.2321  -1.2477  -1.1690  -1.0535  -0.9531  -0.9407  -0.8983
    -0.6665  -0.6431  -0.6096  -0.5568   0.7959   1.1140   2.1913   2.6983
     2.9843   3.0611

          k = 0.0000 0.3849-0.3007 (  2560 PWs)   bands (ev):

   -12.2806 -12.2806  -1.2251  -1.2251  -1.0050  -1.0050  -0.9390  -0.9390
    -0.6271  -0.6271  -0.6130  -0.6130   0.9478   0.9478   2.6517   2.6517
     2.8806   2.8806

          k = 0.0000-0.5774 0.0000 (  2546 PWs)   bands (ev):

   -12.2720 -12.1665  -1.2157  -1.0767  -0.9923  -0.8659  -0.8166  -0.7301
    -0.6094  -0.5896  -0.5784  -0.5322   0.3789   0.8708   1.6835   2.2833
     2.7805   3.0965

          k = 0.0000-0.5774 0.1002 (  2542 PWs)   bands (ev):

   -12.2645 -12.1730  -1.2242  -1.0613  -1.0443  -0.8606  -0.8354  -0.7263
    -0.6084  -0.5901  -0.5829  -0.5326   0.3561   0.7889   1.8738   2.3399
     2.8372   3.0431

          k = 0.0000-0.5774 0.2005 (  2544 PWs)   bands (ev):

   -12.2441 -12.1913  -1.2346  -1.1420  -1.0175  -0.8866  -0.8416  -0.7566
    -0.6053  -0.5920  -0.5719  -0.5363   0.3648   0.6171   2.2886   2.4922
     2.8676   2.8970

          k = 0.0000-0.5774-0.3007 (  2520 PWs)   bands (ev):

   -12.2171 -12.2171  -1.2133  -1.2133  -0.9539  -0.9539  -0.8050  -0.8050
    -0.5997  -0.5997  -0.5487  -0.5487   0.4581   0.4581   2.6802   2.6802
     2.6961   2.6961

          k = 0.1667 0.2887 0.0000 (  2551 PWs)   bands (ev):

   -12.4261 -12.1988  -1.1914  -1.1609  -1.0834  -1.0275  -0.9253  -0.7503
    -0.7486  -0.6814  -0.5932  -0.4658   0.6007   1.6154   1.8374   2.5092
     3.1824   3.2450

          k = 0.1667 0.2887 0.1002 (  2557 PWs)   bands (ev):

   -12.4108 -12.2140  -1.1990  -1.1572  -1.0870  -1.0357  -0.9377  -0.8239
    -0.7293  -0.6688  -0.5988  -0.5060   0.7244   1.5567   1.9620   2.5321
     3.1317   3.2208

          k = 0.1667 0.2887 0.2005 (  2563 PWs)   bands (ev):

   -12.3691 -12.2554  -1.2093  -1.1601  -1.0842  -1.0527  -0.9685  -0.9495
    -0.6804  -0.6523  -0.6128  -0.5643   0.9595   1.3993   2.2990   2.6274
     2.9961   3.0727

          k = 0.1667 0.2887-0.3007 (  2556 PWs)   bands (ev):

   -12.3121 -12.3121  -1.1924  -1.1924  -1.0679  -1.0679  -0.9938  -0.9938
    -0.6373  -0.6373  -0.6168  -0.6168   1.1905   1.1905   2.6892   2.6892
     2.8454   2.8454

          k = 0.1667 0.4811 0.0000 (  2546 PWs)   bands (ev):

   -12.2751 -12.1649  -1.1877  -1.0629  -0.9381  -0.8628  -0.8008  -0.7851
    -0.6936  -0.6507  -0.5604  -0.4504   0.5938   0.9548   1.6824   1.9623
     2.7707   2.8572

          k = 0.1667 0.4811 0.1002 (  2543 PWs)   bands (ev):

   -12.2672 -12.1718  -1.1818  -1.0684  -0.9767  -0.8695  -0.8178  -0.8050
    -0.6885  -0.6342  -0.5591  -0.4614   0.5670   0.9068   1.7925   2.0867
     2.7265   2.8889

          k = 0.1667 0.4811 0.2005 (  2546 PWs)   bands (ev):

   -12.2460 -12.1909  -1.1720  -1.0932  -1.0178  -0.8991  -0.8607  -0.8420
    -0.6535  -0.6222  -0.5496  -0.4899   0.5705   0.7807   2.0146   2.4046
     2.5659   2.9249

          k = 0.1667 0.4811-0.3007 (  2550 PWs)   bands (ev):

   -12.2179 -12.2179  -1.1480  -1.1480  -0.9713  -0.9713  -0.8623  -0.8623
    -0.6278  -0.6278  -0.5243  -0.5243   0.6504   0.6504   2.2746   2.2746
     2.7780   2.7780

          k = 0.3333 0.5774 0.0000 (  2526 PWs)   bands (ev):

   -12.1894 -12.1894  -1.1978  -0.9358  -0.9358  -0.7856  -0.7222  -0.7222
    -0.6890  -0.6686  -0.4887  -0.4887   0.7886   0.7886   1.1060   2.3519
     2.3519   2.4216

          k = 0.3333 0.5774 0.1002 (  2520 PWs)   bands (ev):

   -12.1887 -12.1887  -1.1772  -0.9636  -0.9636  -0.8204  -0.7297  -0.7297
    -0.6942  -0.6712  -0.4735  -0.4735   0.7341   0.7341   1.2004   2.3326
     2.4775   2.4775

          k = 0.3333 0.5774 0.2005 (  2547 PWs)   bands (ev):

   -12.1874 -12.1874  -1.1176  -1.0181  -1.0181  -0.9147  -0.7410  -0.7410
    -0.6941  -0.6782  -0.4485  -0.4485   0.6457   0.6457   1.4473   2.0934
     2.7119   2.7119

          k = 0.3333 0.5774-0.3007 (  2574 PWs)   bands (ev):

   -12.1868 -12.1868  -1.0446  -1.0446  -1.0252  -1.0252  -0.7458  -0.7458
    -0.6871  -0.6871  -0.4378  -0.4378   0.6087   0.6087   1.7717   1.7717
     2.8238   2.8238

     highest occupied level (ev):     3.6473

!    total energy              =    -361.56140334 Ry
     estimated scf accuracy    <          3.5E-09 Ry

     The total energy is the sum of the following terms:
     one-electron contribution =    -183.39500109 Ry
     hartree contribution      =     128.81985767 Ry
     xc contribution           =    -109.08555582 Ry
     ewald contribution        =    -197.90070410 Ry

     convergence has been achieved in  31 iterations

     Forces acting on atoms (cartesian axes, Ry/au):

     atom    1 type  1   force =     0.00000000    0.00000000   -0.00266452
     atom    2 type  1   force =     0.00000000   -0.00000000   -0.00266452
     atom    3 type  2   force =     0.00000000    0.00000000    0.00266452
     atom    4 type  2   force =     0.00000000    0.00000000    0.00266452
     The non-local contrib.  to forces
     atom    1 type  1   force =     0.00000000    0.00000000    0.06779764
     atom    2 type  1   force =     0.00000000    0.00000000    0.06779764
     atom    3 type  2   force =     0.00000000   -0.00000000    0.08489468
     atom    4 type  2   force =     0.00000000    0.00000000    0.08489468
     The ionic contribution  to forces
     atom    1 type  1   force =    -0.00000000    0.00000000    0.56554284
     atom    2 type  1   force =     0.00000000   -0.00000000    0.56554284
     atom    3 type  2   force =    -0.00000000    0.00000000   -0.56554284
     atom    4 type  2   force =     0.00000000   -0.00000000   -0.56554284
     The local contribution  to forces
     atom    1 type  1   force =    -0.00000002    0.00000001   -0.63206923
     atom    2 type  1   force =     0.00000007   -0.00000004   -0.63206923
     atom    3 type  2   force =    -0.00000001    0.00000000    0.48410620
     atom    4 type  2   force =     0.00000002   -0.00000001    0.48410619
     The core correction contribution to forces
     atom    1 type  1   force =    -0.00000000    0.00000000   -0.00394057
     atom    2 type  1   force =     0.00000001   -0.00000001   -0.00394057
     atom    3 type  2   force =     0.00000000   -0.00000000   -0.00079093
     atom    4 type  2   force =    -0.00000000    0.00000000   -0.00079093
     The Hubbard contrib.    to forces
     atom    1 type  1   force =     0.00000000    0.00000000    0.00000000
     atom    2 type  1   force =     0.00000000    0.00000000    0.00000000
     atom    3 type  2   force =     0.00000000    0.00000000    0.00000000
     atom    4 type  2   force =     0.00000000    0.00000000    0.00000000
     The SCF correction term to forces
     atom    1 type  1   force =     0.00000000   -0.00000000    0.00000577
     atom    2 type  1   force =    -0.00000000    0.00000000    0.00000577
     atom    3 type  2   force =     0.00000000   -0.00000000   -0.00000162
     atom    4 type  2   force =    -0.00000000    0.00000000   -0.00000162

     Total force =     0.005329     Total SCF correction =     0.000008


     Computing stress (Cartesian axis) and pressure

          total   stress  (Ry/bohr**3)                   (kbar)     P=     -194.54
  -0.00128447   0.00000000   0.00000000         -188.95        0.00        0.00
   0.00000000  -0.00128447   0.00000000            0.00     -188.95        0.00
   0.00000000   0.00000000  -0.00139841            0.00        0.00     -205.71


     Writing all to output data dir ./ZnO_ANN.save/

     init_run     :      1.98s CPU      1.31s WALL (       1 calls)
     electrons    :    135.14s CPU     49.16s WALL (       1 calls)
     forces       :      0.79s CPU      0.39s WALL (       1 calls)
     stress       :      3.04s CPU      1.47s WALL (       1 calls)

     Called by init_run:
     wfcinit      :      1.08s CPU      0.40s WALL (       1 calls)
     potinit      :      0.27s CPU      0.28s WALL (       1 calls)
     hinit0       :      0.45s CPU      0.46s WALL (       1 calls)

     Called by electrons:
     c_bands      :    112.52s CPU     40.42s WALL (      31 calls)
     sum_band     :     16.28s CPU      6.17s WALL (      31 calls)
     v_of_rho     :      1.41s CPU      0.62s WALL (      32 calls)
     newd         :      4.60s CPU      1.86s WALL (      32 calls)
     mix_rho      :      0.23s CPU      0.10s WALL (      31 calls)

     Called by c_bands:
     init_us_2    :      1.72s CPU      0.60s WALL (    1820 calls)
     init_us_2:cp :      1.69s CPU      0.59s WALL (    1820 calls)
     cegterg      :    108.76s CPU     38.95s WALL (     868 calls)

     Called by *egterg:
     cdiaghg      :     19.15s CPU      6.20s WALL (    6230 calls)
     h_psi        :     68.73s CPU     27.71s WALL (    6258 calls)
     s_psi        :      1.88s CPU      0.52s WALL (    6258 calls)
     g_psi        :      0.74s CPU      0.19s WALL (    5362 calls)

     Called by h_psi:
     h_psi:calbec :      2.79s CPU      0.96s WALL (    6258 calls)
     vloc_psi     :     63.20s CPU     25.91s WALL (    6258 calls)
     add_vuspsi   :      1.96s CPU      0.61s WALL (    6258 calls)

     General routines
     calbec       :      3.39s CPU      1.15s WALL (    7266 calls)
     fft          :      1.00s CPU      0.54s WALL (     439 calls)
     ffts         :      0.16s CPU      0.12s WALL (      63 calls)
     fftw         :     59.96s CPU     24.69s WALL (  146246 calls)
     interpolate  :      0.21s CPU      0.14s WALL (      32 calls)

     Parallel routines

     PWSCF        :   2m21.50s CPU     52.83s WALL


   This run was terminated on:  19:30:30  13Jun2025            

=------------------------------------------------------------------------------=
   JOB DONE.
=------------------------------------------------------------------------------=
Note: The following floating-point exceptions are signalling: IEEE_INVALID_FLAG
