Authorization required, but no authorization protocol specified

Authorization required, but no authorization protocol specified

Authorization required, but no authorization protocol specified

Authorization required, but no authorization protocol specified

Authorization required, but no authorization protocol specified

Authorization required, but no authorization protocol specified

Authorization required, but no authorization protocol specified

Authorization required, but no authorization protocol specified

Authorization required, but no authorization protocol specified

Authorization required, but no authorization protocol specified


     Program PWSCF v.7.2 starts on 13Jun2025 at 18: 8:28 

     This program is part of the open-source Quantum ESPRESSO suite
     for quantum simulation of materials; please cite
         "P. Giannozzi et al., J. Phys.:Condens. Matter 21 395502 (2009);
         "P. Giannozzi et al., J. Phys.:Condens. Matter 29 465901 (2017);
         "P. Giannozzi et al., J. Chem. Phys. 152 154105 (2020);
          URL http://www.quantum-espresso.org", 
     in publications or presentations arising from this work. More details at
     http://www.quantum-espresso.org/quote

     Parallel version (MPI), running on     8 processors

     MPI processes distributed on     1 nodes
     120702 MiB available memory on the printing compute node when the environment starts

     Reading input from /home/jvc/QEspresso7.2/ZnO_database_python/SCFs.in/scf-6.36-1.74.in

     Current dimensions of program PWSCF are:
     Max number of different atomic species (ntypx) = 10
     Max number of k-points (npk) =  40000
     Max angular momentum in pseudopotentials (lmaxx) =  4
     file Zn.upf: wavefunction(s)  3D renormalized

     R & G space division:  proc/nbgrp/npool/nimage =       8
     Subspace diagonalization in iterative solution of the eigenvalue problem:
     a serial algorithm will be used


     Parallelization info
     --------------------
     sticks:   dense  smooth     PW     G-vecs:    dense   smooth      PW
     Min         140      69     20                 6572     2323     382
     Max         141      70     21                 6575     2328     387
     Sum        1123     559    163                52589    18619    3069

     Using Slab Decomposition



     bravais-lattice index     =            4
     lattice parameter (alat)  =       6.3642  a.u.
     unit-cell volume          =     389.2091 (a.u.)^3
     number of atoms/cell      =            4
     number of atomic types    =            2
     number of electrons       =        36.00
     number of Kohn-Sham states=           18
     kinetic-energy cutoff     =      50.0000  Ry
     charge density cutoff     =     400.0000  Ry
     scf convergence threshold =      1.0E-08
     mixing beta               =       0.3000
     number of iterations used =            8  plain     mixing
     Exchange-correlation= PBE
                           (   1   4   3   4   0   0   0)

     celldm(1)=   6.364186  celldm(2)=   0.000000  celldm(3)=   1.743507
     celldm(4)=   0.000000  celldm(5)=   0.000000  celldm(6)=   0.000000

     crystal axes: (cart. coord. in units of alat)
               a(1) = (   1.000000   0.000000   0.000000 )  
               a(2) = (  -0.500000   0.866025   0.000000 )  
               a(3) = (   0.000000   0.000000   1.743507 )  

     reciprocal axes: (cart. coord. in units 2 pi/alat)
               b(1) = (  1.000000  0.577350 -0.000000 )  
               b(2) = (  0.000000  1.154701  0.000000 )  
               b(3) = (  0.000000 -0.000000  0.573557 )  


     PseudoPot. # 1 for Zn read from file:
     /home/jvc/QEspresso7.2/ZnO_database/pseudos/Zn.upf
     MD5 check sum: 7f56cabf9682ed8c977c2f7d0c5985c5
     Pseudo is Ultrasoft + core correction, Zval = 12.0
     Generated using &quot;atomic&quot; code by A. Dal Corso  v.6.2.2
     Using radial grid of 1201 points,  6 beta functions with: 
                l(1) =   0
                l(2) =   0
                l(3) =   1
                l(4) =   1
                l(5) =   2
                l(6) =   2
     Q(r) pseudized with 0 coefficients 


     PseudoPot. # 2 for O  read from file:
     /home/jvc/QEspresso7.2/ZnO_database/pseudos/O.upf
     MD5 check sum: 91400c9766925bcf19f520983a725ff0
     Pseudo is Ultrasoft + core correction, Zval =  6.0
     Generated using &quot;atomic&quot; code by A. Dal Corso  v.6.3MaX
     Using radial grid of 1095 points,  4 beta functions with: 
                l(1) =   0
                l(2) =   0
                l(3) =   1
                l(4) =   1
     Q(r) pseudized with 0 coefficients 


     atomic species   valence    mass     pseudopotential
        Zn            12.00    63.38000     Zn( 1.00)
        O              6.00    15.99900     O ( 1.00)

     12 Sym. Ops. (no inversion) found ( 6 have fractional translation)



   Cartesian axes

     site n.     atom                  positions (alat units)
         1           Zn  tau(   1) = (   0.5000000   0.2886751   0.8728582  )
         2           Zn  tau(   2) = (  -0.0000000   0.5773503   0.0011047  )
         3           O   tau(   3) = (   0.5000000   0.2886751   1.5337220  )
         4           O   tau(   4) = (  -0.0000000   0.5773503   0.6619685  )

     number of k points=    28
                       cart. coord. in units 2pi/alat
        k(    1) = (   0.0000000   0.0000000   0.0000000), wk =   0.0092593
        k(    2) = (   0.0000000   0.0000000   0.0955928), wk =   0.0185185
        k(    3) = (   0.0000000   0.0000000   0.1911855), wk =   0.0185185
        k(    4) = (   0.0000000   0.0000000  -0.2867783), wk =   0.0092593
        k(    5) = (   0.0000000   0.1924501   0.0000000), wk =   0.0555556
        k(    6) = (   0.0000000   0.1924501   0.0955928), wk =   0.1111111
        k(    7) = (   0.0000000   0.1924501   0.1911855), wk =   0.1111111
        k(    8) = (   0.0000000   0.1924501  -0.2867783), wk =   0.0555556
        k(    9) = (   0.0000000   0.3849002   0.0000000), wk =   0.0555556
        k(   10) = (   0.0000000   0.3849002   0.0955928), wk =   0.1111111
        k(   11) = (   0.0000000   0.3849002   0.1911855), wk =   0.1111111
        k(   12) = (   0.0000000   0.3849002  -0.2867783), wk =   0.0555556
        k(   13) = (   0.0000000  -0.5773503   0.0000000), wk =   0.0277778
        k(   14) = (   0.0000000  -0.5773503   0.0955928), wk =   0.0555556
        k(   15) = (   0.0000000  -0.5773503   0.1911855), wk =   0.0555556
        k(   16) = (   0.0000000  -0.5773503  -0.2867783), wk =   0.0277778
        k(   17) = (   0.1666667   0.2886751   0.0000000), wk =   0.0555556
        k(   18) = (   0.1666667   0.2886751   0.0955928), wk =   0.1111111
        k(   19) = (   0.1666667   0.2886751   0.1911855), wk =   0.1111111
        k(   20) = (   0.1666667   0.2886751  -0.2867783), wk =   0.0555556
        k(   21) = (   0.1666667   0.4811252   0.0000000), wk =   0.1111111
        k(   22) = (   0.1666667   0.4811252   0.0955928), wk =   0.2222222
        k(   23) = (   0.1666667   0.4811252   0.1911855), wk =   0.2222222
        k(   24) = (   0.1666667   0.4811252  -0.2867783), wk =   0.1111111
        k(   25) = (   0.3333333   0.5773503   0.0000000), wk =   0.0185185
        k(   26) = (   0.3333333   0.5773503   0.0955928), wk =   0.0370370
        k(   27) = (   0.3333333   0.5773503   0.1911855), wk =   0.0370370
        k(   28) = (   0.3333333   0.5773503  -0.2867783), wk =   0.0185185

     Dense  grid:    52589 G-vectors     FFT dimensions: (  45,  45,  72)

     Smooth grid:    18619 G-vectors     FFT dimensions: (  30,  30,  50)

     Estimated max dynamical RAM per process >      30.07 MB

     Estimated total dynamical RAM >     240.53 MB

     Check: negative core charge=   -0.000002

     Initial potential from superposition of free atoms

     starting charge      35.9925, renormalised to      36.0000
     Starting wfcs are   26 randomized atomic wfcs

     total cpu time spent up to now is        1.7 secs

     Self-consistent Calculation

     iteration #  1     ecut=    50.00 Ry     beta= 0.30
     Davidson diagonalization with overlap
     ethr =  1.00E-02,  avg # of iterations =  1.4

     total cpu time spent up to now is        2.6 secs

     total energy              =    -361.41592171 Ry
     estimated scf accuracy    <       0.77575911 Ry

     iteration #  2     ecut=    50.00 Ry     beta= 0.30
     Davidson diagonalization with overlap
     ethr =  2.15E-03,  avg # of iterations =  2.1

     total cpu time spent up to now is        3.7 secs

     total energy              =    -361.53635228 Ry
     estimated scf accuracy    <       0.08686467 Ry

     iteration #  3     ecut=    50.00 Ry     beta= 0.30
     Davidson diagonalization with overlap
     ethr =  2.41E-04,  avg # of iterations =  7.1

     total cpu time spent up to now is        5.5 secs

     total energy              =    -361.54965034 Ry
     estimated scf accuracy    <       0.09947489 Ry

     iteration #  4     ecut=    50.00 Ry     beta= 0.30
     Davidson diagonalization with overlap
     ethr =  2.41E-04,  avg # of iterations =  9.2

     total cpu time spent up to now is        7.8 secs

     total energy              =    -361.62537645 Ry
     estimated scf accuracy    <       0.38802029 Ry

     iteration #  5     ecut=    50.00 Ry     beta= 0.30
     Davidson diagonalization with overlap
     ethr =  2.41E-04,  avg # of iterations =  2.0

     total cpu time spent up to now is        8.8 secs

     total energy              =    -361.47176988 Ry
     estimated scf accuracy    <       0.24184097 Ry

     iteration #  6     ecut=    50.00 Ry     beta= 0.30
     Davidson diagonalization with overlap
     ethr =  2.41E-04,  avg # of iterations =  8.0

     total cpu time spent up to now is       10.6 secs

     total energy              =    -361.60340476 Ry
     estimated scf accuracy    <       0.24515064 Ry

     iteration #  7     ecut=    50.00 Ry     beta= 0.30
     Davidson diagonalization with overlap
     ethr =  2.41E-04,  avg # of iterations =  2.0

     total cpu time spent up to now is       11.6 secs

     total energy              =    -361.59616393 Ry
     estimated scf accuracy    <       0.12788055 Ry

     iteration #  8     ecut=    50.00 Ry     beta= 0.30
     Davidson diagonalization with overlap
     ethr =  2.41E-04,  avg # of iterations =  2.0

     total cpu time spent up to now is       12.6 secs

     total energy              =    -361.60098102 Ry
     estimated scf accuracy    <       0.07146108 Ry

     iteration #  9     ecut=    50.00 Ry     beta= 0.30
     Davidson diagonalization with overlap
     ethr =  1.99E-04,  avg # of iterations =  1.5

     total cpu time spent up to now is       13.6 secs

     total energy              =    -361.60283512 Ry
     estimated scf accuracy    <       0.05728374 Ry

     iteration # 10     ecut=    50.00 Ry     beta= 0.30
     Davidson diagonalization with overlap
     ethr =  1.59E-04,  avg # of iterations =  1.4

     total cpu time spent up to now is       14.5 secs

     total energy              =    -361.59569674 Ry
     estimated scf accuracy    <       0.04434950 Ry

     iteration # 11     ecut=    50.00 Ry     beta= 0.30
     Davidson diagonalization with overlap
     ethr =  1.23E-04,  avg # of iterations =  2.2

     total cpu time spent up to now is       15.4 secs

     total energy              =    -361.59635757 Ry
     estimated scf accuracy    <       0.02201454 Ry

     iteration # 12     ecut=    50.00 Ry     beta= 0.30
     Davidson diagonalization with overlap
     ethr =  6.12E-05,  avg # of iterations =  3.5

     total cpu time spent up to now is       16.5 secs

     total energy              =    -361.59805236 Ry
     estimated scf accuracy    <       0.01193996 Ry

     iteration # 13     ecut=    50.00 Ry     beta= 0.30
     Davidson diagonalization with overlap
     ethr =  3.32E-05,  avg # of iterations =  3.8

     total cpu time spent up to now is       17.6 secs

     total energy              =    -361.59832875 Ry
     estimated scf accuracy    <       0.00432321 Ry

     iteration # 14     ecut=    50.00 Ry     beta= 0.30
     Davidson diagonalization with overlap
     ethr =  1.20E-05,  avg # of iterations =  5.2

     total cpu time spent up to now is       19.0 secs

     total energy              =    -361.60052289 Ry
     estimated scf accuracy    <       0.00014838 Ry

     iteration # 15     ecut=    50.00 Ry     beta= 0.30
     Davidson diagonalization with overlap
     ethr =  4.12E-07,  avg # of iterations =  7.5

     total cpu time spent up to now is       20.7 secs

     total energy              =    -361.60068474 Ry
     estimated scf accuracy    <       0.00049448 Ry

     iteration # 16     ecut=    50.00 Ry     beta= 0.30
     Davidson diagonalization with overlap
     ethr =  4.12E-07,  avg # of iterations =  1.0

     total cpu time spent up to now is       21.6 secs

     total energy              =    -361.60032455 Ry
     estimated scf accuracy    <       0.00049633 Ry

     iteration # 17     ecut=    50.00 Ry     beta= 0.30
     Davidson diagonalization with overlap
     ethr =  4.12E-07,  avg # of iterations =  9.7

     total cpu time spent up to now is       23.9 secs

     total energy              =    -361.60109351 Ry
     estimated scf accuracy    <       0.00073700 Ry

     iteration # 18     ecut=    50.00 Ry     beta= 0.30
     Davidson diagonalization with overlap
     ethr =  4.12E-07,  avg # of iterations =  6.0

     total cpu time spent up to now is       25.5 secs

     total energy              =    -361.60149236 Ry
     estimated scf accuracy    <       0.00263411 Ry

     iteration # 19     ecut=    50.00 Ry     beta= 0.30
     Davidson diagonalization with overlap
     ethr =  4.12E-07,  avg # of iterations =  3.2

     total cpu time spent up to now is       26.6 secs

     total energy              =    -361.60059805 Ry
     estimated scf accuracy    <       0.00340743 Ry

     iteration # 20     ecut=    50.00 Ry     beta= 0.30
     Davidson diagonalization with overlap
     ethr =  4.12E-07,  avg # of iterations =  5.6

     total cpu time spent up to now is       28.2 secs

     total energy              =    -361.60025394 Ry
     estimated scf accuracy    <       0.00085738 Ry

     iteration # 21     ecut=    50.00 Ry     beta= 0.30
     Davidson diagonalization with overlap
     ethr =  4.12E-07,  avg # of iterations =  9.4

     total cpu time spent up to now is       30.4 secs

     total energy              =    -361.60052979 Ry
     estimated scf accuracy    <       0.00026084 Ry

     iteration # 22     ecut=    50.00 Ry     beta= 0.30
     Davidson diagonalization with overlap
     ethr =  4.12E-07,  avg # of iterations =  2.1

     total cpu time spent up to now is       31.4 secs

     total energy              =    -361.60054310 Ry
     estimated scf accuracy    <       0.00008235 Ry

     iteration # 23     ecut=    50.00 Ry     beta= 0.30
     Davidson diagonalization with overlap
     ethr =  2.29E-07,  avg # of iterations =  3.1

     total cpu time spent up to now is       32.5 secs

     total energy              =    -361.60054839 Ry
     estimated scf accuracy    <       0.00004164 Ry

     iteration # 24     ecut=    50.00 Ry     beta= 0.30
     Davidson diagonalization with overlap
     ethr =  1.16E-07,  avg # of iterations =  5.1

     total cpu time spent up to now is       33.8 secs

     total energy              =    -361.60055847 Ry
     estimated scf accuracy    <       0.00000289 Ry

     iteration # 25     ecut=    50.00 Ry     beta= 0.30
     Davidson diagonalization with overlap
     ethr =  8.02E-09,  avg # of iterations =  7.7

     total cpu time spent up to now is       35.6 secs

     total energy              =    -361.60056137 Ry
     estimated scf accuracy    <       0.00000412 Ry

     iteration # 26     ecut=    50.00 Ry     beta= 0.30
     Davidson diagonalization with overlap
     ethr =  8.02E-09,  avg # of iterations =  2.0

     total cpu time spent up to now is       36.6 secs

     total energy              =    -361.60056117 Ry
     estimated scf accuracy    <       0.00000112 Ry

     iteration # 27     ecut=    50.00 Ry     beta= 0.30
     Davidson diagonalization with overlap
     ethr =  3.10E-09,  avg # of iterations =  6.2

     total cpu time spent up to now is       38.2 secs

     total energy              =    -361.60056192 Ry
     estimated scf accuracy    <       0.00000053 Ry

     iteration # 28     ecut=    50.00 Ry     beta= 0.30
     Davidson diagonalization with overlap
     ethr =  1.49E-09,  avg # of iterations =  2.0

     total cpu time spent up to now is       39.2 secs

     total energy              =    -361.60056185 Ry
     estimated scf accuracy    <       0.00000018 Ry

     iteration # 29     ecut=    50.00 Ry     beta= 0.30
     Davidson diagonalization with overlap
     ethr =  5.07E-10,  avg # of iterations =  6.1

     total cpu time spent up to now is       40.9 secs

     total energy              =    -361.60056195 Ry
     estimated scf accuracy    <       0.00000012 Ry

     iteration # 30     ecut=    50.00 Ry     beta= 0.30
     Davidson diagonalization with overlap
     ethr =  3.47E-10,  avg # of iterations =  2.2

     total cpu time spent up to now is       41.9 secs

     total energy              =    -361.60056196 Ry
     estimated scf accuracy    <       0.00000002 Ry

     iteration # 31     ecut=    50.00 Ry     beta= 0.30
     Davidson diagonalization with overlap
     ethr =  6.04E-11,  avg # of iterations =  5.3

     total cpu time spent up to now is       43.4 secs

     End of self-consistent calculation

          k = 0.0000 0.0000 0.0000 (  2311 PWs)   bands (ev):

   -12.0902 -11.7063  -0.3606  -0.3606  -0.3085  -0.2554  -0.2554   0.0611
     0.3843   0.3843   0.4837   0.4837   0.9468   4.3032   4.3032   4.5171
     4.7556   4.7556

          k = 0.0000 0.0000 0.0956 (  2317 PWs)   bands (ev):

   -12.0655 -11.7330  -0.3553  -0.3553  -0.3200  -0.2645  -0.2645  -0.0658
     0.3922   0.3922   0.4787   0.4787   1.2117   3.9467   4.3337   4.3337
     4.7255   4.7255

          k = 0.0000 0.0000 0.1912 (  2311 PWs)   bands (ev):

   -11.9972 -11.8053  -0.3398  -0.3398  -0.3376  -0.2875  -0.2875  -0.2355
     0.4133   0.4133   0.4635   0.4635   1.7741   3.1873   4.4170   4.4170
     4.6432   4.6432

          k = 0.0000 0.0000-0.2868 (  2304 PWs)   bands (ev):

   -11.9023 -11.9023  -0.3231  -0.3231  -0.3154  -0.3154  -0.3154  -0.3154
     0.4398   0.4398   0.4398   0.4398   2.4531   2.4531   4.5304   4.5304
     4.5304   4.5304

          k = 0.0000 0.1925 0.0000 (  2321 PWs)   bands (ev):

   -11.9844 -11.6465  -0.4214  -0.2944  -0.2748  -0.2088  -0.1648   0.1335
     0.3444   0.3833   0.4880   0.5748   1.0528   3.3717   3.6606   4.0390
     4.4406   4.5890

          k = 0.0000 0.1925 0.0956 (  2318 PWs)   bands (ev):

   -11.9623 -11.6697  -0.4265  -0.2907  -0.2874  -0.2146  -0.1753   0.0244
     0.3587   0.3911   0.4819   0.5265   1.3328   3.3044   3.6194   4.0763
     4.3522   4.5525

          k = 0.0000 0.1925 0.1912 (  2313 PWs)   bands (ev):

   -11.9018 -11.7328  -0.4318  -0.3464  -0.2670  -0.2151  -0.2027  -0.1195
     0.3936   0.4120   0.4643   0.4799   1.8690   2.9621   3.7048   4.1460
     4.1777   4.4525

          k = 0.0000 0.1925-0.2868 (  2310 PWs)   bands (ev):

   -11.8179 -11.8179  -0.4095  -0.4095  -0.2366  -0.2366  -0.1888  -0.1888
     0.4368   0.4368   0.4389   0.4389   2.4455   2.4455   3.9065   3.9065
     4.3155   4.3155

          k = 0.0000 0.3849 0.0000 (  2322 PWs)   bands (ev):

   -11.7531 -11.5362  -0.4512  -0.2576  -0.1878   0.0285   0.0361   0.2241
     0.3277   0.4338   0.5046   0.6551   1.4373   1.9838   2.6556   3.5058
     4.0597   4.2373

          k = 0.0000 0.3849 0.0956 (  2326 PWs)   bands (ev):

   -11.7385 -11.5506  -0.4574  -0.2862  -0.1747   0.0192   0.0213   0.1668
     0.3436   0.4378   0.4989   0.6055   1.5386   2.0475   2.6985   3.5562
     4.0272   4.1891

          k = 0.0000 0.3849 0.1912 (  2325 PWs)   bands (ev):

   -11.6986 -11.5900  -0.4615  -0.3603  -0.1373  -0.0255   0.0101   0.0688
     0.3953   0.4495   0.4842   0.5316   1.7112   2.0355   2.9969   3.6925
     3.8519   4.0572

          k = 0.0000 0.3849-0.2868 (  2328 PWs)   bands (ev):

   -11.6442 -11.6442  -0.4325  -0.4325  -0.0833  -0.0833   0.0185   0.0185
     0.4617   0.4617   0.4661   0.4661   1.8873   1.8873   3.4704   3.4704
     3.8759   3.8759

          k = 0.0000-0.5774 0.0000 (  2312 PWs)   bands (ev):

   -11.6145 -11.4987  -0.3960  -0.2001  -0.1536   0.1348   0.1414   0.3193
     0.4797   0.4973   0.5270   0.5870   1.1505   1.5996   2.5071   3.2250
     3.6857   4.0512

          k = 0.0000-0.5774 0.0956 (  2324 PWs)   bands (ev):

   -11.6063 -11.5060  -0.4077  -0.2472  -0.1367   0.1190   0.1397   0.3039
     0.4879   0.4982   0.5231   0.5853   1.1429   1.5344   2.6913   3.2830
     3.7240   3.9973

          k = 0.0000-0.5774 0.1912 (  2332 PWs)   bands (ev):

   -11.5841 -11.5262  -0.4248  -0.3415  -0.0879   0.0594   0.1586   0.2524
     0.5014   0.5147   0.5215   0.5774   1.1671   1.3929   3.1041   3.4386
     3.7205   3.8497

          k = 0.0000-0.5774-0.2868 (  2356 PWs)   bands (ev):

   -11.5547 -11.5547  -0.4099  -0.4099  -0.0172  -0.0172   0.1965   0.1965
     0.5067   0.5067   0.5566   0.5566   1.2554   1.2554   3.5076   3.5076
     3.6460   3.6460

          k = 0.1667 0.2887 0.0000 (  2325 PWs)   bands (ev):

   -11.8150 -11.5616  -0.3857  -0.2954  -0.1712  -0.1423   0.0059   0.2113
     0.3075   0.4021   0.4981   0.6501   1.3528   2.6135   2.7079   3.4878
     4.1758   4.2130

          k = 0.1667 0.2887 0.0956 (  2321 PWs)   bands (ev):

   -11.7981 -11.5786  -0.3950  -0.2999  -0.1737  -0.1529  -0.0059   0.1220
     0.3305   0.4147   0.4923   0.5961   1.5474   2.5595   2.8111   3.5124
     4.1248   4.1606

          k = 0.1667 0.2887 0.1912 (  2310 PWs)   bands (ev):

   -11.7519 -11.6251  -0.4072  -0.3334  -0.1735  -0.1681  -0.0336  -0.0031
     0.3862   0.4342   0.4772   0.5247   1.8856   2.4051   3.1154   3.6023
     3.9605   3.9889

          k = 0.1667 0.2887-0.2868 (  2306 PWs)   bands (ev):

   -11.6886 -11.6886  -0.3880  -0.3880  -0.1693  -0.1693  -0.0485  -0.0485
     0.4467   0.4467   0.4644   0.4644   2.1771   2.1771   3.5251   3.5251
     3.8254   3.8254

          k = 0.1667 0.4811 0.0000 (  2333 PWs)   bands (ev):

   -11.6189 -11.4969  -0.3444  -0.1441  -0.0827   0.1046   0.1648   0.2235
     0.3584   0.4343   0.5497   0.6927   1.3525   1.7693   2.4995   2.8150
     3.6551   3.7998

          k = 0.1667 0.4811 0.0956 (  2326 PWs)   bands (ev):

   -11.6103 -11.5046  -0.3419  -0.1671  -0.1022   0.0998   0.1391   0.1874
     0.3704   0.4564   0.5505   0.6755   1.3512   1.7398   2.6187   2.9219
     3.6127   3.8086

          k = 0.1667 0.4811 0.1912 (  2328 PWs)   bands (ev):

   -11.5870 -11.5260  -0.3365  -0.2421  -0.0969   0.0488   0.1028   0.1375
     0.4207   0.4731   0.5581   0.6321   1.3977   1.6349   2.8705   3.2061
     3.4643   3.7949

          k = 0.1667 0.4811-0.2868 (  2320 PWs)   bands (ev):

   -11.5560 -11.5560  -0.3102  -0.3102  -0.0396  -0.0396   0.1104   0.1104
     0.4629   0.4629   0.5853   0.5853   1.5035   1.5035   3.1402   3.1402
     3.6174   3.6174

          k = 0.3333 0.5774 0.0000 (  2343 PWs)   bands (ev):

   -11.5148 -11.5148  -0.3424   0.0331   0.0331   0.1325   0.3442   0.3442
     0.3503   0.4001   0.6026   0.6026   1.5136   1.5136   1.8620   3.2153
     3.2385   3.2385

          k = 0.3333 0.5774 0.0956 (  2334 PWs)   bands (ev):

   -11.5142 -11.5142  -0.3202  -0.0012  -0.0012   0.0830   0.3233   0.3233
     0.3551   0.3971   0.6369   0.6369   1.4756   1.4756   1.9610   3.1242
     3.3467   3.3467

          k = 0.3333 0.5774 0.1912 (  2337 PWs)   bands (ev):

   -11.5129 -11.5129  -0.2556  -0.0697  -0.0697  -0.0304   0.2980   0.2980
     0.3653   0.3888   0.6899   0.6899   1.4102   1.4102   2.2173   2.8797
     3.5544   3.5544

          k = 0.3333 0.5774-0.2868 (  2334 PWs)   bands (ev):

   -11.5123 -11.5123  -0.1541  -0.1541  -0.1030  -0.1030   0.2898   0.2898
     0.3773   0.3773   0.7123   0.7123   1.3813   1.3813   2.5506   2.5506
     3.6554   3.6554

     highest occupied level (ev):     4.7556

!    total energy              =    -361.60056197 Ry
     estimated scf accuracy    <          7.7E-11 Ry

     The total energy is the sum of the following terms:
     one-electron contribution =    -173.49778349 Ry
     hartree contribution      =     125.18785443 Ry
     xc contribution           =    -109.24215770 Ry
     ewald contribution        =    -204.04847521 Ry

     convergence has been achieved in  31 iterations

     Forces acting on atoms (cartesian axes, Ry/au):

     atom    1 type  1   force =    -0.00000000    0.00000000   -0.00144209
     atom    2 type  1   force =     0.00000000   -0.00000000   -0.00144209
     atom    3 type  2   force =     0.00000000    0.00000000    0.00144209
     atom    4 type  2   force =     0.00000000   -0.00000000    0.00144209
     The non-local contrib.  to forces
     atom    1 type  1   force =     0.00000000    0.00000000    0.19007434
     atom    2 type  1   force =     0.00000000   -0.00000000    0.19007434
     atom    3 type  2   force =     0.00000000   -0.00000000    0.20644772
     atom    4 type  2   force =     0.00000000    0.00000000    0.20644772
     The ionic contribution  to forces
     atom    1 type  1   force =    -0.00000000    0.00000000    1.48280152
     atom    2 type  1   force =     0.00000000   -0.00000000    1.48280152
     atom    3 type  2   force =    -0.00000000    0.00000000   -1.48280152
     atom    4 type  2   force =     0.00000000   -0.00000000   -1.48280152
     The local contribution  to forces
     atom    1 type  1   force =    -0.00000002    0.00000001   -1.66248675
     atom    2 type  1   force =     0.00000007   -0.00000004   -1.66248674
     atom    3 type  2   force =    -0.00000001    0.00000000    1.27963196
     atom    4 type  2   force =     0.00000002   -0.00000001    1.27963195
     The core correction contribution to forces
     atom    1 type  1   force =    -0.00000000    0.00000000   -0.01183469
     atom    2 type  1   force =     0.00000001   -0.00000001   -0.01183469
     atom    3 type  2   force =     0.00000000   -0.00000000   -0.00183580
     atom    4 type  2   force =    -0.00000000    0.00000000   -0.00183580
     The Hubbard contrib.    to forces
     atom    1 type  1   force =     0.00000000    0.00000000    0.00000000
     atom    2 type  1   force =     0.00000000    0.00000000    0.00000000
     atom    3 type  2   force =     0.00000000    0.00000000    0.00000000
     atom    4 type  2   force =     0.00000000    0.00000000    0.00000000
     The SCF correction term to forces
     atom    1 type  1   force =     0.00000000   -0.00000000    0.00000483
     atom    2 type  1   force =    -0.00000000    0.00000000    0.00000483
     atom    3 type  2   force =     0.00000000   -0.00000000    0.00000109
     atom    4 type  2   force =    -0.00000000    0.00000000    0.00000109

     Total force =     0.002884     Total SCF correction =     0.000007


     Computing stress (Cartesian axis) and pressure

          total   stress  (Ry/bohr**3)                   (kbar)     P=     -146.49
  -0.00082826   0.00000000  -0.00000000         -121.84        0.00       -0.00
   0.00000000  -0.00082826  -0.00000000            0.00     -121.84       -0.00
  -0.00000000  -0.00000000  -0.00133100           -0.00       -0.00     -195.80


     Writing all to output data dir ./ZnO_ANN.save/

     init_run     :      1.97s CPU      1.33s WALL (       1 calls)
     electrons    :    111.29s CPU     41.72s WALL (       1 calls)
     forces       :      0.85s CPU      0.42s WALL (       1 calls)
     stress       :      2.71s CPU      1.33s WALL (       1 calls)

     Called by init_run:
     wfcinit      :      1.09s CPU      0.44s WALL (       1 calls)
     potinit      :      0.25s CPU      0.26s WALL (       1 calls)
     hinit0       :      0.48s CPU      0.49s WALL (       1 calls)

     Called by electrons:
     c_bands      :     89.17s CPU     33.02s WALL (      31 calls)
     sum_band     :     16.21s CPU      6.29s WALL (      31 calls)
     v_of_rho     :      1.40s CPU      0.60s WALL (      32 calls)
     newd         :      4.23s CPU      1.71s WALL (      32 calls)
     mix_rho      :      0.22s CPU      0.10s WALL (      31 calls)

     Called by c_bands:
     init_us_2    :      1.57s CPU      0.55s WALL (    1820 calls)
     init_us_2:cp :      1.54s CPU      0.54s WALL (    1820 calls)
     cegterg      :     85.80s CPU     31.71s WALL (     868 calls)

     Called by *egterg:
     cdiaghg      :     13.24s CPU      4.36s WALL (    4664 calls)
     h_psi        :     59.24s CPU     24.12s WALL (    4692 calls)
     s_psi        :      1.36s CPU      0.40s WALL (    4692 calls)
     g_psi        :      0.47s CPU      0.12s WALL (    3796 calls)

     Called by h_psi:
     h_psi:calbec :      1.95s CPU      0.69s WALL (    4692 calls)
     vloc_psi     :     55.40s CPU     22.82s WALL (    4692 calls)
     add_vuspsi   :      1.38s CPU      0.45s WALL (    4692 calls)

     General routines
     calbec       :      2.55s CPU      0.88s WALL (    5700 calls)
     fft          :      1.01s CPU      0.56s WALL (     439 calls)
     ffts         :      0.15s CPU      0.12s WALL (      63 calls)
     fftw         :     55.64s CPU     22.99s WALL (  115494 calls)
     interpolate  :      0.18s CPU      0.14s WALL (      32 calls)

     Parallel routines

     PWSCF        :   1m57.33s CPU     45.30s WALL


   This run was terminated on:  18: 9:13  13Jun2025            

=------------------------------------------------------------------------------=
   JOB DONE.
=------------------------------------------------------------------------------=
Note: The following floating-point exceptions are signalling: IEEE_INVALID_FLAG
