Authorization required, but no authorization protocol specified

Authorization required, but no authorization protocol specified

Authorization required, but no authorization protocol specified

Authorization required, but no authorization protocol specified

Authorization required, but no authorization protocol specified

Authorization required, but no authorization protocol specified

Authorization required, but no authorization protocol specified

Authorization required, but no authorization protocol specified

Authorization required, but no authorization protocol specified

Authorization required, but no authorization protocol specified


     Program PWSCF v.7.2 starts on 13Jun2025 at 17: 3:35 

     This program is part of the open-source Quantum ESPRESSO suite
     for quantum simulation of materials; please cite
         "P. Giannozzi et al., J. Phys.:Condens. Matter 21 395502 (2009);
         "P. Giannozzi et al., J. Phys.:Condens. Matter 29 465901 (2017);
         "P. Giannozzi et al., J. Chem. Phys. 152 154105 (2020);
          URL http://www.quantum-espresso.org", 
     in publications or presentations arising from this work. More details at
     http://www.quantum-espresso.org/quote

     Parallel version (MPI), running on     8 processors

     MPI processes distributed on     1 nodes
     120709 MiB available memory on the printing compute node when the environment starts

     Reading input from /home/jvc/QEspresso7.2/ZnO_database_python/SCFs.in/scf-6.12-1.71.in

     Current dimensions of program PWSCF are:
     Max number of different atomic species (ntypx) = 10
     Max number of k-points (npk) =  40000
     Max angular momentum in pseudopotentials (lmaxx) =  4
     file Zn.upf: wavefunction(s)  3D renormalized

     R & G space division:  proc/nbgrp/npool/nimage =       8
     Subspace diagonalization in iterative solution of the eigenvalue problem:
     a serial algorithm will be used


     Parallelization info
     --------------------
     sticks:   dense  smooth     PW     G-vecs:    dense   smooth      PW
     Min         129      63     20                 5743     2025     342
     Max         130      64     22                 5748     2032     345
     Sum        1039     511    163                45961    16241    2745

     Using Slab Decomposition



     bravais-lattice index     =            4
     lattice parameter (alat)  =       6.1170  a.u.
     unit-cell volume          =     339.2024 (a.u.)^3
     number of atoms/cell      =            4
     number of atomic types    =            2
     number of electrons       =        36.00
     number of Kohn-Sham states=           18
     kinetic-energy cutoff     =      50.0000  Ry
     charge density cutoff     =     400.0000  Ry
     scf convergence threshold =      1.0E-08
     mixing beta               =       0.3000
     number of iterations used =            8  plain     mixing
     Exchange-correlation= PBE
                           (   1   4   3   4   0   0   0)

     celldm(1)=   6.117033  celldm(2)=   0.000000  celldm(3)=   1.711220
     celldm(4)=   0.000000  celldm(5)=   0.000000  celldm(6)=   0.000000

     crystal axes: (cart. coord. in units of alat)
               a(1) = (   1.000000   0.000000   0.000000 )  
               a(2) = (  -0.500000   0.866025   0.000000 )  
               a(3) = (   0.000000   0.000000   1.711220 )  

     reciprocal axes: (cart. coord. in units 2 pi/alat)
               b(1) = (  1.000000  0.577350 -0.000000 )  
               b(2) = (  0.000000  1.154701  0.000000 )  
               b(3) = (  0.000000 -0.000000  0.584378 )  


     PseudoPot. # 1 for Zn read from file:
     /home/jvc/QEspresso7.2/ZnO_database/pseudos/Zn.upf
     MD5 check sum: 7f56cabf9682ed8c977c2f7d0c5985c5
     Pseudo is Ultrasoft + core correction, Zval = 12.0
     Generated using &quot;atomic&quot; code by A. Dal Corso  v.6.2.2
     Using radial grid of 1201 points,  6 beta functions with: 
                l(1) =   0
                l(2) =   0
                l(3) =   1
                l(4) =   1
                l(5) =   2
                l(6) =   2
     Q(r) pseudized with 0 coefficients 


     PseudoPot. # 2 for O  read from file:
     /home/jvc/QEspresso7.2/ZnO_database/pseudos/O.upf
     MD5 check sum: 91400c9766925bcf19f520983a725ff0
     Pseudo is Ultrasoft + core correction, Zval =  6.0
     Generated using &quot;atomic&quot; code by A. Dal Corso  v.6.3MaX
     Using radial grid of 1095 points,  4 beta functions with: 
                l(1) =   0
                l(2) =   0
                l(3) =   1
                l(4) =   1
     Q(r) pseudized with 0 coefficients 


     atomic species   valence    mass     pseudopotential
        Zn            12.00    63.38000     Zn( 1.00)
        O              6.00    15.99900     O ( 1.00)

     12 Sym. Ops. (no inversion) found ( 6 have fractional translation)



   Cartesian axes

     site n.     atom                  positions (alat units)
         1           Zn  tau(   1) = (   0.5000000   0.2886751   0.8566941  )
         2           Zn  tau(   2) = (  -0.0000000   0.5773503   0.0010842  )
         3           O   tau(   3) = (   0.5000000   0.2886751   1.5053197  )
         4           O   tau(   4) = (  -0.0000000   0.5773503   0.6497098  )

     number of k points=    28
                       cart. coord. in units 2pi/alat
        k(    1) = (   0.0000000   0.0000000   0.0000000), wk =   0.0092593
        k(    2) = (   0.0000000   0.0000000   0.0973964), wk =   0.0185185
        k(    3) = (   0.0000000   0.0000000   0.1947928), wk =   0.0185185
        k(    4) = (   0.0000000   0.0000000  -0.2921892), wk =   0.0092593
        k(    5) = (   0.0000000   0.1924501   0.0000000), wk =   0.0555556
        k(    6) = (   0.0000000   0.1924501   0.0973964), wk =   0.1111111
        k(    7) = (   0.0000000   0.1924501   0.1947928), wk =   0.1111111
        k(    8) = (   0.0000000   0.1924501  -0.2921892), wk =   0.0555556
        k(    9) = (   0.0000000   0.3849002   0.0000000), wk =   0.0555556
        k(   10) = (   0.0000000   0.3849002   0.0973964), wk =   0.1111111
        k(   11) = (   0.0000000   0.3849002   0.1947928), wk =   0.1111111
        k(   12) = (   0.0000000   0.3849002  -0.2921892), wk =   0.0555556
        k(   13) = (   0.0000000  -0.5773503   0.0000000), wk =   0.0277778
        k(   14) = (   0.0000000  -0.5773503   0.0973964), wk =   0.0555556
        k(   15) = (   0.0000000  -0.5773503   0.1947928), wk =   0.0555556
        k(   16) = (   0.0000000  -0.5773503  -0.2921892), wk =   0.0277778
        k(   17) = (   0.1666667   0.2886751   0.0000000), wk =   0.0555556
        k(   18) = (   0.1666667   0.2886751   0.0973964), wk =   0.1111111
        k(   19) = (   0.1666667   0.2886751   0.1947928), wk =   0.1111111
        k(   20) = (   0.1666667   0.2886751  -0.2921892), wk =   0.0555556
        k(   21) = (   0.1666667   0.4811252   0.0000000), wk =   0.1111111
        k(   22) = (   0.1666667   0.4811252   0.0973964), wk =   0.2222222
        k(   23) = (   0.1666667   0.4811252   0.1947928), wk =   0.2222222
        k(   24) = (   0.1666667   0.4811252  -0.2921892), wk =   0.1111111
        k(   25) = (   0.3333333   0.5773503   0.0000000), wk =   0.0185185
        k(   26) = (   0.3333333   0.5773503   0.0973964), wk =   0.0370370
        k(   27) = (   0.3333333   0.5773503   0.1947928), wk =   0.0370370
        k(   28) = (   0.3333333   0.5773503  -0.2921892), wk =   0.0185185

     Dense  grid:    45961 G-vectors     FFT dimensions: (  40,  40,  72)

     Smooth grid:    16241 G-vectors     FFT dimensions: (  27,  27,  48)

     Estimated max dynamical RAM per process >      26.57 MB

     Estimated total dynamical RAM >     212.60 MB

     Check: negative core charge=   -0.000002

     Initial potential from superposition of free atoms

     starting charge      35.9925, renormalised to      36.0000
     Starting wfcs are   26 randomized atomic wfcs

     total cpu time spent up to now is        1.6 secs

     Self-consistent Calculation

     iteration #  1     ecut=    50.00 Ry     beta= 0.30
     Davidson diagonalization with overlap
     ethr =  1.00E-02,  avg # of iterations =  1.8

     total cpu time spent up to now is        2.4 secs

     total energy              =    -361.47084887 Ry
     estimated scf accuracy    <       0.70312579 Ry

     iteration #  2     ecut=    50.00 Ry     beta= 0.30
     Davidson diagonalization with overlap
     ethr =  1.95E-03,  avg # of iterations =  2.0

     total cpu time spent up to now is        3.4 secs

     total energy              =    -361.57395158 Ry
     estimated scf accuracy    <       0.08695035 Ry

     iteration #  3     ecut=    50.00 Ry     beta= 0.30
     Davidson diagonalization with overlap
     ethr =  2.42E-04,  avg # of iterations =  6.2

     total cpu time spent up to now is        5.1 secs

     total energy              =    -361.60293169 Ry
     estimated scf accuracy    <       0.06198169 Ry

     iteration #  4     ecut=    50.00 Ry     beta= 0.30
     Davidson diagonalization with overlap
     ethr =  1.72E-04,  avg # of iterations =  8.4

     total cpu time spent up to now is        7.1 secs

     total energy              =    -361.64278924 Ry
     estimated scf accuracy    <       0.24876821 Ry

     iteration #  5     ecut=    50.00 Ry     beta= 0.30
     Davidson diagonalization with overlap
     ethr =  1.72E-04,  avg # of iterations =  2.0

     total cpu time spent up to now is        7.9 secs

     total energy              =    -361.53000861 Ry
     estimated scf accuracy    <       0.14027898 Ry

     iteration #  6     ecut=    50.00 Ry     beta= 0.30
     Davidson diagonalization with overlap
     ethr =  1.72E-04,  avg # of iterations = 10.0

     total cpu time spent up to now is       10.1 secs

     total energy              =    -361.57222708 Ry
     estimated scf accuracy    <       0.82900400 Ry

     iteration #  7     ecut=    50.00 Ry     beta= 0.30
     Davidson diagonalization with overlap
     ethr =  1.72E-04,  avg # of iterations =  6.8

     total cpu time spent up to now is       11.8 secs

     total energy              =    -361.62993407 Ry
     estimated scf accuracy    <       0.07721143 Ry

     iteration #  8     ecut=    50.00 Ry     beta= 0.30
     Davidson diagonalization with overlap
     ethr =  1.72E-04,  avg # of iterations =  1.5

     total cpu time spent up to now is       12.6 secs

     total energy              =    -361.62806393 Ry
     estimated scf accuracy    <       0.04081842 Ry

     iteration #  9     ecut=    50.00 Ry     beta= 0.30
     Davidson diagonalization with overlap
     ethr =  1.13E-04,  avg # of iterations =  2.0

     total cpu time spent up to now is       13.5 secs

     total energy              =    -361.62568994 Ry
     estimated scf accuracy    <       0.02363975 Ry

     iteration # 10     ecut=    50.00 Ry     beta= 0.30
     Davidson diagonalization with overlap
     ethr =  6.57E-05,  avg # of iterations =  4.6

     total cpu time spent up to now is       14.6 secs

     total energy              =    -361.62837500 Ry
     estimated scf accuracy    <       0.00355856 Ry

     iteration # 11     ecut=    50.00 Ry     beta= 0.30
     Davidson diagonalization with overlap
     ethr =  9.88E-06,  avg # of iterations =  6.4

     total cpu time spent up to now is       16.2 secs

     total energy              =    -361.63275235 Ry
     estimated scf accuracy    <       0.00231038 Ry

     iteration # 12     ecut=    50.00 Ry     beta= 0.30
     Davidson diagonalization with overlap
     ethr =  6.42E-06,  avg # of iterations =  2.4

     total cpu time spent up to now is       17.0 secs

     total energy              =    -361.63163464 Ry
     estimated scf accuracy    <       0.00324904 Ry

     iteration # 13     ecut=    50.00 Ry     beta= 0.30
     Davidson diagonalization with overlap
     ethr =  6.42E-06,  avg # of iterations =  2.0

     total cpu time spent up to now is       17.9 secs

     total energy              =    -361.63195158 Ry
     estimated scf accuracy    <       0.00112849 Ry

     iteration # 14     ecut=    50.00 Ry     beta= 0.30
     Davidson diagonalization with overlap
     ethr =  3.13E-06,  avg # of iterations =  1.2

     total cpu time spent up to now is       18.7 secs

     total energy              =    -361.63200893 Ry
     estimated scf accuracy    <       0.00130392 Ry

     iteration # 15     ecut=    50.00 Ry     beta= 0.30
     Davidson diagonalization with overlap
     ethr =  3.13E-06,  avg # of iterations =  1.0

     total cpu time spent up to now is       19.5 secs

     total energy              =    -361.63230657 Ry
     estimated scf accuracy    <       0.00120972 Ry

     iteration # 16     ecut=    50.00 Ry     beta= 0.30
     Davidson diagonalization with overlap
     ethr =  3.13E-06,  avg # of iterations =  1.1

     total cpu time spent up to now is       20.3 secs

     total energy              =    -361.63199155 Ry
     estimated scf accuracy    <       0.00177783 Ry

     iteration # 17     ecut=    50.00 Ry     beta= 0.30
     Davidson diagonalization with overlap
     ethr =  3.13E-06,  avg # of iterations =  1.0

     total cpu time spent up to now is       21.1 secs

     total energy              =    -361.63157625 Ry
     estimated scf accuracy    <       0.00120562 Ry

     iteration # 18     ecut=    50.00 Ry     beta= 0.30
     Davidson diagonalization with overlap
     ethr =  3.13E-06,  avg # of iterations =  3.1

     total cpu time spent up to now is       22.1 secs

     total energy              =    -361.63170101 Ry
     estimated scf accuracy    <       0.00029589 Ry

     iteration # 19     ecut=    50.00 Ry     beta= 0.30
     Davidson diagonalization with overlap
     ethr =  8.22E-07,  avg # of iterations =  4.3

     total cpu time spent up to now is       23.3 secs

     total energy              =    -361.63183997 Ry
     estimated scf accuracy    <       0.00001490 Ry

     iteration # 20     ecut=    50.00 Ry     beta= 0.30
     Davidson diagonalization with overlap
     ethr =  4.14E-08,  avg # of iterations =  5.6

     total cpu time spent up to now is       24.7 secs

     total energy              =    -361.63184725 Ry
     estimated scf accuracy    <       0.00008233 Ry

     iteration # 21     ecut=    50.00 Ry     beta= 0.30
     Davidson diagonalization with overlap
     ethr =  4.14E-08,  avg # of iterations = 13.5

     total cpu time spent up to now is       27.8 secs

     total energy              =    -361.63222417 Ry
     estimated scf accuracy    <       0.00222526 Ry

     iteration # 22     ecut=    50.00 Ry     beta= 0.30
     Davidson diagonalization with overlap
     ethr =  4.14E-08,  avg # of iterations =  5.5

     total cpu time spent up to now is       29.2 secs

     total energy              =    -361.63192773 Ry
     estimated scf accuracy    <       0.00172478 Ry

     iteration # 23     ecut=    50.00 Ry     beta= 0.30
     Davidson diagonalization with overlap
     ethr =  4.14E-08,  avg # of iterations =  9.4

     total cpu time spent up to now is       31.4 secs

     total energy              =    -361.63201069 Ry
     estimated scf accuracy    <       0.00063931 Ry

     iteration # 24     ecut=    50.00 Ry     beta= 0.30
     Davidson diagonalization with overlap
     ethr =  4.14E-08,  avg # of iterations =  1.2

     total cpu time spent up to now is       32.2 secs

     total energy              =    -361.63204445 Ry
     estimated scf accuracy    <       0.00070249 Ry

     iteration # 25     ecut=    50.00 Ry     beta= 0.30
     Davidson diagonalization with overlap
     ethr =  4.14E-08,  avg # of iterations =  2.1

     total cpu time spent up to now is       33.1 secs

     total energy              =    -361.63176894 Ry
     estimated scf accuracy    <       0.00082596 Ry

     iteration # 26     ecut=    50.00 Ry     beta= 0.30
     Davidson diagonalization with overlap
     ethr =  4.14E-08,  avg # of iterations = 10.0

     total cpu time spent up to now is       35.5 secs

     total energy              =    -361.63183331 Ry
     estimated scf accuracy    <       0.00006998 Ry

     iteration # 27     ecut=    50.00 Ry     beta= 0.30
     Davidson diagonalization with overlap
     ethr =  4.14E-08,  avg # of iterations =  1.5

     total cpu time spent up to now is       36.3 secs

     total energy              =    -361.63182423 Ry
     estimated scf accuracy    <       0.00005351 Ry

     iteration # 28     ecut=    50.00 Ry     beta= 0.30
     Davidson diagonalization with overlap
     ethr =  4.14E-08,  avg # of iterations =  3.0

     total cpu time spent up to now is       37.3 secs

     total energy              =    -361.63181418 Ry
     estimated scf accuracy    <       0.00002066 Ry

     iteration # 29     ecut=    50.00 Ry     beta= 0.30
     Davidson diagonalization with overlap
     ethr =  4.14E-08,  avg # of iterations =  6.8

     total cpu time spent up to now is       39.1 secs

     total energy              =    -361.63182204 Ry
     estimated scf accuracy    <       0.00001330 Ry

     iteration # 30     ecut=    50.00 Ry     beta= 0.30
     Davidson diagonalization with overlap
     ethr =  3.69E-08,  avg # of iterations =  2.0

     total cpu time spent up to now is       40.0 secs

     total energy              =    -361.63182287 Ry
     estimated scf accuracy    <       0.00000207 Ry

     iteration # 31     ecut=    50.00 Ry     beta= 0.30
     Davidson diagonalization with overlap
     ethr =  5.74E-09,  avg # of iterations =  6.5

     total cpu time spent up to now is       41.6 secs

     total energy              =    -361.63182495 Ry
     estimated scf accuracy    <       0.00000110 Ry

     iteration # 32     ecut=    50.00 Ry     beta= 0.30
     Davidson diagonalization with overlap
     ethr =  3.05E-09,  avg # of iterations =  1.9

     total cpu time spent up to now is       42.4 secs

     total energy              =    -361.63182476 Ry
     estimated scf accuracy    <       0.00000038 Ry

     iteration # 33     ecut=    50.00 Ry     beta= 0.30
     Davidson diagonalization with overlap
     ethr =  1.05E-09,  avg # of iterations =  6.7

     total cpu time spent up to now is       44.1 secs

     total energy              =    -361.63182505 Ry
     estimated scf accuracy    <       0.00000052 Ry

     iteration # 34     ecut=    50.00 Ry     beta= 0.30
     Davidson diagonalization with overlap
     ethr =  1.05E-09,  avg # of iterations =  1.0

     total cpu time spent up to now is       44.9 secs

     total energy              =    -361.63182501 Ry
     estimated scf accuracy    <       0.00000025 Ry

     iteration # 35     ecut=    50.00 Ry     beta= 0.30
     Davidson diagonalization with overlap
     ethr =  6.94E-10,  avg # of iterations =  2.1

     total cpu time spent up to now is       45.8 secs

     total energy              =    -361.63182502 Ry
     estimated scf accuracy    <       0.00000006 Ry

     iteration # 36     ecut=    50.00 Ry     beta= 0.30
     Davidson diagonalization with overlap
     ethr =  1.72E-10,  avg # of iterations =  5.7

     total cpu time spent up to now is       47.1 secs

     End of self-consistent calculation

          k = 0.0000 0.0000 0.0000 (  2027 PWs)   bands (ev):

   -11.2028 -10.6461   0.9907   0.9907   1.0526   1.1090   1.1387   1.1387
     2.0748   2.0748   2.2242   2.2242   2.5593   5.9376   5.9376   6.3098
     6.5420   6.5420

          k = 0.0000 0.0000 0.0974 (  2009 PWs)   bands (ev):

   -11.1674 -10.6854   0.9976   0.9976   1.0207   1.0281   1.1255   1.1255
     2.0875   2.0875   2.2172   2.2172   2.8125   5.7422   5.9785   5.9785
     6.5020   6.5020

          k = 0.0000 0.0000 0.1948 (  1998 PWs)   bands (ev):

   -11.0693 -10.7912   0.9196   0.9490   1.0186   1.0186   1.0920   1.0920
     2.1200   2.1200   2.1952   2.1952   3.4065   4.9392   6.0899   6.0899
     6.3922   6.3922

          k = 0.0000 0.0000-0.2922 (  2004 PWs)   bands (ev):

   -10.9322 -10.9322   0.8958   0.8958   1.0522   1.0522   1.0522   1.0522
     2.1602   2.1602   2.1602   2.1602   4.1460   4.1460   6.2415   6.2415
     6.2415   6.2415

          k = 0.0000 0.1925 0.0000 (  2014 PWs)   bands (ev):

   -11.0630 -10.5719   0.8621   1.0735   1.0901   1.1758   1.2543   1.3258
     2.0171   2.0723   2.2316   2.3391   2.5403   4.9837   5.4114   5.6163
     6.1733   6.3454

          k = 0.0000 0.1925 0.0974 (  2019 PWs)   bands (ev):

   -11.0313 -10.6060   0.8456   1.0272   1.0825   1.1575   1.2388   1.2673
     2.0388   2.0844   2.2226   2.2730   2.8679   4.9917   5.2897   5.6661
     6.0787   6.2973

          k = 0.0000 0.1925 0.1948 (  2015 PWs)   bands (ev):

   -10.9439 -10.6983   0.8109   0.8865   1.1096   1.1483   1.1993   1.2080
     2.0916   2.1166   2.1964   2.2159   3.4841   4.7128   5.3055   5.8013
     5.8363   6.1655

          k = 0.0000 0.1925-0.2922 (  2020 PWs)   bands (ev):

   -10.8223 -10.8223   0.8079   0.8079   1.1514   1.1514   1.1676   1.1676
     2.1557   2.1557   2.1578   2.1578   4.1449   4.1449   5.5441   5.5441
     5.9842   5.9842

          k = 0.0000 0.3849 0.0000 (  2028 PWs)   bands (ev):

   -10.7536 -10.4370   0.7381   1.0435   1.2098   1.4495   1.5223   1.7009
     1.9731   2.1385   2.2520   2.4481   2.7567   3.4493   4.2807   4.9552
     5.6905   5.9229

          k = 0.0000 0.3849 0.0974 (  2032 PWs)   bands (ev):

   -10.7322 -10.4579   0.7219   0.9793   1.2274   1.4334   1.4973   1.5997
     2.0063   2.1451   2.2426   2.3675   2.9995   3.5496   4.2687   5.0237
     5.6659   5.8603

          k = 0.0000 0.3849 0.1948 (  2027 PWs)   bands (ev):

   -10.6737 -10.5152   0.6986   0.8344   1.2774   1.4115   1.4326   1.4805
     2.0872   2.1638   2.2192   2.2769   3.2907   3.6467   4.4958   5.2071
     5.4797   5.6884

          k = 0.0000 0.3849-0.2922 (  2030 PWs)   bands (ev):

   -10.5942 -10.5942   0.7244   0.7244   1.3514   1.3514   1.4229   1.4229
     2.1831   2.1831   2.1904   2.1904   3.5085   3.5085   5.0354   5.0354
     5.4505   5.4505

          k = 0.0000-0.5774 0.0000 (  2014 PWs)   bands (ev):

   -10.5638 -10.3957   0.8263   0.9893   1.2556   1.6355   1.6769   1.7622
     2.1100   2.2257   2.2769   2.3550   2.7458   3.0149   3.8617   4.5926
     5.2462   5.6938

          k = 0.0000-0.5774 0.0974 (  2032 PWs)   bands (ev):

   -10.5516 -10.4060   0.7972   0.9253   1.2786   1.6278   1.6426   1.7173
     2.1589   2.2272   2.2697   2.3528   2.7284   2.9663   4.0869   4.6735
     5.2970   5.6239

          k = 0.0000-0.5774 0.1948 (  2038 PWs)   bands (ev):

   -10.5189 -10.4347   0.7420   0.8022   1.3450   1.5540   1.6171   1.6555
     2.2324   2.2423   2.2548   2.3413   2.7260   2.8645   4.5843   4.8866
     5.3062   5.4318

          k = 0.0000-0.5774-0.2922 (  2056 PWs)   bands (ev):

   -10.4758 -10.4758   0.7294   0.7294   1.4438   1.4438   1.6224   1.6224
     2.2413   2.2413   2.3070   2.3070   2.7732   2.7732   5.0633   5.0633
     5.1641   5.1641

          k = 0.1667 0.2887 0.0000 (  2029 PWs)   bands (ev):

   -10.8372 -10.4675   0.8414   1.0223   1.2238   1.2428   1.4750   1.6231
     1.9639   2.0918   2.2438   2.4546   2.6840   4.1531   4.3114   4.9862
     5.8689   5.8813

          k = 0.1667 0.2887 0.0974 (  2020 PWs)   bands (ev):

   -10.8126 -10.4923   0.8200   0.9876   1.2184   1.2249   1.4562   1.5099
     1.9975   2.1131   2.2345   2.3588   3.0099   4.2575   4.2650   5.0090
     5.8027   5.8299

          k = 0.1667 0.2887 0.1948 (  2024 PWs)   bands (ev):

   -10.7452 -10.5602   0.7815   0.8760   1.2128   1.2151   1.3987   1.4112
     2.0783   2.1439   2.2106   2.2699   3.4869   4.1067   4.5914   5.1241
     5.6026   5.6255

          k = 0.1667 0.2887-0.2922 (  2010 PWs)   bands (ev):

   -10.6528 -10.6528   0.7872   0.7872   1.2178   1.2178   1.3758   1.3758
     2.1658   2.1658   2.1885   2.1885   3.8501   3.8501   5.0774   5.0774
     5.4129   5.4129

          k = 0.1667 0.4811 0.0000 (  2027 PWs)   bands (ev):

   -10.5708 -10.3928   0.9161   1.1489   1.2719   1.5386   1.6819   1.7482
     2.0251   2.1205   2.2980   2.5045   2.7324   3.3006   3.8469   4.1661
     5.2188   5.4108

          k = 0.1667 0.4811 0.0974 (  2027 PWs)   bands (ev):

   -10.5580 -10.4037   0.9011   1.0890   1.2691   1.5223   1.6432   1.6742
     2.0430   2.1672   2.2973   2.4821   2.7711   3.2990   3.9666   4.3041
     5.1888   5.4026

          k = 0.1667 0.4811 0.1948 (  2030 PWs)   bands (ev):

   -10.5235 -10.4343   0.8671   0.9609   1.2915   1.4624   1.5688   1.6016
     2.1171   2.1947   2.3057   2.4145   2.8927   3.2013   4.2706   4.6573
     5.0172   5.3818

          k = 0.1667 0.4811-0.2922 (  2028 PWs)   bands (ev):

   -10.4779 -10.4779   0.8716   0.8716   1.3651   1.3651   1.5637   1.5637
     2.1789   2.1789   2.3439   2.3439   3.0484   3.0484   4.6052   4.6052
     5.1722   5.1722

          k = 0.3333 0.5774 0.0000 (  2031 PWs)   bands (ev):

   -10.4255 -10.4255   0.9663   1.4345   1.4345   1.5794   1.9761   1.9761
     1.9964   2.0940   2.1605   2.1605   2.9989   2.9989   3.0936   4.7014
     4.7014   4.7556

          k = 0.3333 0.5774 0.0974 (  2031 PWs)   bands (ev):

   -10.4242 -10.4242   0.9920   1.3662   1.3662   1.5053   1.8810   1.8810
     2.0088   2.0888   2.2972   2.2972   2.9590   2.9590   3.2212   4.6441
     4.8296   4.8296

          k = 0.3333 0.5774 0.1948 (  2025 PWs)   bands (ev):

   -10.4216 -10.4216   1.0682   1.2335   1.2335   1.3492   1.8132   1.8132
     2.0318   2.0751   2.4580   2.4580   2.8778   2.8778   3.5413   4.3465
     5.0785   5.0785

          k = 0.3333 0.5774-0.2922 (  2052 PWs)   bands (ev):

   -10.4204 -10.4204   1.1710   1.1710   1.1913   1.1913   1.7955   1.7955
     2.0545   2.0545   2.5300   2.5300   2.8298   2.8298   3.9477   3.9477
     5.2009   5.2009

     highest occupied level (ev):     6.5420

!    total energy              =    -361.63182505 Ry
     estimated scf accuracy    <          2.9E-09 Ry

     The total energy is the sum of the following terms:
     one-electron contribution =    -157.91525169 Ry
     hartree contribution      =     119.51078401 Ry
     xc contribution           =    -109.49200887 Ry
     ewald contribution        =    -213.73534850 Ry

     convergence has been achieved in  36 iterations

     Forces acting on atoms (cartesian axes, Ry/au):

     atom    1 type  1   force =     0.00000000    0.00000000    0.01113953
     atom    2 type  1   force =    -0.00000000   -0.00000000    0.01113953
     atom    3 type  2   force =    -0.00000000    0.00000000   -0.01113953
     atom    4 type  2   force =     0.00000000    0.00000000   -0.01113953
     The non-local contrib.  to forces
     atom    1 type  1   force =     0.00000000   -0.00000000    0.15533813
     atom    2 type  1   force =     0.00000000    0.00000000    0.15533813
     atom    3 type  2   force =    -0.00000000    0.00000000    0.15149917
     atom    4 type  2   force =     0.00000000    0.00000000    0.15149917
     The ionic contribution  to forces
     atom    1 type  1   force =    -0.00000000    0.00000000    1.24382531
     atom    2 type  1   force =     0.00000000   -0.00000000    1.24382531
     atom    3 type  2   force =    -0.00000000    0.00000000   -1.24382531
     atom    4 type  2   force =     0.00000000   -0.00000000   -1.24382531
     The local contribution  to forces
     atom    1 type  1   force =    -0.00000002    0.00000001   -1.37715882
     atom    2 type  1   force =     0.00000006   -0.00000004   -1.37715882
     atom    3 type  2   force =    -0.00000001    0.00000000    1.08243048
     atom    4 type  2   force =     0.00000002   -0.00000001    1.08243048
     The core correction contribution to forces
     atom    1 type  1   force =    -0.00000000    0.00000000   -0.01085193
     atom    2 type  1   force =     0.00000001   -0.00000000   -0.01085193
     atom    3 type  2   force =     0.00000000   -0.00000000   -0.00125380
     atom    4 type  2   force =    -0.00000000    0.00000000   -0.00125380
     The Hubbard contrib.    to forces
     atom    1 type  1   force =     0.00000000    0.00000000    0.00000000
     atom    2 type  1   force =     0.00000000    0.00000000    0.00000000
     atom    3 type  2   force =     0.00000000    0.00000000    0.00000000
     atom    4 type  2   force =     0.00000000    0.00000000    0.00000000
     The SCF correction term to forces
     atom    1 type  1   force =     0.00000000   -0.00000000   -0.00002002
     atom    2 type  1   force =    -0.00000000    0.00000000   -0.00002002
     atom    3 type  2   force =     0.00000000   -0.00000000    0.00000308
     atom    4 type  2   force =    -0.00000000    0.00000000    0.00000308

     Total force =     0.022279     Total SCF correction =     0.000029


     Computing stress (Cartesian axis) and pressure

          total   stress  (Ry/bohr**3)                   (kbar)     P=      -29.94
   0.00002957   0.00000000  -0.00000000            4.35        0.00       -0.00
   0.00000000   0.00002957  -0.00000000            0.00        4.35       -0.00
   0.00000000   0.00000000  -0.00066972            0.00        0.00      -98.52


     Writing all to output data dir ./ZnO_ANN.save/

     init_run     :      1.87s CPU      1.28s WALL (       1 calls)
     electrons    :    121.46s CPU     45.54s WALL (       1 calls)
     forces       :      0.71s CPU      0.33s WALL (       1 calls)
     stress       :      2.52s CPU      1.30s WALL (       1 calls)

     Called by init_run:
     wfcinit      :      0.97s CPU      0.39s WALL (       1 calls)
     potinit      :      0.23s CPU      0.23s WALL (       1 calls)
     hinit0       :      0.53s CPU      0.54s WALL (       1 calls)

     Called by electrons:
     c_bands      :     99.23s CPU     36.74s WALL (      36 calls)
     sum_band     :     16.51s CPU      6.42s WALL (      36 calls)
     v_of_rho     :      1.30s CPU      0.57s WALL (      37 calls)
     newd         :      4.11s CPU      1.70s WALL (      37 calls)
     mix_rho      :      0.24s CPU      0.10s WALL (      36 calls)

     Called by c_bands:
     init_us_2    :      1.53s CPU      0.54s WALL (    2100 calls)
     init_us_2:cp :      1.50s CPU      0.53s WALL (    2100 calls)
     cegterg      :     95.80s CPU     35.43s WALL (    1008 calls)

     Called by *egterg:
     cdiaghg      :     15.18s CPU      5.04s WALL (    5273 calls)
     h_psi        :     65.52s CPU     26.56s WALL (    5301 calls)
     s_psi        :      1.54s CPU      0.46s WALL (    5301 calls)
     g_psi        :      0.52s CPU      0.13s WALL (    4265 calls)

     Called by h_psi:
     h_psi:calbec :      2.32s CPU      0.85s WALL (    5301 calls)
     vloc_psi     :     61.09s CPU     25.04s WALL (    5301 calls)
     add_vuspsi   :      1.52s CPU      0.50s WALL (    5301 calls)

     General routines
     calbec       :      3.00s CPU      1.07s WALL (    6449 calls)
     fft          :      1.03s CPU      0.59s WALL (     504 calls)
     ffts         :      0.16s CPU      0.12s WALL (      73 calls)
     fftw         :     61.59s CPU     25.33s WALL (  143718 calls)
     interpolate  :      0.17s CPU      0.13s WALL (      37 calls)

     Parallel routines

     PWSCF        :   2m 7.09s CPU     48.92s WALL


   This run was terminated on:  17: 4:24  13Jun2025            

=------------------------------------------------------------------------------=
   JOB DONE.
=------------------------------------------------------------------------------=
Note: The following floating-point exceptions are signalling: IEEE_INVALID_FLAG
