Authorization required, but no authorization protocol specified

Authorization required, but no authorization protocol specified

Authorization required, but no authorization protocol specified

Authorization required, but no authorization protocol specified

Authorization required, but no authorization protocol specified

Authorization required, but no authorization protocol specified

Authorization required, but no authorization protocol specified

Authorization required, but no authorization protocol specified

Authorization required, but no authorization protocol specified

Authorization required, but no authorization protocol specified


     Program PWSCF v.7.2 starts on 13Jun2025 at 19:44:58 

     This program is part of the open-source Quantum ESPRESSO suite
     for quantum simulation of materials; please cite
         "P. Giannozzi et al., J. Phys.:Condens. Matter 21 395502 (2009);
         "P. Giannozzi et al., J. Phys.:Condens. Matter 29 465901 (2017);
         "P. Giannozzi et al., J. Chem. Phys. 152 154105 (2020);
          URL http://www.quantum-espresso.org", 
     in publications or presentations arising from this work. More details at
     http://www.quantum-espresso.org/quote

     Parallel version (MPI), running on     8 processors

     MPI processes distributed on     1 nodes
     120688 MiB available memory on the printing compute node when the environment starts

     Reading input from /home/jvc/QEspresso7.2/ZnO_database_python/SCFs.in/scf-6.73-1.66.in

     Current dimensions of program PWSCF are:
     Max number of different atomic species (ntypx) = 10
     Max number of k-points (npk) =  40000
     Max angular momentum in pseudopotentials (lmaxx) =  4
     file Zn.upf: wavefunction(s)  3D renormalized

     R & G space division:  proc/nbgrp/npool/nimage =       8
     Subspace diagonalization in iterative solution of the eigenvalue problem:
     a serial algorithm will be used


     Parallelization info
     --------------------
     sticks:   dense  smooth     PW     G-vecs:    dense   smooth      PW
     Min         157      79     23                 7435     2631     423
     Max         158      80     24                 7440     2634     430
     Sum        1261     637    187                59495    21063    3417

     Using Slab Decomposition



     bravais-lattice index     =            4
     lattice parameter (alat)  =       6.7349  a.u.
     unit-cell volume          =     439.9104 (a.u.)^3
     number of atoms/cell      =            4
     number of atomic types    =            2
     number of electrons       =        36.00
     number of Kohn-Sham states=           18
     kinetic-energy cutoff     =      50.0000  Ry
     charge density cutoff     =     400.0000  Ry
     scf convergence threshold =      1.0E-08
     mixing beta               =       0.3000
     number of iterations used =            8  plain     mixing
     Exchange-correlation= PBE
                           (   1   4   3   4   0   0   0)

     celldm(1)=   6.734915  celldm(2)=   0.000000  celldm(3)=   1.662789
     celldm(4)=   0.000000  celldm(5)=   0.000000  celldm(6)=   0.000000

     crystal axes: (cart. coord. in units of alat)
               a(1) = (   1.000000   0.000000   0.000000 )  
               a(2) = (  -0.500000   0.866025   0.000000 )  
               a(3) = (   0.000000   0.000000   1.662789 )  

     reciprocal axes: (cart. coord. in units 2 pi/alat)
               b(1) = (  1.000000  0.577350 -0.000000 )  
               b(2) = (  0.000000  1.154701  0.000000 )  
               b(3) = (  0.000000 -0.000000  0.601399 )  


     PseudoPot. # 1 for Zn read from file:
     /home/jvc/QEspresso7.2/ZnO_database/pseudos/Zn.upf
     MD5 check sum: 7f56cabf9682ed8c977c2f7d0c5985c5
     Pseudo is Ultrasoft + core correction, Zval = 12.0
     Generated using &quot;atomic&quot; code by A. Dal Corso  v.6.2.2
     Using radial grid of 1201 points,  6 beta functions with: 
                l(1) =   0
                l(2) =   0
                l(3) =   1
                l(4) =   1
                l(5) =   2
                l(6) =   2
     Q(r) pseudized with 0 coefficients 


     PseudoPot. # 2 for O  read from file:
     /home/jvc/QEspresso7.2/ZnO_database/pseudos/O.upf
     MD5 check sum: 91400c9766925bcf19f520983a725ff0
     Pseudo is Ultrasoft + core correction, Zval =  6.0
     Generated using &quot;atomic&quot; code by A. Dal Corso  v.6.3MaX
     Using radial grid of 1095 points,  4 beta functions with: 
                l(1) =   0
                l(2) =   0
                l(3) =   1
                l(4) =   1
     Q(r) pseudized with 0 coefficients 


     atomic species   valence    mass     pseudopotential
        Zn            12.00    63.38000     Zn( 1.00)
        O              6.00    15.99900     O ( 1.00)

     12 Sym. Ops. (no inversion) found ( 6 have fractional translation)



   Cartesian axes

     site n.     atom                  positions (alat units)
         1           Zn  tau(   1) = (   0.5000000   0.2886751   0.8324481  )
         2           Zn  tau(   2) = (  -0.0000000   0.5773503   0.0010535  )
         3           O   tau(   3) = (   0.5000000   0.2886751   1.4627164  )
         4           O   tau(   4) = (  -0.0000000   0.5773503   0.6313218  )

     number of k points=    28
                       cart. coord. in units 2pi/alat
        k(    1) = (   0.0000000   0.0000000   0.0000000), wk =   0.0092593
        k(    2) = (   0.0000000   0.0000000   0.1002332), wk =   0.0185185
        k(    3) = (   0.0000000   0.0000000   0.2004664), wk =   0.0185185
        k(    4) = (   0.0000000   0.0000000  -0.3006996), wk =   0.0092593
        k(    5) = (   0.0000000   0.1924501   0.0000000), wk =   0.0555556
        k(    6) = (   0.0000000   0.1924501   0.1002332), wk =   0.1111111
        k(    7) = (   0.0000000   0.1924501   0.2004664), wk =   0.1111111
        k(    8) = (   0.0000000   0.1924501  -0.3006996), wk =   0.0555556
        k(    9) = (   0.0000000   0.3849002   0.0000000), wk =   0.0555556
        k(   10) = (   0.0000000   0.3849002   0.1002332), wk =   0.1111111
        k(   11) = (   0.0000000   0.3849002   0.2004664), wk =   0.1111111
        k(   12) = (   0.0000000   0.3849002  -0.3006996), wk =   0.0555556
        k(   13) = (   0.0000000  -0.5773503   0.0000000), wk =   0.0277778
        k(   14) = (   0.0000000  -0.5773503   0.1002332), wk =   0.0555556
        k(   15) = (   0.0000000  -0.5773503   0.2004664), wk =   0.0555556
        k(   16) = (   0.0000000  -0.5773503  -0.3006996), wk =   0.0277778
        k(   17) = (   0.1666667   0.2886751   0.0000000), wk =   0.0555556
        k(   18) = (   0.1666667   0.2886751   0.1002332), wk =   0.1111111
        k(   19) = (   0.1666667   0.2886751   0.2004664), wk =   0.1111111
        k(   20) = (   0.1666667   0.2886751  -0.3006996), wk =   0.0555556
        k(   21) = (   0.1666667   0.4811252   0.0000000), wk =   0.1111111
        k(   22) = (   0.1666667   0.4811252   0.1002332), wk =   0.2222222
        k(   23) = (   0.1666667   0.4811252   0.2004664), wk =   0.2222222
        k(   24) = (   0.1666667   0.4811252  -0.3006996), wk =   0.1111111
        k(   25) = (   0.3333333   0.5773503   0.0000000), wk =   0.0185185
        k(   26) = (   0.3333333   0.5773503   0.1002332), wk =   0.0370370
        k(   27) = (   0.3333333   0.5773503   0.2004664), wk =   0.0370370
        k(   28) = (   0.3333333   0.5773503  -0.3006996), wk =   0.0185185

     Dense  grid:    59495 G-vectors     FFT dimensions: (  45,  45,  72)

     Smooth grid:    21063 G-vectors     FFT dimensions: (  32,  32,  54)

     Estimated max dynamical RAM per process >      33.43 MB

     Estimated total dynamical RAM >     267.42 MB

     Check: negative core charge=   -0.000002

     Initial potential from superposition of free atoms

     starting charge      35.9925, renormalised to      36.0000
     Starting wfcs are   26 randomized atomic wfcs

     total cpu time spent up to now is        1.7 secs

     Self-consistent Calculation

     iteration #  1     ecut=    50.00 Ry     beta= 0.30
     Davidson diagonalization with overlap
     ethr =  1.00E-02,  avg # of iterations =  1.1

     total cpu time spent up to now is        2.6 secs

     total energy              =    -361.33992145 Ry
     estimated scf accuracy    <       0.85184912 Ry

     iteration #  2     ecut=    50.00 Ry     beta= 0.30
     Davidson diagonalization with overlap
     ethr =  2.37E-03,  avg # of iterations =  2.1

     total cpu time spent up to now is        3.6 secs

     total energy              =    -361.45732435 Ry
     estimated scf accuracy    <       0.10347750 Ry

     iteration #  3     ecut=    50.00 Ry     beta= 0.30
     Davidson diagonalization with overlap
     ethr =  2.87E-04,  avg # of iterations =  5.7

     total cpu time spent up to now is        5.1 secs

     total energy              =    -361.45452719 Ry
     estimated scf accuracy    <       0.20098350 Ry

     iteration #  4     ecut=    50.00 Ry     beta= 0.30
     Davidson diagonalization with overlap
     ethr =  2.87E-04,  avg # of iterations =  8.8

     total cpu time spent up to now is        7.2 secs

     total energy              =    -361.62151986 Ry
     estimated scf accuracy    <       0.28751256 Ry

     iteration #  5     ecut=    50.00 Ry     beta= 0.30
     Davidson diagonalization with overlap
     ethr =  2.87E-04,  avg # of iterations =  1.1

     total cpu time spent up to now is        8.1 secs

     total energy              =    -361.51319350 Ry
     estimated scf accuracy    <       0.29837851 Ry

     iteration #  6     ecut=    50.00 Ry     beta= 0.30
     Davidson diagonalization with overlap
     ethr =  2.87E-04,  avg # of iterations =  5.2

     total cpu time spent up to now is        9.4 secs

     total energy              =    -361.53674317 Ry
     estimated scf accuracy    <       0.02080629 Ry

     iteration #  7     ecut=    50.00 Ry     beta= 0.30
     Davidson diagonalization with overlap
     ethr =  5.78E-05,  avg # of iterations =  5.6

     total cpu time spent up to now is       10.6 secs

     total energy              =    -361.54465069 Ry
     estimated scf accuracy    <       0.00050638 Ry

     iteration #  8     ecut=    50.00 Ry     beta= 0.30
     Davidson diagonalization with overlap
     ethr =  1.41E-06,  avg # of iterations =  9.0

     total cpu time spent up to now is       12.4 secs

     total energy              =    -361.54630459 Ry
     estimated scf accuracy    <       0.00142661 Ry

     iteration #  9     ecut=    50.00 Ry     beta= 0.30
     Davidson diagonalization with overlap
     ethr =  1.41E-06,  avg # of iterations =  1.0

     total cpu time spent up to now is       13.3 secs

     total energy              =    -361.54570031 Ry
     estimated scf accuracy    <       0.00123470 Ry

     iteration # 10     ecut=    50.00 Ry     beta= 0.30
     Davidson diagonalization with overlap
     ethr =  1.41E-06,  avg # of iterations =  6.6

     total cpu time spent up to now is       14.8 secs

     total energy              =    -361.54600897 Ry
     estimated scf accuracy    <       0.00011790 Ry

     iteration # 11     ecut=    50.00 Ry     beta= 0.30
     Davidson diagonalization with overlap
     ethr =  3.27E-07,  avg # of iterations =  6.0

     total cpu time spent up to now is       16.2 secs

     total energy              =    -361.54605462 Ry
     estimated scf accuracy    <       0.00011885 Ry

     iteration # 12     ecut=    50.00 Ry     beta= 0.30
     Davidson diagonalization with overlap
     ethr =  3.27E-07,  avg # of iterations =  1.0

     total cpu time spent up to now is       17.1 secs

     total energy              =    -361.54601138 Ry
     estimated scf accuracy    <       0.00005614 Ry

     iteration # 13     ecut=    50.00 Ry     beta= 0.30
     Davidson diagonalization with overlap
     ethr =  1.56E-07,  avg # of iterations =  8.2

     total cpu time spent up to now is       18.9 secs

     total energy              =    -361.54606795 Ry
     estimated scf accuracy    <       0.00032994 Ry

     iteration # 14     ecut=    50.00 Ry     beta= 0.30
     Davidson diagonalization with overlap
     ethr =  1.56E-07,  avg # of iterations =  2.3

     total cpu time spent up to now is       19.9 secs

     total energy              =    -361.54603063 Ry
     estimated scf accuracy    <       0.00019654 Ry

     iteration # 15     ecut=    50.00 Ry     beta= 0.30
     Davidson diagonalization with overlap
     ethr =  1.56E-07,  avg # of iterations =  5.4

     total cpu time spent up to now is       21.2 secs

     total energy              =    -361.54606310 Ry
     estimated scf accuracy    <       0.00001106 Ry

     iteration # 16     ecut=    50.00 Ry     beta= 0.30
     Davidson diagonalization with overlap
     ethr =  3.07E-08,  avg # of iterations =  2.5

     total cpu time spent up to now is       22.2 secs

     total energy              =    -361.54606424 Ry
     estimated scf accuracy    <       0.00001955 Ry

     iteration # 17     ecut=    50.00 Ry     beta= 0.30
     Davidson diagonalization with overlap
     ethr =  3.07E-08,  avg # of iterations =  1.4

     total cpu time spent up to now is       23.1 secs

     total energy              =    -361.54606122 Ry
     estimated scf accuracy    <       0.00002276 Ry

     iteration # 18     ecut=    50.00 Ry     beta= 0.30
     Davidson diagonalization with overlap
     ethr =  3.07E-08,  avg # of iterations =  1.2

     total cpu time spent up to now is       23.9 secs

     total energy              =    -361.54605774 Ry
     estimated scf accuracy    <       0.00001740 Ry

     iteration # 19     ecut=    50.00 Ry     beta= 0.30
     Davidson diagonalization with overlap
     ethr =  3.07E-08,  avg # of iterations =  2.1

     total cpu time spent up to now is       24.9 secs

     total energy              =    -361.54605875 Ry
     estimated scf accuracy    <       0.00000967 Ry

     iteration # 20     ecut=    50.00 Ry     beta= 0.30
     Davidson diagonalization with overlap
     ethr =  2.69E-08,  avg # of iterations =  1.0

     total cpu time spent up to now is       25.7 secs

     total energy              =    -361.54605711 Ry
     estimated scf accuracy    <       0.00001012 Ry

     iteration # 21     ecut=    50.00 Ry     beta= 0.30
     Davidson diagonalization with overlap
     ethr =  2.69E-08,  avg # of iterations =  1.2

     total cpu time spent up to now is       26.6 secs

     total energy              =    -361.54605661 Ry
     estimated scf accuracy    <       0.00000599 Ry

     iteration # 22     ecut=    50.00 Ry     beta= 0.30
     Davidson diagonalization with overlap
     ethr =  1.66E-08,  avg # of iterations =  3.0

     total cpu time spent up to now is       27.6 secs

     total energy              =    -361.54605720 Ry
     estimated scf accuracy    <       0.00000195 Ry

     iteration # 23     ecut=    50.00 Ry     beta= 0.30
     Davidson diagonalization with overlap
     ethr =  5.42E-09,  avg # of iterations =  5.5

     total cpu time spent up to now is       28.9 secs

     total energy              =    -361.54605807 Ry
     estimated scf accuracy    <       0.00000007 Ry

     iteration # 24     ecut=    50.00 Ry     beta= 0.30
     Davidson diagonalization with overlap
     ethr =  2.03E-10,  avg # of iterations =  6.6

     total cpu time spent up to now is       30.4 secs

     total energy              =    -361.54605800 Ry
     estimated scf accuracy    <       0.00000068 Ry

     iteration # 25     ecut=    50.00 Ry     beta= 0.30
     Davidson diagonalization with overlap
     ethr =  2.03E-10,  avg # of iterations =  5.1

     total cpu time spent up to now is       31.8 secs

     total energy              =    -361.54605806 Ry
     estimated scf accuracy    <       0.00000018 Ry

     iteration # 26     ecut=    50.00 Ry     beta= 0.30
     Davidson diagonalization with overlap
     ethr =  2.03E-10,  avg # of iterations =  1.0

     total cpu time spent up to now is       32.6 secs

     total energy              =    -361.54605804 Ry
     estimated scf accuracy    <       0.00000022 Ry

     iteration # 27     ecut=    50.00 Ry     beta= 0.30
     Davidson diagonalization with overlap
     ethr =  2.03E-10,  avg # of iterations =  1.0

     total cpu time spent up to now is       33.5 secs

     total energy              =    -361.54605804 Ry
     estimated scf accuracy    <       0.00000020 Ry

     iteration # 28     ecut=    50.00 Ry     beta= 0.30
     Davidson diagonalization with overlap
     ethr =  2.03E-10,  avg # of iterations =  1.0

     total cpu time spent up to now is       34.4 secs

     total energy              =    -361.54605801 Ry
     estimated scf accuracy    <       0.00000018 Ry

     iteration # 29     ecut=    50.00 Ry     beta= 0.30
     Davidson diagonalization with overlap
     ethr =  2.03E-10,  avg # of iterations =  1.5

     total cpu time spent up to now is       35.2 secs

     total energy              =    -361.54605801 Ry
     estimated scf accuracy    <       0.00000013 Ry

     iteration # 30     ecut=    50.00 Ry     beta= 0.30
     Davidson diagonalization with overlap
     ethr =  2.03E-10,  avg # of iterations =  1.1

     total cpu time spent up to now is       36.1 secs

     total energy              =    -361.54605800 Ry
     estimated scf accuracy    <       0.00000011 Ry

     iteration # 31     ecut=    50.00 Ry     beta= 0.30
     Davidson diagonalization with overlap
     ethr =  2.03E-10,  avg # of iterations =  1.1

     total cpu time spent up to now is       37.0 secs

     total energy              =    -361.54605797 Ry
     estimated scf accuracy    <       0.00000008 Ry

     iteration # 32     ecut=    50.00 Ry     beta= 0.30
     Davidson diagonalization with overlap
     ethr =  2.03E-10,  avg # of iterations =  5.0

     total cpu time spent up to now is       38.2 secs

     End of self-consistent calculation

          k = 0.0000 0.0000 0.0000 (  2635 PWs)   bands (ev):

   -12.7918 -12.4716  -1.4792  -1.4792  -1.4572  -1.3884  -1.3884  -1.0010
    -1.0010  -0.9518  -0.9143  -0.9143  -0.1040   2.9261   2.9261   3.2855
     3.3609   3.3609

          k = 0.0000 0.0000 0.1002 (  2617 PWs)   bands (ev):

   -12.7709 -12.4936  -1.4751  -1.4751  -1.4605  -1.3969  -1.3969  -1.0939
    -0.9934  -0.9934  -0.9179  -0.9179   0.1545   2.6773   2.9556   2.9556
     3.3322   3.3322

          k = 0.0000 0.0000 0.2005 (  2647 PWs)   bands (ev):

   -12.7135 -12.5533  -1.4632  -1.4632  -1.4574  -1.4182  -1.4182  -1.2928
    -0.9744  -0.9744  -0.9305  -0.9305   0.6843   1.9748   3.0360   3.0360
     3.2535   3.2535

          k = 0.0000 0.0000-0.3007 (  2654 PWs)   bands (ev):

   -12.6340 -12.6340  -1.4429  -1.4429  -1.4429  -1.4429  -1.4134  -1.4134
    -0.9507  -0.9507  -0.9507  -0.9507   1.3072   1.3072   3.1452   3.1452
     3.1452   3.1452

          k = 0.0000 0.1925 0.0000 (  2645 PWs)   bands (ev):

   -12.7170 -12.4352  -1.4962  -1.4332  -1.4163  -1.3565  -1.3224  -1.0275
    -1.0203  -1.0008  -0.9098  -0.8248   0.0953   2.0794   2.3477   2.7081
     3.1931   3.2362

          k = 0.0000 0.1925 0.1002 (  2634 PWs)   bands (ev):

   -12.6985 -12.4544  -1.4980  -1.4275  -1.4185  -1.3645  -1.3319  -1.1046
    -1.0126  -0.9936  -0.9148  -0.8706   0.3113   1.9894   2.3463   2.7439
     3.1216   3.2013

          k = 0.0000 0.1925 0.2005 (  2645 PWs)   bands (ev):

   -12.6475 -12.5066  -1.4954  -1.4300  -1.4112  -1.3759  -1.3561  -1.2606
    -0.9835  -0.9751  -0.9294  -0.9122   0.7557   1.6724   2.4693   2.8415
     2.9341   3.1054

          k = 0.0000 0.1925-0.3007 (  2638 PWs)   bands (ev):

   -12.5773 -12.5773  -1.4682  -1.4682  -1.3854  -1.3854  -1.3513  -1.3513
    -0.9511  -0.9511  -0.9475  -0.9475   1.2359   1.2359   2.6912   2.6912
     2.9738   2.9738

          k = 0.0000 0.3849 0.0000 (  2625 PWs)   bands (ev):

   -12.5533 -12.3718  -1.4778  -1.3634  -1.3545  -1.1958  -1.1772  -1.0800
    -1.0055  -0.9626  -0.8997  -0.7827   0.4709   0.9390   1.5094   2.2802
     2.8551   2.9734

          k = 0.0000 0.3849 0.1002 (  2635 PWs)   bands (ev):

   -12.5410 -12.3838  -1.4827  -1.3716  -1.3522  -1.2011  -1.1909  -1.1042
    -1.0039  -0.9590  -0.9050  -0.8135   0.4866   0.9616   1.6059   2.3276
     2.8475   2.9275

          k = 0.0000 0.3849 0.2005 (  2630 PWs)   bands (ev):

   -12.5073 -12.4165  -1.4863  -1.4155  -1.3208  -1.2276  -1.2111  -1.1717
    -0.9695  -0.9490  -0.9182  -0.8673   0.5656   0.8693   1.9652   2.4561
     2.7301   2.8019

          k = 0.0000 0.3849-0.3007 (  2622 PWs)   bands (ev):

   -12.4617 -12.4617  -1.4646  -1.4646  -1.2756  -1.2756  -1.2091  -1.2091
    -0.9343  -0.9343  -0.9199  -0.9199   0.7065   0.7065   2.4098   2.4098
     2.6297   2.6297

          k = 0.0000-0.5774 0.0000 (  2626 PWs)   bands (ev):

   -12.4538 -12.3554  -1.4623  -1.3434  -1.2508  -1.1496  -1.1027  -1.0246
    -0.9175  -0.8893  -0.8891  -0.8461   0.1762   0.6579   1.4782   2.0634
     2.5354   2.8366

          k = 0.0000-0.5774 0.1002 (  2616 PWs)   bands (ev):

   -12.4467 -12.3615  -1.4694  -1.3287  -1.2992  -1.1434  -1.1198  -1.0170
    -0.9166  -0.8932  -0.8927  -0.8461   0.1522   0.5761   1.6607   2.1168
     2.5903   2.7856

          k = 0.0000-0.5774 0.2005 (  2612 PWs)   bands (ev):

   -12.4278 -12.3785  -1.4768  -1.3886  -1.2879  -1.1667  -1.1229  -1.0403
    -0.9138  -0.9016  -0.8803  -0.8496   0.1569   0.4044   2.0601   2.2610
     2.6194   2.6461

          k = 0.0000-0.5774-0.3007 (  2632 PWs)   bands (ev):

   -12.4026 -12.4026  -1.4552  -1.4552  -1.2292  -1.2292  -1.0863  -1.0863
    -0.9092  -0.9092  -0.8607  -0.8607   0.2466   0.2466   2.4381   2.4381
     2.4547   2.4547

          k = 0.1667 0.2887 0.0000 (  2633 PWs)   bands (ev):

   -12.5972 -12.3856  -1.4370  -1.4182  -1.3471  -1.2936  -1.2018  -1.0484
    -1.0390  -0.9845  -0.9032  -0.7846   0.4135   1.3548   1.6184   2.2717
     2.9154   2.9806

          k = 0.1667 0.2887 0.1002 (  2642 PWs)   bands (ev):

   -12.5830 -12.3997  -1.4428  -1.4135  -1.3510  -1.3009  -1.2130  -1.1036
    -1.0289  -0.9728  -0.9084  -0.8202   0.5164   1.2957   1.7419   2.2943
     2.8669   2.9573

          k = 0.1667 0.2887 0.2005 (  2631 PWs)   bands (ev):

   -12.5441 -12.4382  -1.4495  -1.4104  -1.3485  -1.3164  -1.2412  -1.2183
    -0.9832  -0.9574  -0.9211  -0.8745   0.7230   1.1400   2.0708   2.3856
     2.7375   2.8152

          k = 0.1667 0.2887-0.3007 (  2626 PWs)   bands (ev):

   -12.4911 -12.4911  -1.4333  -1.4333  -1.3325  -1.3325  -1.2635  -1.2635
    -0.9437  -0.9437  -0.9240  -0.9240   0.9382   0.9382   2.4464   2.4464
     2.5946   2.5946

          k = 0.1667 0.4811 0.0000 (  2620 PWs)   bands (ev):

   -12.4565 -12.3539  -1.4401  -1.3276  -1.2048  -1.1417  -1.0881  -1.0740
    -0.9930  -0.9545  -0.8714  -0.7703   0.3945   0.7336   1.4775   1.7525
     2.5253   2.6043

          k = 0.1667 0.4811 0.1002 (  2620 PWs)   bands (ev):

   -12.4492 -12.3603  -1.4332  -1.3321  -1.2410  -1.1490  -1.1017  -1.0890
    -0.9887  -0.9403  -0.8699  -0.7803   0.3646   0.6825   1.5848   1.8715
     2.4796   2.6388

          k = 0.1667 0.4811 0.2005 (  2619 PWs)   bands (ev):

   -12.4294 -12.3781  -1.4206  -1.3485  -1.2845  -1.1786  -1.1358  -1.1210
    -0.9575  -0.9294  -0.8607  -0.8061   0.3588   0.5558   1.7977   2.1773
     2.3243   2.6757

          k = 0.1667 0.4811-0.3007 (  2616 PWs)   bands (ev):

   -12.4033 -12.4033  -1.3964  -1.3964  -1.2437  -1.2437  -1.1386  -1.1386
    -0.9343  -0.9343  -0.8372  -0.8372   0.4298   0.4298   2.0464   2.0464
     2.5350   2.5350

          k = 0.3333 0.5774 0.0000 (  2586 PWs)   bands (ev):

   -12.3766 -12.3766  -1.4520  -1.2087  -1.2087  -1.0759  -1.0216  -1.0216
    -0.9868  -0.9722  -0.7986  -0.7986   0.5867   0.5867   0.9324   2.1229
     2.1229   2.1853

          k = 0.3333 0.5774 0.1002 (  2619 PWs)   bands (ev):

   -12.3761 -12.3761  -1.4329  -1.2341  -1.2341  -1.1057  -1.0258  -1.0258
    -0.9932  -0.9746  -0.7871  -0.7871   0.5312   0.5312   1.0206   2.0998
     2.2449   2.2449

          k = 0.3333 0.5774 0.2005 (  2610 PWs)   bands (ev):

   -12.3749 -12.3749  -1.3766  -1.2825  -1.2825  -1.1891  -1.0320  -1.0320
    -0.9946  -0.9807  -0.7670  -0.7670   0.4406   0.4406   1.2536   1.8704
     2.4723   2.4723

          k = 0.3333 0.5774-0.3007 (  2640 PWs)   bands (ev):

   -12.3743 -12.3743  -1.3060  -1.3060  -1.2903  -1.2903  -1.0351  -1.0351
    -0.9888  -0.9888  -0.7584  -0.7584   0.4025   0.4025   1.5625   1.5625
     2.5808   2.5808

     highest occupied level (ev):     3.3609

!    total energy              =    -361.54605800 Ry
     estimated scf accuracy    <          3.2E-09 Ry

     The total energy is the sum of the following terms:
     one-electron contribution =    -186.34321939 Ry
     hartree contribution      =     129.92605140 Ry
     xc contribution           =    -109.04378870 Ry
     ewald contribution        =    -196.08510131 Ry

     convergence has been achieved in  32 iterations

     Forces acting on atoms (cartesian axes, Ry/au):

     atom    1 type  1   force =     0.00000000    0.00000000   -0.00337988
     atom    2 type  1   force =     0.00000000   -0.00000000   -0.00337988
     atom    3 type  2   force =     0.00000000    0.00000000    0.00337988
     atom    4 type  2   force =     0.00000000   -0.00000000    0.00337988
     The non-local contrib.  to forces
     atom    1 type  1   force =     0.00000000   -0.00000000    0.06666592
     atom    2 type  1   force =     0.00000000    0.00000000    0.06666592
     atom    3 type  2   force =    -0.00000000   -0.00000000    0.08546973
     atom    4 type  2   force =     0.00000000    0.00000000    0.08546973
     The ionic contribution  to forces
     atom    1 type  1   force =    -0.00000000    0.00000000    0.55521351
     atom    2 type  1   force =     0.00000000   -0.00000000    0.55521351
     atom    3 type  2   force =    -0.00000000    0.00000000   -0.55521351
     atom    4 type  2   force =     0.00000000   -0.00000000   -0.55521351
     The local contribution  to forces
     atom    1 type  1   force =    -0.00000002    0.00000001   -0.62145564
     atom    2 type  1   force =     0.00000007   -0.00000004   -0.62145563
     atom    3 type  2   force =    -0.00000001    0.00000000    0.47392164
     atom    4 type  2   force =     0.00000002   -0.00000001    0.47392163
     The core correction contribution to forces
     atom    1 type  1   force =    -0.00000000    0.00000000   -0.00379608
     atom    2 type  1   force =     0.00000001   -0.00000001   -0.00379608
     atom    3 type  2   force =     0.00000000   -0.00000000   -0.00080464
     atom    4 type  2   force =    -0.00000000    0.00000000   -0.00080464
     The Hubbard contrib.    to forces
     atom    1 type  1   force =     0.00000000    0.00000000    0.00000000
     atom    2 type  1   force =     0.00000000    0.00000000    0.00000000
     atom    3 type  2   force =     0.00000000    0.00000000    0.00000000
     atom    4 type  2   force =     0.00000000    0.00000000    0.00000000
     The SCF correction term to forces
     atom    1 type  1   force =    -0.00000000    0.00000000   -0.00000897
     atom    2 type  1   force =     0.00000000   -0.00000000   -0.00000897
     atom    3 type  2   force =    -0.00000000    0.00000000    0.00000529
     atom    4 type  2   force =     0.00000000   -0.00000000    0.00000529

     Total force =     0.006760     Total SCF correction =     0.000015


     Computing stress (Cartesian axis) and pressure

          total   stress  (Ry/bohr**3)                   (kbar)     P=     -202.41
  -0.00134454   0.00000000  -0.00000000         -197.79        0.00       -0.00
   0.00000000  -0.00134454  -0.00000000            0.00     -197.79       -0.00
   0.00000000   0.00000000  -0.00143881            0.00        0.00     -211.66


     Writing all to output data dir ./ZnO_ANN.save/

     init_run     :      2.08s CPU      1.37s WALL (       1 calls)
     electrons    :     98.26s CPU     36.50s WALL (       1 calls)
     forces       :      0.80s CPU      0.40s WALL (       1 calls)
     stress       :      3.16s CPU      1.65s WALL (       1 calls)

     Called by init_run:
     wfcinit      :      1.11s CPU      0.41s WALL (       1 calls)
     potinit      :      0.29s CPU      0.30s WALL (       1 calls)
     hinit0       :      0.47s CPU      0.48s WALL (       1 calls)

     Called by electrons:
     c_bands      :     74.59s CPU     27.27s WALL (      32 calls)
     sum_band     :     16.97s CPU      6.52s WALL (      32 calls)
     v_of_rho     :      1.45s CPU      0.63s WALL (      33 calls)
     newd         :      4.94s CPU      1.97s WALL (      33 calls)
     mix_rho      :      0.26s CPU      0.11s WALL (      32 calls)

     Called by c_bands:
     init_us_2    :      1.75s CPU      0.63s WALL (    1876 calls)
     init_us_2:cp :      1.73s CPU      0.63s WALL (    1876 calls)
     cegterg      :     70.67s CPU     25.75s WALL (     896 calls)

     Called by *egterg:
     cdiaghg      :     11.29s CPU      3.67s WALL (    3989 calls)
     h_psi        :     47.53s CPU     19.28s WALL (    4017 calls)
     s_psi        :      1.30s CPU      0.35s WALL (    4017 calls)
     g_psi        :      0.42s CPU      0.11s WALL (    3093 calls)

     Called by h_psi:
     h_psi:calbec :      1.94s CPU      0.68s WALL (    4017 calls)
     vloc_psi     :     43.76s CPU     18.04s WALL (    4017 calls)
     add_vuspsi   :      1.32s CPU      0.41s WALL (    4017 calls)

     General routines
     calbec       :      2.64s CPU      0.93s WALL (    5053 calls)
     fft          :      1.05s CPU      0.56s WALL (     452 calls)
     ffts         :      0.18s CPU      0.14s WALL (      65 calls)
     fftw         :     44.09s CPU     18.21s WALL (  104906 calls)
     interpolate  :      0.22s CPU      0.16s WALL (      33 calls)

     Parallel routines

     PWSCF        :   1m44.85s CPU     40.42s WALL


   This run was terminated on:  19:45:38  13Jun2025            

=------------------------------------------------------------------------------=
   JOB DONE.
=------------------------------------------------------------------------------=
Note: The following floating-point exceptions are signalling: IEEE_INVALID_FLAG
