Authorization required, but no authorization protocol specified

Authorization required, but no authorization protocol specified

Authorization required, but no authorization protocol specified

Authorization required, but no authorization protocol specified

Authorization required, but no authorization protocol specified

Authorization required, but no authorization protocol specified

Authorization required, but no authorization protocol specified

Authorization required, but no authorization protocol specified

Authorization required, but no authorization protocol specified

Authorization required, but no authorization protocol specified


     Program PWSCF v.7.2 starts on 13Jun2025 at 16: 2:27 

     This program is part of the open-source Quantum ESPRESSO suite
     for quantum simulation of materials; please cite
         "P. Giannozzi et al., J. Phys.:Condens. Matter 21 395502 (2009);
         "P. Giannozzi et al., J. Phys.:Condens. Matter 29 465901 (2017);
         "P. Giannozzi et al., J. Chem. Phys. 152 154105 (2020);
          URL http://www.quantum-espresso.org", 
     in publications or presentations arising from this work. More details at
     http://www.quantum-espresso.org/quote

     Parallel version (MPI), running on     8 processors

     MPI processes distributed on     1 nodes
     120721 MiB available memory on the printing compute node when the environment starts

     Reading input from /home/jvc/QEspresso7.2/ZnO_database_python/SCFs.in/scf-5.87-1.47.in

     Current dimensions of program PWSCF are:
     Max number of different atomic species (ntypx) = 10
     Max number of k-points (npk) =  40000
     Max angular momentum in pseudopotentials (lmaxx) =  4
     file Zn.upf: wavefunction(s)  3D renormalized

     R & G space division:  proc/nbgrp/npool/nimage =       8
     Subspace diagonalization in iterative solution of the eigenvalue problem:
     a serial algorithm will be used


     Parallelization info
     --------------------
     sticks:   dense  smooth     PW     G-vecs:    dense   smooth      PW
     Min         119      59     18                 4355     1527     266
     Max         120      60     19                 4360     1532     271
     Sum         955     475    151                34861    12237    2151

     Using Slab Decomposition



     bravais-lattice index     =            4
     lattice parameter (alat)  =       5.8699  a.u.
     unit-cell volume          =     257.3118 (a.u.)^3
     number of atoms/cell      =            4
     number of atomic types    =            2
     number of electrons       =        36.00
     number of Kohn-Sham states=           18
     kinetic-energy cutoff     =      50.0000  Ry
     charge density cutoff     =     400.0000  Ry
     scf convergence threshold =      1.0E-08
     mixing beta               =       0.3000
     number of iterations used =            8  plain     mixing
     Exchange-correlation= PBE
                           (   1   4   3   4   0   0   0)

     celldm(1)=   5.869880  celldm(2)=   0.000000  celldm(3)=   1.469066
     celldm(4)=   0.000000  celldm(5)=   0.000000  celldm(6)=   0.000000

     crystal axes: (cart. coord. in units of alat)
               a(1) = (   1.000000   0.000000   0.000000 )  
               a(2) = (  -0.500000   0.866025   0.000000 )  
               a(3) = (   0.000000   0.000000   1.469066 )  

     reciprocal axes: (cart. coord. in units 2 pi/alat)
               b(1) = (  1.000000  0.577350 -0.000000 )  
               b(2) = (  0.000000  1.154701  0.000000 )  
               b(3) = (  0.000000 -0.000000  0.680705 )  


     PseudoPot. # 1 for Zn read from file:
     /home/jvc/QEspresso7.2/ZnO_database/pseudos/Zn.upf
     MD5 check sum: 7f56cabf9682ed8c977c2f7d0c5985c5
     Pseudo is Ultrasoft + core correction, Zval = 12.0
     Generated using &quot;atomic&quot; code by A. Dal Corso  v.6.2.2
     Using radial grid of 1201 points,  6 beta functions with: 
                l(1) =   0
                l(2) =   0
                l(3) =   1
                l(4) =   1
                l(5) =   2
                l(6) =   2
     Q(r) pseudized with 0 coefficients 


     PseudoPot. # 2 for O  read from file:
     /home/jvc/QEspresso7.2/ZnO_database/pseudos/O.upf
     MD5 check sum: 91400c9766925bcf19f520983a725ff0
     Pseudo is Ultrasoft + core correction, Zval =  6.0
     Generated using &quot;atomic&quot; code by A. Dal Corso  v.6.3MaX
     Using radial grid of 1095 points,  4 beta functions with: 
                l(1) =   0
                l(2) =   0
                l(3) =   1
                l(4) =   1
     Q(r) pseudized with 0 coefficients 


     atomic species   valence    mass     pseudopotential
        Zn            12.00    63.38000     Zn( 1.00)
        O              6.00    15.99900     O ( 1.00)

     12 Sym. Ops. (no inversion) found ( 6 have fractional translation)



   Cartesian axes

     site n.     atom                  positions (alat units)
         1           Zn  tau(   1) = (   0.5000000   0.2886751   0.7354638  )
         2           Zn  tau(   2) = (  -0.0000000   0.5773503   0.0009308  )
         3           O   tau(   3) = (   0.5000000   0.2886751   1.2923028  )
         4           O   tau(   4) = (  -0.0000000   0.5773503   0.5577698  )

     number of k points=    28
                       cart. coord. in units 2pi/alat
        k(    1) = (   0.0000000   0.0000000   0.0000000), wk =   0.0092593
        k(    2) = (   0.0000000   0.0000000   0.1134508), wk =   0.0185185
        k(    3) = (   0.0000000   0.0000000   0.2269015), wk =   0.0185185
        k(    4) = (   0.0000000   0.0000000  -0.3403523), wk =   0.0092593
        k(    5) = (   0.0000000   0.1924501   0.0000000), wk =   0.0555556
        k(    6) = (   0.0000000   0.1924501   0.1134508), wk =   0.1111111
        k(    7) = (   0.0000000   0.1924501   0.2269015), wk =   0.1111111
        k(    8) = (   0.0000000   0.1924501  -0.3403523), wk =   0.0555556
        k(    9) = (   0.0000000   0.3849002   0.0000000), wk =   0.0555556
        k(   10) = (   0.0000000   0.3849002   0.1134508), wk =   0.1111111
        k(   11) = (   0.0000000   0.3849002   0.2269015), wk =   0.1111111
        k(   12) = (   0.0000000   0.3849002  -0.3403523), wk =   0.0555556
        k(   13) = (   0.0000000  -0.5773503   0.0000000), wk =   0.0277778
        k(   14) = (   0.0000000  -0.5773503   0.1134508), wk =   0.0555556
        k(   15) = (   0.0000000  -0.5773503   0.2269015), wk =   0.0555556
        k(   16) = (   0.0000000  -0.5773503  -0.3403523), wk =   0.0277778
        k(   17) = (   0.1666667   0.2886751   0.0000000), wk =   0.0555556
        k(   18) = (   0.1666667   0.2886751   0.1134508), wk =   0.1111111
        k(   19) = (   0.1666667   0.2886751   0.2269015), wk =   0.1111111
        k(   20) = (   0.1666667   0.2886751  -0.3403523), wk =   0.0555556
        k(   21) = (   0.1666667   0.4811252   0.0000000), wk =   0.1111111
        k(   22) = (   0.1666667   0.4811252   0.1134508), wk =   0.2222222
        k(   23) = (   0.1666667   0.4811252   0.2269015), wk =   0.2222222
        k(   24) = (   0.1666667   0.4811252  -0.3403523), wk =   0.1111111
        k(   25) = (   0.3333333   0.5773503   0.0000000), wk =   0.0185185
        k(   26) = (   0.3333333   0.5773503   0.1134508), wk =   0.0370370
        k(   27) = (   0.3333333   0.5773503   0.2269015), wk =   0.0370370
        k(   28) = (   0.3333333   0.5773503  -0.3403523), wk =   0.0185185

     Dense  grid:    34861 G-vectors     FFT dimensions: (  40,  40,  60)

     Smooth grid:    12237 G-vectors     FFT dimensions: (  27,  27,  40)

     Estimated max dynamical RAM per process >      21.07 MB

     Estimated total dynamical RAM >     168.54 MB

     Check: negative core charge=   -0.000001

     Initial potential from superposition of free atoms

     starting charge      35.9925, renormalised to      36.0000
     Starting wfcs are   26 randomized atomic wfcs

     total cpu time spent up to now is        1.4 secs

     Self-consistent Calculation

     iteration #  1     ecut=    50.00 Ry     beta= 0.30
     Davidson diagonalization with overlap
     ethr =  1.00E-02,  avg # of iterations =  2.1

     total cpu time spent up to now is        2.2 secs

     total energy              =    -361.35168548 Ry
     estimated scf accuracy    <       0.68981148 Ry

     iteration #  2     ecut=    50.00 Ry     beta= 0.30
     Davidson diagonalization with overlap
     ethr =  1.92E-03,  avg # of iterations =  2.2

     total cpu time spent up to now is        3.0 secs

     total energy              =    -361.40383686 Ry
     estimated scf accuracy    <       0.12895165 Ry

     iteration #  3     ecut=    50.00 Ry     beta= 0.30
     Davidson diagonalization with overlap
     ethr =  3.58E-04,  avg # of iterations =  6.2

     total cpu time spent up to now is        4.4 secs

     total energy              =    -361.47494243 Ry
     estimated scf accuracy    <       0.07419115 Ry

     iteration #  4     ecut=    50.00 Ry     beta= 0.30
     Davidson diagonalization with overlap
     ethr =  2.06E-04,  avg # of iterations =  2.0

     total cpu time spent up to now is        5.2 secs

     total energy              =    -361.48645032 Ry
     estimated scf accuracy    <       0.01348193 Ry

     iteration #  5     ecut=    50.00 Ry     beta= 0.30
     Davidson diagonalization with overlap
     ethr =  3.74E-05,  avg # of iterations =  9.4

     total cpu time spent up to now is        7.2 secs

     total energy              =    -361.55345947 Ry
     estimated scf accuracy    <       0.40179144 Ry

     iteration #  6     ecut=    50.00 Ry     beta= 0.30
     Davidson diagonalization with overlap
     ethr =  3.74E-05,  avg # of iterations =  4.1

     total cpu time spent up to now is        8.2 secs

     total energy              =    -361.41844886 Ry
     estimated scf accuracy    <       0.26322620 Ry

     iteration #  7     ecut=    50.00 Ry     beta= 0.30
     Davidson diagonalization with overlap
     ethr =  3.74E-05,  avg # of iterations =  9.0

     total cpu time spent up to now is       10.2 secs

     total energy              =    -361.49140226 Ry
     estimated scf accuracy    <       0.00867949 Ry

     iteration #  8     ecut=    50.00 Ry     beta= 0.30
     Davidson diagonalization with overlap
     ethr =  2.41E-05,  avg # of iterations =  1.3

     total cpu time spent up to now is       10.9 secs

     total energy              =    -361.48651225 Ry
     estimated scf accuracy    <       0.00913515 Ry

     iteration #  9     ecut=    50.00 Ry     beta= 0.30
     Davidson diagonalization with overlap
     ethr =  2.41E-05,  avg # of iterations =  2.7

     total cpu time spent up to now is       11.7 secs

     total energy              =    -361.48792956 Ry
     estimated scf accuracy    <       0.00050596 Ry

     iteration # 10     ecut=    50.00 Ry     beta= 0.30
     Davidson diagonalization with overlap
     ethr =  1.41E-06,  avg # of iterations =  7.4

     total cpu time spent up to now is       13.2 secs

     total energy              =    -361.48880240 Ry
     estimated scf accuracy    <       0.00028232 Ry

     iteration # 11     ecut=    50.00 Ry     beta= 0.30
     Davidson diagonalization with overlap
     ethr =  7.84E-07,  avg # of iterations =  2.1

     total cpu time spent up to now is       14.0 secs

     total energy              =    -361.48883252 Ry
     estimated scf accuracy    <       0.00004382 Ry

     iteration # 12     ecut=    50.00 Ry     beta= 0.30
     Davidson diagonalization with overlap
     ethr =  1.22E-07,  avg # of iterations =  5.2

     total cpu time spent up to now is       15.2 secs

     total energy              =    -361.48886032 Ry
     estimated scf accuracy    <       0.00000113 Ry

     iteration # 13     ecut=    50.00 Ry     beta= 0.30
     Davidson diagonalization with overlap
     ethr =  3.13E-09,  avg # of iterations =  6.9

     total cpu time spent up to now is       16.7 secs

     total energy              =    -361.48886150 Ry
     estimated scf accuracy    <       0.00001146 Ry

     iteration # 14     ecut=    50.00 Ry     beta= 0.30
     Davidson diagonalization with overlap
     ethr =  3.13E-09,  avg # of iterations =  1.0

     total cpu time spent up to now is       17.4 secs

     total energy              =    -361.48885635 Ry
     estimated scf accuracy    <       0.00001042 Ry

     iteration # 15     ecut=    50.00 Ry     beta= 0.30
     Davidson diagonalization with overlap
     ethr =  3.13E-09,  avg # of iterations =  8.0

     total cpu time spent up to now is       19.1 secs

     total energy              =    -361.48885860 Ry
     estimated scf accuracy    <       0.00000002 Ry

     iteration # 16     ecut=    50.00 Ry     beta= 0.30
     Davidson diagonalization with overlap
     ethr =  6.20E-11,  avg # of iterations =  7.9

     total cpu time spent up to now is       20.8 secs

     total energy              =    -361.48885878 Ry
     estimated scf accuracy    <       0.00000012 Ry

     iteration # 17     ecut=    50.00 Ry     beta= 0.30
     Davidson diagonalization with overlap
     ethr =  6.20E-11,  avg # of iterations =  7.6

     total cpu time spent up to now is       22.5 secs

     total energy              =    -361.48885875 Ry
     estimated scf accuracy    <       0.00000068 Ry

     iteration # 18     ecut=    50.00 Ry     beta= 0.30
     Davidson diagonalization with overlap
     ethr =  6.20E-11,  avg # of iterations =  2.4

     total cpu time spent up to now is       23.3 secs

     total energy              =    -361.48885855 Ry
     estimated scf accuracy    <       0.00000052 Ry

     iteration # 19     ecut=    50.00 Ry     beta= 0.30
     Davidson diagonalization with overlap
     ethr =  6.20E-11,  avg # of iterations =  8.4

     total cpu time spent up to now is       25.1 secs

     total energy              =    -361.48885863 Ry
     estimated scf accuracy    <       0.00000001 Ry

     iteration # 20     ecut=    50.00 Ry     beta= 0.30
     Davidson diagonalization with overlap
     ethr =  3.77E-11,  avg # of iterations =  2.1

     total cpu time spent up to now is       25.9 secs

     End of self-consistent calculation

          k = 0.0000 0.0000 0.0000 (  1555 PWs)   bands (ev):

    -9.1493  -7.8275   3.6905   4.0115   4.0115   4.0461   4.3497   4.3497
     5.8494   5.8494   6.2860   6.2860   6.6265   9.6119   9.6119  10.9817
    10.9817  11.0382

          k = 0.0000 0.0000 0.1135 (  1549 PWs)   bands (ev):

    -9.0650  -7.9193   3.5371   3.9218   4.0146   4.0146   4.3042   4.3042
     5.8984   5.8984   6.2816   6.2816   7.0569   9.7050   9.7050  10.5521
    10.8944  10.8944

          k = 0.0000 0.0000 0.2269 (  1550 PWs)   bands (ev):

    -8.8313  -8.1686   3.3561   3.6400   4.0367   4.0367   4.2003   4.2003
     6.0183   6.0183   6.2456   6.2456   7.9857   9.8091   9.9609   9.9609
    10.6511  10.6511

          k = 0.0000 0.0000-0.3404 (  1580 PWs)   bands (ev):

    -8.5040  -8.5040   3.3967   3.3967   4.0988   4.0988   4.0988   4.0988
     6.1516   6.1516   6.1516   6.1516   8.9614   8.9614  10.3093  10.3093
    10.3093  10.3093

          k = 0.0000 0.1925 0.0000 (  1551 PWs)   bands (ev):

    -8.9461  -7.7724   3.6978   3.9061   4.1036   4.1771   4.3879   4.4994
     5.7561   5.8553   6.2502   6.3188   6.7277   8.6961   9.1498   9.9063
    10.7667  10.7816

          k = 0.0000 0.1925 0.1135 (  1545 PWs)   bands (ev):

    -8.8688  -7.8507   3.5849   3.7004   4.1113   4.1476   4.3477   4.4494
     5.8280   5.9009   6.3055   6.3120   7.1221   8.8054   9.2647   9.7020
    10.6657  10.7659

          k = 0.0000 0.1925 0.2269 (  1540 PWs)   bands (ev):

    -8.6558  -8.0661   3.3269   3.4560   4.1157   4.1446   4.2486   4.3352
     5.9877   6.0146   6.2520   6.2808   8.0171   9.1075   9.3543   9.5745
    10.3841  10.4536

          k = 0.0000 0.1925-0.3404 (  1550 PWs)   bands (ev):

    -8.3618  -8.3618   3.2818   3.2818   4.1545   4.1545   4.2204   4.2204
     6.1472   6.1472   6.1583   6.1583   8.7694   8.7694   9.8149   9.8149
     9.9864   9.9864

          k = 0.0000 0.3849 0.0000 (  1532 PWs)   bands (ev):

    -8.4730  -7.7056   3.4014   3.8756   4.2455   4.3276   4.8450   4.8884
     5.7313   5.9950   6.1509   6.3654   6.8797   7.4293   8.1891   8.5428
    10.0668  10.2737

          k = 0.0000 0.3849 0.1135 (  1542 PWs)   bands (ev):

    -8.4163  -7.7495   3.3173   3.6314   4.2697   4.2994   4.6757   4.8171
     5.8202   6.0200   6.3360   6.3583   7.0187   7.6731   8.3597   8.4483
    10.1512  10.1883

          k = 0.0000 0.3849 0.2269 (  1535 PWs)   bands (ev):

    -8.2640  -7.8765   3.1373   3.2473   4.2810   4.3460   4.4696   4.6524
     6.0134   6.0868   6.2649   6.3623   7.3711   7.9277   8.7769   8.7882
     9.8087  10.1801

          k = 0.0000 0.3849-0.3404 (  1532 PWs)   bands (ev):

    -8.0639  -8.0639   3.0672   3.0672   4.3354   4.3354   4.4782   4.4782
     6.1756   6.1756   6.2129   6.2129   7.6899   7.6899   9.3179   9.3179
     9.6527   9.6527

          k = 0.0000-0.5774 0.0000 (  1522 PWs)   bands (ev):

    -8.1532  -7.7423   3.4718   3.5827   4.2883   4.4508   4.8793   5.1656
     5.9306   6.1700   6.3843   6.4421   6.8681   7.0573   7.6111   7.6741
     9.5585   9.9935

          k = 0.0000-0.5774 0.1135 (  1532 PWs)   bands (ev):

    -8.1165  -7.7592   3.3554   3.4073   4.3238   4.4096   4.7755   5.0681
     6.0455   6.1763   6.3365   6.4446   6.8926   6.9724   7.8393   8.1101
     9.7275   9.8616

          k = 0.0000-0.5774 0.2269 (  1536 PWs)   bands (ev):

    -8.0218  -7.8138   3.1028   3.1147   4.3979   4.4321   4.5948   4.8455
     6.1945   6.2221   6.2691   6.4217   6.9260   6.9279   8.3588   8.9546
     9.4920   9.9312

          k = 0.0000-0.5774-0.3404 (  1512 PWs)   bands (ev):

    -7.9077  -7.9077   2.9821   2.9821   4.4613   4.4613   4.6127   4.6127
     6.2243   6.2243   6.3496   6.3496   6.9323   6.9323   8.9564   8.9564
     9.6842   9.6842

          k = 0.1667 0.2887 0.0000 (  1533 PWs)   bands (ev):

    -8.6052  -7.7126   3.5492   3.8488   4.2742   4.2893   4.6691   4.7777
     5.6859   5.8900   6.2027   6.3528   6.9178   7.8386   8.1027   9.0059
    10.2500  10.2971

          k = 0.1667 0.2887 0.1135 (  1538 PWs)   bands (ev):

    -8.5420  -7.7667   3.4666   3.6474   4.2329   4.2418   4.5419   4.7131
     5.7745   5.9770   6.3313   6.3503   7.1823   8.0260   8.2346   8.8679
    10.1208  10.3873

          k = 0.1667 0.2887 0.2269 (  1537 PWs)   bands (ev):

    -8.3704  -7.9203   3.2756   3.2938   4.1918   4.2205   4.4331   4.5724
     5.9693   6.0714   6.2713   6.3421   7.7307   8.3691   8.7214   8.8265
     9.7706  10.2928

          k = 0.1667 0.2887-0.3404 (  1534 PWs)   bands (ev):

    -8.1409  -8.1409   3.1615   3.1615   4.2023   4.2023   4.4491   4.4491
     6.1454   6.1454   6.2134   6.2134   8.1112   8.1112   9.2475   9.2475
     9.7013   9.7013

          k = 0.1667 0.4811 0.0000 (  1537 PWs)   bands (ev):

    -8.1677  -7.7329   3.5825   3.8450   4.2129   4.4014   4.9809   5.1626
     5.8561   5.8881   6.3807   6.3871   6.6835   7.0684   7.6082   7.9830
     9.4656   9.6947

          k = 0.1667 0.4811 0.1135 (  1532 PWs)   bands (ev):

    -8.1296  -7.7515   3.4755   3.6616   4.1889   4.3616   4.8420   5.0193
     5.8615   6.0950   6.3594   6.5200   6.6877   7.2742   7.5883   8.2668
     9.4480   9.7467

          k = 0.1667 0.4811 0.2269 (  1535 PWs)   bands (ev):

    -8.0310  -7.8109   3.2485   3.3102   4.2085   4.3081   4.6951   4.8102
     5.9986   6.1403   6.3716   6.5333   6.9098   7.3538   7.8853   8.9066
     9.1691   9.9482

          k = 0.1667 0.4811-0.3404 (  1534 PWs)   bands (ev):

    -7.9112  -7.9112   3.1440   3.1440   4.2624   4.2624   4.6798   4.6798
     6.1018   6.1018   6.4406   6.4406   7.1655   7.1655   8.4686   8.4686
     9.7380   9.7380

          k = 0.3333 0.5774 0.0000 (  1530 PWs)   bands (ev):

    -7.8810  -7.8810   3.8524   4.0949   4.0949   4.5208   5.1478   5.1478
     5.7725   5.9883   5.9883   6.0676   6.4849   7.2355   7.2355   8.7283
     8.7283   9.0109

          k = 0.3333 0.5774 0.1135 (  1536 PWs)   bands (ev):

    -7.8697  -7.8697   3.8755   3.8969   3.8969   4.4329   4.9985   4.9985
     5.7954   6.0493   6.2481   6.2481   6.6727   7.1751   7.1751   8.8326
     8.9973   8.9973

          k = 0.3333 0.5774 0.2269 (  1527 PWs)   bands (ev):

    -7.8471  -7.8471   3.5369   3.5369   3.9486   4.2501   4.8720   4.8720
     5.8534   5.9985   6.5873   6.5873   7.0577   7.0577   7.1459   8.3654
     9.5185   9.5185

          k = 0.3333 0.5774-0.3404 (  1548 PWs)   bands (ev):

    -7.8357  -7.8357   3.3757   3.3757   4.0752   4.0752   4.8352   4.8352
     5.9270   5.9270   6.7528   6.7528   6.9681   6.9681   7.7545   7.7545
     9.7759   9.7759

     highest occupied level (ev):    11.0382

!    total energy              =    -361.48885863 Ry
     estimated scf accuracy    <          5.1E-09 Ry

     The total energy is the sum of the following terms:
     one-electron contribution =    -126.36571960 Ry
     hartree contribution      =     108.80716280 Ry
     xc contribution           =    -110.15565250 Ry
     ewald contribution        =    -233.77464933 Ry

     convergence has been achieved in  20 iterations

     Forces acting on atoms (cartesian axes, Ry/au):

     atom    1 type  1   force =     0.00000000   -0.00000000   -0.11190694
     atom    2 type  1   force =     0.00000000    0.00000000   -0.11190694
     atom    3 type  2   force =     0.00000000    0.00000000    0.11190694
     atom    4 type  2   force =     0.00000000    0.00000000    0.11190694
     The non-local contrib.  to forces
     atom    1 type  1   force =     0.00000000   -0.00000000   -0.31633359
     atom    2 type  1   force =     0.00000000    0.00000000   -0.31633359
     atom    3 type  2   force =     0.00000000   -0.00000000   -0.18545352
     atom    4 type  2   force =    -0.00000000    0.00000000   -0.18545352
     The ionic contribution  to forces
     atom    1 type  1   force =    -0.00000000    0.00000000   -2.21714970
     atom    2 type  1   force =     0.00000000   -0.00000000   -2.21714970
     atom    3 type  2   force =    -0.00000000    0.00000000    2.21714970
     atom    4 type  2   force =     0.00000000   -0.00000000    2.21714970
     The local contribution  to forces
     atom    1 type  1   force =    -0.00000002    0.00000001    2.39126284
     atom    2 type  1   force =     0.00000006   -0.00000003    2.39126285
     atom    3 type  2   force =    -0.00000001    0.00000000   -1.92076722
     atom    4 type  2   force =     0.00000002   -0.00000001   -1.92076724
     The core correction contribution to forces
     atom    1 type  1   force =    -0.00000000    0.00000000    0.03032918
     atom    2 type  1   force =     0.00000001   -0.00000000    0.03032918
     atom    3 type  2   force =     0.00000000   -0.00000000    0.00097569
     atom    4 type  2   force =    -0.00000000    0.00000000    0.00097569
     The Hubbard contrib.    to forces
     atom    1 type  1   force =     0.00000000    0.00000000    0.00000000
     atom    2 type  1   force =     0.00000000    0.00000000    0.00000000
     atom    3 type  2   force =     0.00000000    0.00000000    0.00000000
     atom    4 type  2   force =     0.00000000    0.00000000    0.00000000
     The SCF correction term to forces
     atom    1 type  1   force =     0.00000000   -0.00000000   -0.00002133
     atom    2 type  1   force =    -0.00000000    0.00000000   -0.00002133
     atom    3 type  2   force =     0.00000000   -0.00000000   -0.00000335
     atom    4 type  2   force =    -0.00000000    0.00000000   -0.00000335

     Total force =     0.223814     Total SCF correction =     0.000031


     Computing stress (Cartesian axis) and pressure

          total   stress  (Ry/bohr**3)                   (kbar)     P=      610.57
   0.00296875   0.00000000   0.00000000          436.72        0.00        0.00
   0.00000000   0.00296875   0.00000000            0.00      436.72        0.00
   0.00000000   0.00000000   0.00651426            0.00        0.00      958.28


     Writing all to output data dir ./ZnO_ANN.save/

     init_run     :      1.63s CPU      1.10s WALL (       1 calls)
     electrons    :     65.08s CPU     24.44s WALL (       1 calls)
     forces       :      0.59s CPU      0.26s WALL (       1 calls)
     stress       :      1.83s CPU      0.90s WALL (       1 calls)

     Called by init_run:
     wfcinit      :      0.86s CPU      0.33s WALL (       1 calls)
     potinit      :      0.19s CPU      0.19s WALL (       1 calls)
     hinit0       :      0.48s CPU      0.49s WALL (       1 calls)

     Called by electrons:
     c_bands      :     55.20s CPU     20.46s WALL (      20 calls)
     sum_band     :      7.30s CPU      2.91s WALL (      20 calls)
     v_of_rho     :      0.63s CPU      0.28s WALL (      21 calls)
     newd         :      1.83s CPU      0.75s WALL (      21 calls)
     mix_rho      :      0.10s CPU      0.05s WALL (      20 calls)

     Called by c_bands:
     init_us_2    :      0.68s CPU      0.25s WALL (    1204 calls)
     init_us_2:cp :      0.67s CPU      0.24s WALL (    1204 calls)
     cegterg      :     53.77s CPU     19.88s WALL (     560 calls)

     Called by *egterg:
     cdiaghg      :      9.72s CPU      3.24s WALL (    3299 calls)
     h_psi        :     36.23s CPU     14.56s WALL (    3327 calls)
     s_psi        :      0.86s CPU      0.26s WALL (    3327 calls)
     g_psi        :      0.27s CPU      0.07s WALL (    2739 calls)

     Called by h_psi:
     h_psi:calbec :      1.33s CPU      0.48s WALL (    3327 calls)
     vloc_psi     :     33.74s CPU     13.70s WALL (    3327 calls)
     add_vuspsi   :      0.86s CPU      0.28s WALL (    3327 calls)

     General routines
     calbec       :      1.65s CPU      0.60s WALL (    4027 calls)
     fft          :      0.59s CPU      0.39s WALL (     296 calls)
     ffts         :      0.11s CPU      0.10s WALL (      41 calls)
     fftw         :     33.13s CPU     13.53s WALL (   91638 calls)
     interpolate  :      0.12s CPU      0.10s WALL (      21 calls)

     Parallel routines

     PWSCF        :   1m 9.68s CPU     27.15s WALL


   This run was terminated on:  16: 2:54  13Jun2025            

=------------------------------------------------------------------------------=
   JOB DONE.
=------------------------------------------------------------------------------=
Note: The following floating-point exceptions are signalling: IEEE_INVALID_FLAG
