Authorization required, but no authorization protocol specified

Authorization required, but no authorization protocol specified

Authorization required, but no authorization protocol specified

Authorization required, but no authorization protocol specified

Authorization required, but no authorization protocol specified

Authorization required, but no authorization protocol specified

Authorization required, but no authorization protocol specified

Authorization required, but no authorization protocol specified

Authorization required, but no authorization protocol specified

Authorization required, but no authorization protocol specified


     Program PWSCF v.7.2 starts on 13Jun2025 at 17: 9:57 

     This program is part of the open-source Quantum ESPRESSO suite
     for quantum simulation of materials; please cite
         "P. Giannozzi et al., J. Phys.:Condens. Matter 21 395502 (2009);
         "P. Giannozzi et al., J. Phys.:Condens. Matter 29 465901 (2017);
         "P. Giannozzi et al., J. Chem. Phys. 152 154105 (2020);
          URL http://www.quantum-espresso.org", 
     in publications or presentations arising from this work. More details at
     http://www.quantum-espresso.org/quote

     Parallel version (MPI), running on     8 processors

     MPI processes distributed on     1 nodes
     120713 MiB available memory on the printing compute node when the environment starts

     Reading input from /home/jvc/QEspresso7.2/ZnO_database_python/SCFs.in/scf-6.18-1.52.in

     Current dimensions of program PWSCF are:
     Max number of different atomic species (ntypx) = 10
     Max number of k-points (npk) =  40000
     Max angular momentum in pseudopotentials (lmaxx) =  4
     file Zn.upf: wavefunction(s)  3D renormalized

     R & G space division:  proc/nbgrp/npool/nimage =       8
     Subspace diagonalization in iterative solution of the eigenvalue problem:
     a serial algorithm will be used


     Parallelization info
     --------------------
     sticks:   dense  smooth     PW     G-vecs:    dense   smooth      PW
     Min         130      64     20                 5222     1852     316
     Max         132      66     21                 5225     1855     321
     Sum        1045     517    163                41783    14827    2537

     Using Slab Decomposition



     bravais-lattice index     =            4
     lattice parameter (alat)  =       6.1788  a.u.
     unit-cell volume          =     310.0098 (a.u.)^3
     number of atoms/cell      =            4
     number of atomic types    =            2
     number of electrons       =        36.00
     number of Kohn-Sham states=           18
     kinetic-energy cutoff     =      50.0000  Ry
     charge density cutoff     =     400.0000  Ry
     scf convergence threshold =      1.0E-08
     mixing beta               =       0.3000
     number of iterations used =            8  plain     mixing
     Exchange-correlation= PBE
                           (   1   4   3   4   0   0   0)

     celldm(1)=   6.178821  celldm(2)=   0.000000  celldm(3)=   1.517497
     celldm(4)=   0.000000  celldm(5)=   0.000000  celldm(6)=   0.000000

     crystal axes: (cart. coord. in units of alat)
               a(1) = (   1.000000   0.000000   0.000000 )  
               a(2) = (  -0.500000   0.866025   0.000000 )  
               a(3) = (   0.000000   0.000000   1.517497 )  

     reciprocal axes: (cart. coord. in units 2 pi/alat)
               b(1) = (  1.000000  0.577350 -0.000000 )  
               b(2) = (  0.000000  1.154701  0.000000 )  
               b(3) = (  0.000000 -0.000000  0.658980 )  


     PseudoPot. # 1 for Zn read from file:
     /home/jvc/QEspresso7.2/ZnO_database/pseudos/Zn.upf
     MD5 check sum: 7f56cabf9682ed8c977c2f7d0c5985c5
     Pseudo is Ultrasoft + core correction, Zval = 12.0
     Generated using &quot;atomic&quot; code by A. Dal Corso  v.6.2.2
     Using radial grid of 1201 points,  6 beta functions with: 
                l(1) =   0
                l(2) =   0
                l(3) =   1
                l(4) =   1
                l(5) =   2
                l(6) =   2
     Q(r) pseudized with 0 coefficients 


     PseudoPot. # 2 for O  read from file:
     /home/jvc/QEspresso7.2/ZnO_database/pseudos/O.upf
     MD5 check sum: 91400c9766925bcf19f520983a725ff0
     Pseudo is Ultrasoft + core correction, Zval =  6.0
     Generated using &quot;atomic&quot; code by A. Dal Corso  v.6.3MaX
     Using radial grid of 1095 points,  4 beta functions with: 
                l(1) =   0
                l(2) =   0
                l(3) =   1
                l(4) =   1
     Q(r) pseudized with 0 coefficients 


     atomic species   valence    mass     pseudopotential
        Zn            12.00    63.38000     Zn( 1.00)
        O              6.00    15.99900     O ( 1.00)

     12 Sym. Ops. (no inversion) found ( 6 have fractional translation)



   Cartesian axes

     site n.     atom                  positions (alat units)
         1           Zn  tau(   1) = (   0.5000000   0.2886751   0.7597099  )
         2           Zn  tau(   2) = (  -0.0000000   0.5773503   0.0009615  )
         3           O   tau(   3) = (   0.5000000   0.2886751   1.3349062  )
         4           O   tau(   4) = (  -0.0000000   0.5773503   0.5761578  )

     number of k points=    28
                       cart. coord. in units 2pi/alat
        k(    1) = (   0.0000000   0.0000000   0.0000000), wk =   0.0092593
        k(    2) = (   0.0000000   0.0000000   0.1098300), wk =   0.0185185
        k(    3) = (   0.0000000   0.0000000   0.2196600), wk =   0.0185185
        k(    4) = (   0.0000000   0.0000000  -0.3294900), wk =   0.0092593
        k(    5) = (   0.0000000   0.1924501   0.0000000), wk =   0.0555556
        k(    6) = (   0.0000000   0.1924501   0.1098300), wk =   0.1111111
        k(    7) = (   0.0000000   0.1924501   0.2196600), wk =   0.1111111
        k(    8) = (   0.0000000   0.1924501  -0.3294900), wk =   0.0555556
        k(    9) = (   0.0000000   0.3849002   0.0000000), wk =   0.0555556
        k(   10) = (   0.0000000   0.3849002   0.1098300), wk =   0.1111111
        k(   11) = (   0.0000000   0.3849002   0.2196600), wk =   0.1111111
        k(   12) = (   0.0000000   0.3849002  -0.3294900), wk =   0.0555556
        k(   13) = (   0.0000000  -0.5773503   0.0000000), wk =   0.0277778
        k(   14) = (   0.0000000  -0.5773503   0.1098300), wk =   0.0555556
        k(   15) = (   0.0000000  -0.5773503   0.2196600), wk =   0.0555556
        k(   16) = (   0.0000000  -0.5773503  -0.3294900), wk =   0.0277778
        k(   17) = (   0.1666667   0.2886751   0.0000000), wk =   0.0555556
        k(   18) = (   0.1666667   0.2886751   0.1098300), wk =   0.1111111
        k(   19) = (   0.1666667   0.2886751   0.2196600), wk =   0.1111111
        k(   20) = (   0.1666667   0.2886751  -0.3294900), wk =   0.0555556
        k(   21) = (   0.1666667   0.4811252   0.0000000), wk =   0.1111111
        k(   22) = (   0.1666667   0.4811252   0.1098300), wk =   0.2222222
        k(   23) = (   0.1666667   0.4811252   0.2196600), wk =   0.2222222
        k(   24) = (   0.1666667   0.4811252  -0.3294900), wk =   0.1111111
        k(   25) = (   0.3333333   0.5773503   0.0000000), wk =   0.0185185
        k(   26) = (   0.3333333   0.5773503   0.1098300), wk =   0.0370370
        k(   27) = (   0.3333333   0.5773503   0.2196600), wk =   0.0370370
        k(   28) = (   0.3333333   0.5773503  -0.3294900), wk =   0.0185185

     Dense  grid:    41783 G-vectors     FFT dimensions: (  40,  40,  60)

     Smooth grid:    14827 G-vectors     FFT dimensions: (  27,  27,  48)

     Estimated max dynamical RAM per process >      24.44 MB

     Estimated total dynamical RAM >     195.55 MB

     Check: negative core charge=   -0.000002

     Initial potential from superposition of free atoms

     starting charge      35.9925, renormalised to      36.0000
     Starting wfcs are   26 randomized atomic wfcs

     total cpu time spent up to now is        1.5 secs

     Self-consistent Calculation

     iteration #  1     ecut=    50.00 Ry     beta= 0.30
     Davidson diagonalization with overlap
     ethr =  1.00E-02,  avg # of iterations =  2.0

     total cpu time spent up to now is        2.3 secs

     total energy              =    -361.46997768 Ry
     estimated scf accuracy    <       0.68637077 Ry

     iteration #  2     ecut=    50.00 Ry     beta= 0.30
     Davidson diagonalization with overlap
     ethr =  1.91E-03,  avg # of iterations =  2.0

     total cpu time spent up to now is        3.3 secs

     total energy              =    -361.55470641 Ry
     estimated scf accuracy    <       0.10001466 Ry

     iteration #  3     ecut=    50.00 Ry     beta= 0.30
     Davidson diagonalization with overlap
     ethr =  2.78E-04,  avg # of iterations =  6.2

     total cpu time spent up to now is        4.9 secs

     total energy              =    -361.58993628 Ry
     estimated scf accuracy    <       0.06811076 Ry

     iteration #  4     ecut=    50.00 Ry     beta= 0.30
     Davidson diagonalization with overlap
     ethr =  1.89E-04,  avg # of iterations =  7.5

     total cpu time spent up to now is        6.7 secs

     total energy              =    -361.64469225 Ry
     estimated scf accuracy    <       0.19772141 Ry

     iteration #  5     ecut=    50.00 Ry     beta= 0.30
     Davidson diagonalization with overlap
     ethr =  1.89E-04,  avg # of iterations =  1.0

     total cpu time spent up to now is        7.4 secs

     total energy              =    -361.55800827 Ry
     estimated scf accuracy    <       0.13128871 Ry

     iteration #  6     ecut=    50.00 Ry     beta= 0.30
     Davidson diagonalization with overlap
     ethr =  1.89E-04,  avg # of iterations =  7.1

     total cpu time spent up to now is        9.2 secs

     total energy              =    -361.62154789 Ry
     estimated scf accuracy    <       0.09214264 Ry

     iteration #  7     ecut=    50.00 Ry     beta= 0.30
     Davidson diagonalization with overlap
     ethr =  1.89E-04,  avg # of iterations =  1.1

     total cpu time spent up to now is        9.9 secs

     total energy              =    -361.62410694 Ry
     estimated scf accuracy    <       0.04210723 Ry

     iteration #  8     ecut=    50.00 Ry     beta= 0.30
     Davidson diagonalization with overlap
     ethr =  1.17E-04,  avg # of iterations =  1.2

     total cpu time spent up to now is       10.7 secs

     total energy              =    -361.62827501 Ry
     estimated scf accuracy    <       0.03777295 Ry

     iteration #  9     ecut=    50.00 Ry     beta= 0.30
     Davidson diagonalization with overlap
     ethr =  1.05E-04,  avg # of iterations =  1.0

     total cpu time spent up to now is       11.5 secs

     total energy              =    -361.62305862 Ry
     estimated scf accuracy    <       0.03761898 Ry

     iteration # 10     ecut=    50.00 Ry     beta= 0.30
     Davidson diagonalization with overlap
     ethr =  1.04E-04,  avg # of iterations =  1.4

     total cpu time spent up to now is       12.3 secs

     total energy              =    -361.62313351 Ry
     estimated scf accuracy    <       0.01960798 Ry

     iteration # 11     ecut=    50.00 Ry     beta= 0.30
     Davidson diagonalization with overlap
     ethr =  5.45E-05,  avg # of iterations =  1.0

     total cpu time spent up to now is       13.1 secs

     total energy              =    -361.62116316 Ry
     estimated scf accuracy    <       0.01636019 Ry

     iteration # 12     ecut=    50.00 Ry     beta= 0.30
     Davidson diagonalization with overlap
     ethr =  4.54E-05,  avg # of iterations =  1.5

     total cpu time spent up to now is       13.8 secs

     total energy              =    -361.62596846 Ry
     estimated scf accuracy    <       0.00932613 Ry

     iteration # 13     ecut=    50.00 Ry     beta= 0.30
     Davidson diagonalization with overlap
     ethr =  2.59E-05,  avg # of iterations =  1.1

     total cpu time spent up to now is       14.6 secs

     total energy              =    -361.62033393 Ry
     estimated scf accuracy    <       0.01682254 Ry

     iteration # 14     ecut=    50.00 Ry     beta= 0.30
     Davidson diagonalization with overlap
     ethr =  2.59E-05,  avg # of iterations =  2.0

     total cpu time spent up to now is       15.4 secs

     total energy              =    -361.61533889 Ry
     estimated scf accuracy    <       0.00664481 Ry

     iteration # 15     ecut=    50.00 Ry     beta= 0.30
     Davidson diagonalization with overlap
     ethr =  1.85E-05,  avg # of iterations =  8.6

     total cpu time spent up to now is       17.5 secs

     total energy              =    -361.63634671 Ry
     estimated scf accuracy    <       0.05456867 Ry

     iteration # 16     ecut=    50.00 Ry     beta= 0.30
     Davidson diagonalization with overlap
     ethr =  1.85E-05,  avg # of iterations =  1.0

     total cpu time spent up to now is       18.2 secs

     total energy              =    -361.62136816 Ry
     estimated scf accuracy    <       0.05412944 Ry

     iteration # 17     ecut=    50.00 Ry     beta= 0.30
     Davidson diagonalization with overlap
     ethr =  1.85E-05,  avg # of iterations =  4.5

     total cpu time spent up to now is       19.5 secs

     total energy              =    -361.61686468 Ry
     estimated scf accuracy    <       0.01334193 Ry

     iteration # 18     ecut=    50.00 Ry     beta= 0.30
     Davidson diagonalization with overlap
     ethr =  1.85E-05,  avg # of iterations =  5.9

     total cpu time spent up to now is       21.0 secs

     total energy              =    -361.62174377 Ry
     estimated scf accuracy    <       0.00174226 Ry

     iteration # 19     ecut=    50.00 Ry     beta= 0.30
     Davidson diagonalization with overlap
     ethr =  4.84E-06,  avg # of iterations =  1.9

     total cpu time spent up to now is       21.8 secs

     total energy              =    -361.62270127 Ry
     estimated scf accuracy    <       0.00093867 Ry

     iteration # 20     ecut=    50.00 Ry     beta= 0.30
     Davidson diagonalization with overlap
     ethr =  2.61E-06,  avg # of iterations =  3.7

     total cpu time spent up to now is       22.8 secs

     total energy              =    -361.62348622 Ry
     estimated scf accuracy    <       0.00347603 Ry

     iteration # 21     ecut=    50.00 Ry     beta= 0.30
     Davidson diagonalization with overlap
     ethr =  2.61E-06,  avg # of iterations =  2.5

     total cpu time spent up to now is       23.7 secs

     total energy              =    -361.62313583 Ry
     estimated scf accuracy    <       0.00536061 Ry

     iteration # 22     ecut=    50.00 Ry     beta= 0.30
     Davidson diagonalization with overlap
     ethr =  2.61E-06,  avg # of iterations =  1.0

     total cpu time spent up to now is       24.5 secs

     total energy              =    -361.62326652 Ry
     estimated scf accuracy    <       0.00489150 Ry

     iteration # 23     ecut=    50.00 Ry     beta= 0.30
     Davidson diagonalization with overlap
     ethr =  2.61E-06,  avg # of iterations =  1.0

     total cpu time spent up to now is       25.3 secs

     total energy              =    -361.62078920 Ry
     estimated scf accuracy    <       0.00529413 Ry

     iteration # 24     ecut=    50.00 Ry     beta= 0.30
     Davidson diagonalization with overlap
     ethr =  2.61E-06,  avg # of iterations =  6.4

     total cpu time spent up to now is       26.9 secs

     total energy              =    -361.62231936 Ry
     estimated scf accuracy    <       0.00003861 Ry

     iteration # 25     ecut=    50.00 Ry     beta= 0.30
     Davidson diagonalization with overlap
     ethr =  1.07E-07,  avg # of iterations = 12.4

     total cpu time spent up to now is       29.8 secs

     total energy              =    -361.62189277 Ry
     estimated scf accuracy    <       0.00615890 Ry

     iteration # 26     ecut=    50.00 Ry     beta= 0.30
     Davidson diagonalization with overlap
     ethr =  1.07E-07,  avg # of iterations = 10.1

     total cpu time spent up to now is       32.2 secs

     total energy              =    -361.62199421 Ry
     estimated scf accuracy    <       0.00158560 Ry

     iteration # 27     ecut=    50.00 Ry     beta= 0.30
     Davidson diagonalization with overlap
     ethr =  1.07E-07,  avg # of iterations =  4.2

     total cpu time spent up to now is       33.3 secs

     total energy              =    -361.62174870 Ry
     estimated scf accuracy    <       0.00109708 Ry

     iteration # 28     ecut=    50.00 Ry     beta= 0.30
     Davidson diagonalization with overlap
     ethr =  1.07E-07,  avg # of iterations =  7.8

     total cpu time spent up to now is       35.1 secs

     total energy              =    -361.62172130 Ry
     estimated scf accuracy    <       0.00024613 Ry

     iteration # 29     ecut=    50.00 Ry     beta= 0.30
     Davidson diagonalization with overlap
     ethr =  1.07E-07,  avg # of iterations =  6.7

     total cpu time spent up to now is       36.7 secs

     total energy              =    -361.62175111 Ry
     estimated scf accuracy    <       0.00000883 Ry

     iteration # 30     ecut=    50.00 Ry     beta= 0.30
     Davidson diagonalization with overlap
     ethr =  2.45E-08,  avg # of iterations =  5.4

     total cpu time spent up to now is       38.0 secs

     total energy              =    -361.62175564 Ry
     estimated scf accuracy    <       0.00000072 Ry

     iteration # 31     ecut=    50.00 Ry     beta= 0.30
     Davidson diagonalization with overlap
     ethr =  2.00E-09,  avg # of iterations =  4.2

     total cpu time spent up to now is       39.1 secs

     total energy              =    -361.62175572 Ry
     estimated scf accuracy    <       0.00000038 Ry

     iteration # 32     ecut=    50.00 Ry     beta= 0.30
     Davidson diagonalization with overlap
     ethr =  1.05E-09,  avg # of iterations =  3.8

     total cpu time spent up to now is       40.1 secs

     total energy              =    -361.62175580 Ry
     estimated scf accuracy    <       0.00000003 Ry

     iteration # 33     ecut=    50.00 Ry     beta= 0.30
     Davidson diagonalization with overlap
     ethr =  7.67E-11,  avg # of iterations =  6.1

     total cpu time spent up to now is       41.6 secs

     End of self-consistent calculation

          k = 0.0000 0.0000 0.0000 (  1839 PWs)   bands (ev):

   -10.5763  -9.6975   1.9800   1.9800   1.9932   2.0246   2.2223   2.2223
     3.2168   3.2168   3.4900   3.4900   3.7270   6.7729   6.7729   7.7685
     7.7685   7.7980

          k = 0.0000 0.0000 0.1098 (  1839 PWs)   bands (ev):

   -10.5200  -9.7588   1.8604   1.9203   1.9851   1.9851   2.1935   2.1935
     3.2449   3.2449   3.4829   3.4829   4.0991   6.8420   6.8420   7.2565
     7.7048   7.7048

          k = 0.0000 0.0000 0.2197 (  1827 PWs)   bands (ev):

   -10.3642  -9.9246   1.6595   1.7576   2.0071   2.0071   2.1256   2.1256
     3.3150   3.3150   3.4544   3.4544   4.8721   6.5004   7.0295   7.0295
     7.5284   7.5284

          k = 0.0000 0.0000-0.3295 (  1798 PWs)   bands (ev):

   -10.1469 -10.1469   1.6329   1.6329   2.0553   2.0553   2.0553   2.0553
     3.3950   3.3950   3.3950   3.3950   5.7094   5.7094   7.2817   7.2817
     7.2817   7.2817

          k = 0.0000 0.1925 0.0000 (  1848 PWs)   bands (ev):

   -10.4283  -9.6504   1.8029   2.0550   2.0822   2.1229   2.3370   2.3447
     3.1577   3.2194   3.5073   3.5334   3.7626   5.9155   6.4056   6.6838
     7.5881   7.5923

          k = 0.0000 0.1925 0.1098 (  1842 PWs)   bands (ev):

   -10.3773  -9.7031   1.7516   1.9172   2.0639   2.0864   2.2686   2.3124
     3.2008   3.2456   3.4962   3.5270   4.1592   6.0005   6.4899   6.5100
     7.5172   7.5421

          k = 0.0000 0.1925 0.2197 (  1832 PWs)   bands (ev):

   -10.2368  -9.8470   1.6212   1.6608   2.0777   2.0949   2.1852   2.2359
     3.2963   3.3120   3.4580   3.4836   4.9067   6.0340   6.3771   6.7162
     7.2716   7.3088

          k = 0.0000 0.1925-0.3295 (  1842 PWs)   bands (ev):

   -10.0428 -10.0428   1.5584   1.5584   2.1143   2.1143   2.1543   2.1543
     3.3914   3.3914   3.4013   3.4013   5.5708   5.5708   6.8003   6.8003
     7.0169   7.0169

          k = 0.0000 0.3849 0.0000 (  1852 PWs)   bands (ev):

   -10.0901  -9.5838   1.6302   2.0242   2.1717   2.3129   2.6531   2.7200
     3.1639   3.3079   3.5331   3.5533   3.9327   4.6203   5.5276   5.6487
     6.9938   7.1998

          k = 0.0000 0.3849 0.1098 (  1854 PWs)   bands (ev):

   -10.0541  -9.6149   1.5766   1.8754   2.1932   2.2815   2.5507   2.6060
     3.2039   3.3220   3.5145   3.6037   4.1619   4.8125   5.4746   5.7689
     7.0652   7.1052

          k = 0.0000 0.3849 0.2197 (  1855 PWs)   bands (ev):

    -9.9567  -9.7024   1.4685   1.5913   2.2578   2.2592   2.3858   2.4918
     3.3197   3.3603   3.4690   3.5510   4.4774   4.9420   5.8329   6.0785
     6.8426   7.0120

          k = 0.0000 0.3849-0.3295 (  1848 PWs)   bands (ev):

    -9.8271  -9.8271   1.4401   1.4401   2.2933   2.2933   2.3628   2.3628
     3.4132   3.4132   3.4464   3.4464   4.7359   4.7359   6.4714   6.4714
     6.5564   6.5564

          k = 0.0000-0.5774 0.0000 (  1882 PWs)   bands (ev):

    -9.8684  -9.5956   1.6878   1.9237   2.2075   2.4759   2.6233   2.8573
     3.2677   3.4164   3.5444   3.6024   4.1285   4.2785   4.9007   5.2170
     6.5307   6.9832

          k = 0.0000-0.5774 0.1098 (  1852 PWs)   bands (ev):

    -9.8461  -9.6094   1.6172   1.7769   2.2378   2.4415   2.5759   2.7952
     3.3494   3.4203   3.5199   3.6027   4.0679   4.2362   5.2597   5.3671
     6.6666   6.8797

          k = 0.0000-0.5774 0.2197 (  1846 PWs)   bands (ev):

    -9.7880  -9.6508   1.4732   1.5243   2.3269   2.4161   2.4905   2.6421
     3.4313   3.4712   3.4792   3.5923   4.0401   4.1552   5.7348   5.9658
     6.5917   6.8114

          k = 0.0000-0.5774-0.3295 (  1848 PWs)   bands (ev):

    -9.7152  -9.7152   1.4078   1.4078   2.4319   2.4319   2.4689   2.4689
     3.4499   3.4499   3.5530   3.5530   4.0809   4.0809   6.1807   6.1807
     6.5812   6.5812

          k = 0.1667 0.2887 0.0000 (  1847 PWs)   bands (ev):

   -10.1835  -9.5943   1.7374   1.9622   2.1843   2.2461   2.5712   2.6594
     3.1098   3.2471   3.5264   3.5516   3.9214   5.1454   5.3792   5.9905
     7.1595   7.1942

          k = 0.1667 0.2887 0.1098 (  1856 PWs)   bands (ev):

   -10.1427  -9.6318   1.6791   1.8696   2.1652   2.2054   2.4622   2.5287
     3.1655   3.2953   3.5106   3.5890   4.2425   5.3145   5.4151   5.9371
     7.0598   7.2369

          k = 0.1667 0.2887 0.2197 (  1860 PWs)   bands (ev):

   -10.0319  -9.7362   1.5550   1.6259   2.1535   2.1879   2.3319   2.4304
     3.2891   3.3486   3.4704   3.5376   4.7400   5.3282   5.8720   6.0577
     6.7900   7.1184

          k = 0.1667 0.2887-0.3295 (  1844 PWs)   bands (ev):

    -9.8825  -9.8825   1.5012   1.5012   2.1754   2.1754   2.3372   2.3372
     3.3954   3.3954   3.4426   3.4426   5.0785   5.0785   6.3828   6.3828
     6.6399   6.6399

          k = 0.1667 0.4811 0.0000 (  1854 PWs)   bands (ev):

    -9.8770  -9.5901   1.7920   2.0456   2.2242   2.3789   2.7570   2.8918
     3.2303   3.2637   3.5504   3.6850   3.8821   4.4657   4.8091   5.1803
     6.4946   6.6988

          k = 0.1667 0.4811 0.1098 (  1857 PWs)   bands (ev):

    -9.8539  -9.6050   1.7290   1.9320   2.1830   2.3620   2.6542   2.7852
     3.2296   3.3690   3.5401   3.7206   3.9259   4.5550   4.8624   5.4373
     6.5041   6.7080

          k = 0.1667 0.4811 0.2197 (  1858 PWs)   bands (ev):

    -9.7934  -9.6491   1.5891   1.6710   2.2061   2.3314   2.5404   2.6197
     3.3184   3.3978   3.5521   3.6787   4.1015   4.4647   5.2274   6.0150
     6.2421   6.8452

          k = 0.1667 0.4811-0.3295 (  1862 PWs)   bands (ev):

    -9.7171  -9.7171   1.5337   1.5337   2.2811   2.2811   2.5183   2.5183
     3.3793   3.3793   3.6064   3.6064   4.2929   4.2929   5.7078   5.7078
     6.6574   6.6574

          k = 0.3333 0.5774 0.0000 (  1845 PWs)   bands (ev):

    -9.6820  -9.6820   1.9124   2.2100   2.2100   2.7770   2.9298   2.9298
     3.1592   3.3337   3.3578   3.3578   3.8121   4.2951   4.2951   5.8452
     5.8452   6.1660

          k = 0.3333 0.5774 0.1098 (  1848 PWs)   bands (ev):

    -9.6772  -9.6772   1.9408   2.0826   2.0826   2.6316   2.8004   2.8004
     3.1820   3.3240   3.5296   3.5296   4.0300   4.2488   4.2488   6.0148
     6.0707   6.0707

          k = 0.3333 0.5774 0.2197 (  1842 PWs)   bands (ev):

    -9.6675  -9.6675   1.8379   1.8379   2.0273   2.3861   2.6992   2.6992
     3.2183   3.2969   3.7272   3.7272   4.1696   4.1696   4.5090   5.6125
     6.4966   6.4966

          k = 0.3333 0.5774-0.3295 (  1860 PWs)   bands (ev):

    -9.6627  -9.6627   1.7256   1.7256   2.1757   2.1757   2.6712   2.6712
     3.2588   3.2588   3.8064   3.8064   4.1287   4.1287   5.0723   5.0723
     6.7026   6.7026

     highest occupied level (ev):     7.7980

!    total energy              =    -361.62175582 Ry
     estimated scf accuracy    <          2.0E-10 Ry

     The total energy is the sum of the following terms:
     one-electron contribution =    -147.97419683 Ry
     hartree contribution      =     116.07527897 Ry
     xc contribution           =    -109.68456473 Ry
     ewald contribution        =    -220.03827323 Ry

     convergence has been achieved in  33 iterations

     Forces acting on atoms (cartesian axes, Ry/au):

     atom    1 type  1   force =     0.00000000    0.00000000   -0.03271020
     atom    2 type  1   force =     0.00000000   -0.00000000   -0.03271020
     atom    3 type  2   force =     0.00000000   -0.00000000    0.03271020
     atom    4 type  2   force =     0.00000000   -0.00000000    0.03271020
     The non-local contrib.  to forces
     atom    1 type  1   force =     0.00000000   -0.00000000   -0.19010015
     atom    2 type  1   force =    -0.00000000    0.00000000   -0.19010015
     atom    3 type  2   force =     0.00000000   -0.00000000   -0.13597219
     atom    4 type  2   force =     0.00000000    0.00000000   -0.13597219
     The ionic contribution  to forces
     atom    1 type  1   force =    -0.00000000    0.00000000   -1.26207246
     atom    2 type  1   force =     0.00000000   -0.00000000   -1.26207246
     atom    3 type  2   force =    -0.00000000    0.00000000    1.26207246
     atom    4 type  2   force =     0.00000000   -0.00000000    1.26207246
     The local contribution  to forces
     atom    1 type  1   force =    -0.00000002    0.00000001    1.40435184
     atom    2 type  1   force =     0.00000006   -0.00000004    1.40435184
     atom    3 type  2   force =    -0.00000001    0.00000000   -1.09435234
     atom    4 type  2   force =     0.00000002   -0.00000001   -1.09435235
     The core correction contribution to forces
     atom    1 type  1   force =    -0.00000000    0.00000000    0.01512113
     atom    2 type  1   force =     0.00000001   -0.00000000    0.01512113
     atom    3 type  2   force =     0.00000000   -0.00000000    0.00095292
     atom    4 type  2   force =    -0.00000000    0.00000000    0.00095292
     The Hubbard contrib.    to forces
     atom    1 type  1   force =     0.00000000    0.00000000    0.00000000
     atom    2 type  1   force =     0.00000000    0.00000000    0.00000000
     atom    3 type  2   force =     0.00000000    0.00000000    0.00000000
     atom    4 type  2   force =     0.00000000    0.00000000    0.00000000
     The SCF correction term to forces
     atom    1 type  1   force =    -0.00000000    0.00000000   -0.00001280
     atom    2 type  1   force =     0.00000000   -0.00000000   -0.00001280
     atom    3 type  2   force =    -0.00000000    0.00000000    0.00000711
     atom    4 type  2   force =     0.00000000   -0.00000000    0.00000711

     Total force =     0.065420     Total SCF correction =     0.000021


     Computing stress (Cartesian axis) and pressure

          total   stress  (Ry/bohr**3)                   (kbar)     P=      102.76
   0.00030496  -0.00000000   0.00000000           44.86       -0.00        0.00
  -0.00000000   0.00030496   0.00000000           -0.00       44.86        0.00
   0.00000000   0.00000000   0.00148563            0.00        0.00      218.54


     Writing all to output data dir ./ZnO_ANN.save/

     init_run     :      1.80s CPU      1.19s WALL (       1 calls)
     electrons    :    106.08s CPU     40.05s WALL (       1 calls)
     forces       :      0.68s CPU      0.33s WALL (       1 calls)
     stress       :      2.18s CPU      1.10s WALL (       1 calls)

     Called by init_run:
     wfcinit      :      0.99s CPU      0.38s WALL (       1 calls)
     potinit      :      0.22s CPU      0.22s WALL (       1 calls)
     hinit0       :      0.47s CPU      0.48s WALL (       1 calls)

     Called by electrons:
     c_bands      :     87.10s CPU     32.48s WALL (      33 calls)
     sum_band     :     14.08s CPU      5.58s WALL (      33 calls)
     v_of_rho     :      1.07s CPU      0.47s WALL (      34 calls)
     newd         :      3.57s CPU      1.44s WALL (      34 calls)
     mix_rho      :      0.18s CPU      0.08s WALL (      33 calls)

     Called by c_bands:
     init_us_2    :      1.29s CPU      0.46s WALL (    1932 calls)
     init_us_2:cp :      1.26s CPU      0.45s WALL (    1932 calls)
     cegterg      :     84.24s CPU     31.38s WALL (     924 calls)

     Called by *egterg:
     cdiaghg      :     13.80s CPU      4.49s WALL (    4659 calls)
     h_psi        :     57.94s CPU     23.71s WALL (    4687 calls)
     s_psi        :      1.29s CPU      0.39s WALL (    4687 calls)
     g_psi        :      0.42s CPU      0.11s WALL (    3735 calls)

     Called by h_psi:
     h_psi:calbec :      1.92s CPU      0.71s WALL (    4687 calls)
     vloc_psi     :     54.24s CPU     22.42s WALL (    4687 calls)
     add_vuspsi   :      1.27s CPU      0.42s WALL (    4687 calls)

     General routines
     calbec       :      2.47s CPU      0.89s WALL (    5751 calls)
     fft          :      0.87s CPU      0.51s WALL (     465 calls)
     ffts         :      0.14s CPU      0.11s WALL (      67 calls)
     fftw         :     55.10s CPU     22.84s WALL (  131166 calls)
     interpolate  :      0.16s CPU      0.13s WALL (      34 calls)

     Parallel routines

     PWSCF        :   1m51.26s CPU     43.14s WALL


   This run was terminated on:  17:10:40  13Jun2025            

=------------------------------------------------------------------------------=
   JOB DONE.
=------------------------------------------------------------------------------=
Note: The following floating-point exceptions are signalling: IEEE_INVALID_FLAG
