Authorization required, but no authorization protocol specified

Authorization required, but no authorization protocol specified

Authorization required, but no authorization protocol specified

Authorization required, but no authorization protocol specified

Authorization required, but no authorization protocol specified

Authorization required, but no authorization protocol specified

Authorization required, but no authorization protocol specified

Authorization required, but no authorization protocol specified

Authorization required, but no authorization protocol specified

Authorization required, but no authorization protocol specified


     Program PWSCF v.7.2 starts on 13Jun2025 at 15:56: 8 

     This program is part of the open-source Quantum ESPRESSO suite
     for quantum simulation of materials; please cite
         "P. Giannozzi et al., J. Phys.:Condens. Matter 21 395502 (2009);
         "P. Giannozzi et al., J. Phys.:Condens. Matter 29 465901 (2017);
         "P. Giannozzi et al., J. Chem. Phys. 152 154105 (2020);
          URL http://www.quantum-espresso.org", 
     in publications or presentations arising from this work. More details at
     http://www.quantum-espresso.org/quote

     Parallel version (MPI), running on     8 processors

     MPI processes distributed on     1 nodes
     120737 MiB available memory on the printing compute node when the environment starts

     Reading input from /home/jvc/QEspresso7.2/ZnO_database_python/SCFs.in/scf-5.81-1.63.in

     Current dimensions of program PWSCF are:
     Max number of different atomic species (ntypx) = 10
     Max number of k-points (npk) =  40000
     Max angular momentum in pseudopotentials (lmaxx) =  4
     file Zn.upf: wavefunction(s)  3D renormalized

     R & G space division:  proc/nbgrp/npool/nimage =       8
     Subspace diagonalization in iterative solution of the eigenvalue problem:
     a serial algorithm will be used


     Parallelization info
     --------------------
     sticks:   dense  smooth     PW     G-vecs:    dense   smooth      PW
     Min         116      57     18                 4668     1641     286
     Max         117      58     20                 4671     1646     289
     Sum         931     463    151                37351    13153    2297

     Using Slab Decomposition



     bravais-lattice index     =            4
     lattice parameter (alat)  =       5.8081  a.u.
     unit-cell volume          =     276.6639 (a.u.)^3
     number of atoms/cell      =            4
     number of atomic types    =            2
     number of electrons       =        36.00
     number of Kohn-Sham states=           18
     kinetic-energy cutoff     =      50.0000  Ry
     charge density cutoff     =     400.0000  Ry
     scf convergence threshold =      1.0E-08
     mixing beta               =       0.3000
     number of iterations used =            8  plain     mixing
     Exchange-correlation= PBE
                           (   1   4   3   4   0   0   0)

     celldm(1)=   5.808092  celldm(2)=   0.000000  celldm(3)=   1.630502
     celldm(4)=   0.000000  celldm(5)=   0.000000  celldm(6)=   0.000000

     crystal axes: (cart. coord. in units of alat)
               a(1) = (   1.000000   0.000000   0.000000 )  
               a(2) = (  -0.500000   0.866025   0.000000 )  
               a(3) = (   0.000000   0.000000   1.630502 )  

     reciprocal axes: (cart. coord. in units 2 pi/alat)
               b(1) = (  1.000000  0.577350 -0.000000 )  
               b(2) = (  0.000000  1.154701  0.000000 )  
               b(3) = (  0.000000 -0.000000  0.613308 )  


     PseudoPot. # 1 for Zn read from file:
     /home/jvc/QEspresso7.2/ZnO_database/pseudos/Zn.upf
     MD5 check sum: 7f56cabf9682ed8c977c2f7d0c5985c5
     Pseudo is Ultrasoft + core correction, Zval = 12.0
     Generated using &quot;atomic&quot; code by A. Dal Corso  v.6.2.2
     Using radial grid of 1201 points,  6 beta functions with: 
                l(1) =   0
                l(2) =   0
                l(3) =   1
                l(4) =   1
                l(5) =   2
                l(6) =   2
     Q(r) pseudized with 0 coefficients 


     PseudoPot. # 2 for O  read from file:
     /home/jvc/QEspresso7.2/ZnO_database/pseudos/O.upf
     MD5 check sum: 91400c9766925bcf19f520983a725ff0
     Pseudo is Ultrasoft + core correction, Zval =  6.0
     Generated using &quot;atomic&quot; code by A. Dal Corso  v.6.3MaX
     Using radial grid of 1095 points,  4 beta functions with: 
                l(1) =   0
                l(2) =   0
                l(3) =   1
                l(4) =   1
     Q(r) pseudized with 0 coefficients 


     atomic species   valence    mass     pseudopotential
        Zn            12.00    63.38000     Zn( 1.00)
        O              6.00    15.99900     O ( 1.00)

     12 Sym. Ops. (no inversion) found ( 6 have fractional translation)



   Cartesian axes

     site n.     atom                  positions (alat units)
         1           Zn  tau(   1) = (   0.5000000   0.2886751   0.8162840  )
         2           Zn  tau(   2) = (  -0.0000000   0.5773503   0.0010331  )
         3           O   tau(   3) = (   0.5000000   0.2886751   1.4343141  )
         4           O   tau(   4) = (  -0.0000000   0.5773503   0.6190631  )

     number of k points=    28
                       cart. coord. in units 2pi/alat
        k(    1) = (   0.0000000   0.0000000   0.0000000), wk =   0.0092593
        k(    2) = (   0.0000000   0.0000000   0.1022180), wk =   0.0185185
        k(    3) = (   0.0000000   0.0000000   0.2044360), wk =   0.0185185
        k(    4) = (   0.0000000   0.0000000  -0.3066540), wk =   0.0092593
        k(    5) = (   0.0000000   0.1924501   0.0000000), wk =   0.0555556
        k(    6) = (   0.0000000   0.1924501   0.1022180), wk =   0.1111111
        k(    7) = (   0.0000000   0.1924501   0.2044360), wk =   0.1111111
        k(    8) = (   0.0000000   0.1924501  -0.3066540), wk =   0.0555556
        k(    9) = (   0.0000000   0.3849002   0.0000000), wk =   0.0555556
        k(   10) = (   0.0000000   0.3849002   0.1022180), wk =   0.1111111
        k(   11) = (   0.0000000   0.3849002   0.2044360), wk =   0.1111111
        k(   12) = (   0.0000000   0.3849002  -0.3066540), wk =   0.0555556
        k(   13) = (   0.0000000  -0.5773503   0.0000000), wk =   0.0277778
        k(   14) = (   0.0000000  -0.5773503   0.1022180), wk =   0.0555556
        k(   15) = (   0.0000000  -0.5773503   0.2044360), wk =   0.0555556
        k(   16) = (   0.0000000  -0.5773503  -0.3066540), wk =   0.0277778
        k(   17) = (   0.1666667   0.2886751   0.0000000), wk =   0.0555556
        k(   18) = (   0.1666667   0.2886751   0.1022180), wk =   0.1111111
        k(   19) = (   0.1666667   0.2886751   0.2044360), wk =   0.1111111
        k(   20) = (   0.1666667   0.2886751  -0.3066540), wk =   0.0555556
        k(   21) = (   0.1666667   0.4811252   0.0000000), wk =   0.1111111
        k(   22) = (   0.1666667   0.4811252   0.1022180), wk =   0.2222222
        k(   23) = (   0.1666667   0.4811252   0.2044360), wk =   0.2222222
        k(   24) = (   0.1666667   0.4811252  -0.3066540), wk =   0.1111111
        k(   25) = (   0.3333333   0.5773503   0.0000000), wk =   0.0185185
        k(   26) = (   0.3333333   0.5773503   0.1022180), wk =   0.0370370
        k(   27) = (   0.3333333   0.5773503   0.2044360), wk =   0.0370370
        k(   28) = (   0.3333333   0.5773503  -0.3066540), wk =   0.0185185

     Dense  grid:    37351 G-vectors     FFT dimensions: (  40,  40,  64)

     Smooth grid:    13153 G-vectors     FFT dimensions: (  27,  27,  48)

     Estimated max dynamical RAM per process >      22.28 MB

     Estimated total dynamical RAM >     178.22 MB

     Check: negative core charge=   -0.000002

     Initial potential from superposition of free atoms

     starting charge      35.9925, renormalised to      36.0000
     Starting wfcs are   26 randomized atomic wfcs

     total cpu time spent up to now is        1.5 secs

     Self-consistent Calculation

     iteration #  1     ecut=    50.00 Ry     beta= 0.30
     Davidson diagonalization with overlap
     ethr =  1.00E-02,  avg # of iterations =  2.0

     total cpu time spent up to now is        2.3 secs

     total energy              =    -361.43919614 Ry
     estimated scf accuracy    <       0.67111349 Ry

     iteration #  2     ecut=    50.00 Ry     beta= 0.30
     Davidson diagonalization with overlap
     ethr =  1.86E-03,  avg # of iterations =  2.0

     total cpu time spent up to now is        3.2 secs

     total energy              =    -361.49471998 Ry
     estimated scf accuracy    <       0.12138362 Ry

     iteration #  3     ecut=    50.00 Ry     beta= 0.30
     Davidson diagonalization with overlap
     ethr =  3.37E-04,  avg # of iterations =  6.0

     total cpu time spent up to now is        4.8 secs

     total energy              =    -361.55953006 Ry
     estimated scf accuracy    <       0.08335670 Ry

     iteration #  4     ecut=    50.00 Ry     beta= 0.30
     Davidson diagonalization with overlap
     ethr =  2.32E-04,  avg # of iterations =  2.1

     total cpu time spent up to now is        5.6 secs

     total energy              =    -361.57657377 Ry
     estimated scf accuracy    <       0.01290954 Ry

     iteration #  5     ecut=    50.00 Ry     beta= 0.30
     Davidson diagonalization with overlap
     ethr =  3.59E-05,  avg # of iterations = 10.0

     total cpu time spent up to now is        8.0 secs

     total energy              =    -361.65261020 Ry
     estimated scf accuracy    <       0.51298512 Ry

     iteration #  6     ecut=    50.00 Ry     beta= 0.30
     Davidson diagonalization with overlap
     ethr =  3.59E-05,  avg # of iterations =  5.2

     total cpu time spent up to now is        9.3 secs

     total energy              =    -361.53176791 Ry
     estimated scf accuracy    <       0.30608141 Ry

     iteration #  7     ecut=    50.00 Ry     beta= 0.30
     Davidson diagonalization with overlap
     ethr =  3.59E-05,  avg # of iterations =  8.8

     total cpu time spent up to now is       11.4 secs

     total energy              =    -361.57539436 Ry
     estimated scf accuracy    <       0.00421299 Ry

     iteration #  8     ecut=    50.00 Ry     beta= 0.30
     Davidson diagonalization with overlap
     ethr =  1.17E-05,  avg # of iterations =  8.2

     total cpu time spent up to now is       13.3 secs

     total energy              =    -361.58432215 Ry
     estimated scf accuracy    <       0.02351806 Ry

     iteration #  9     ecut=    50.00 Ry     beta= 0.30
     Davidson diagonalization with overlap
     ethr =  1.17E-05,  avg # of iterations =  1.0

     total cpu time spent up to now is       14.0 secs

     total energy              =    -361.57627277 Ry
     estimated scf accuracy    <       0.02286764 Ry

     iteration # 10     ecut=    50.00 Ry     beta= 0.30
     Davidson diagonalization with overlap
     ethr =  1.17E-05,  avg # of iterations =  4.8

     total cpu time spent up to now is       15.3 secs

     total energy              =    -361.57692291 Ry
     estimated scf accuracy    <       0.00293979 Ry

     iteration # 11     ecut=    50.00 Ry     beta= 0.30
     Davidson diagonalization with overlap
     ethr =  8.17E-06,  avg # of iterations =  4.0

     total cpu time spent up to now is       16.4 secs

     total energy              =    -361.57786213 Ry
     estimated scf accuracy    <       0.00000345 Ry

     iteration # 12     ecut=    50.00 Ry     beta= 0.30
     Davidson diagonalization with overlap
     ethr =  9.58E-09,  avg # of iterations = 13.3

     total cpu time spent up to now is       19.4 secs

     total energy              =    -361.57794563 Ry
     estimated scf accuracy    <       0.00028413 Ry

     iteration # 13     ecut=    50.00 Ry     beta= 0.30
     Davidson diagonalization with overlap
     ethr =  9.58E-09,  avg # of iterations = 12.1

     total cpu time spent up to now is       22.3 secs

     total energy              =    -361.57802788 Ry
     estimated scf accuracy    <       0.00005057 Ry

     iteration # 14     ecut=    50.00 Ry     beta= 0.30
     Davidson diagonalization with overlap
     ethr =  9.58E-09,  avg # of iterations =  8.0

     total cpu time spent up to now is       24.2 secs

     total energy              =    -361.57803684 Ry
     estimated scf accuracy    <       0.00000049 Ry

     iteration # 15     ecut=    50.00 Ry     beta= 0.30
     Davidson diagonalization with overlap
     ethr =  1.36E-09,  avg # of iterations =  9.8

     total cpu time spent up to now is       26.4 secs

     total energy              =    -361.57803646 Ry
     estimated scf accuracy    <       0.00000791 Ry

     iteration # 16     ecut=    50.00 Ry     beta= 0.30
     Davidson diagonalization with overlap
     ethr =  1.36E-09,  avg # of iterations =  6.9

     total cpu time spent up to now is       28.1 secs

     total energy              =    -361.57803655 Ry
     estimated scf accuracy    <       0.00000140 Ry

     iteration # 17     ecut=    50.00 Ry     beta= 0.30
     Davidson diagonalization with overlap
     ethr =  1.36E-09,  avg # of iterations =  2.9

     total cpu time spent up to now is       29.0 secs

     total energy              =    -361.57803826 Ry
     estimated scf accuracy    <       0.00000054 Ry

     iteration # 18     ecut=    50.00 Ry     beta= 0.30
     Davidson diagonalization with overlap
     ethr =  1.36E-09,  avg # of iterations =  7.6

     total cpu time spent up to now is       30.8 secs

     total energy              =    -361.57803259 Ry
     estimated scf accuracy    <       0.00000842 Ry

     iteration # 19     ecut=    50.00 Ry     beta= 0.30
     Davidson diagonalization with overlap
     ethr =  1.36E-09,  avg # of iterations = 11.1

     total cpu time spent up to now is       33.4 secs

     total energy              =    -361.57803582 Ry
     estimated scf accuracy    <       0.00001070 Ry

     iteration # 20     ecut=    50.00 Ry     beta= 0.30
     Davidson diagonalization with overlap
     ethr =  1.36E-09,  avg # of iterations =  8.0

     total cpu time spent up to now is       35.3 secs

     total energy              =    -361.57803629 Ry
     estimated scf accuracy    <       0.00000092 Ry

     iteration # 21     ecut=    50.00 Ry     beta= 0.30
     Davidson diagonalization with overlap
     ethr =  1.36E-09,  avg # of iterations =  6.2

     total cpu time spent up to now is       36.8 secs

     total energy              =    -361.57803663 Ry
     estimated scf accuracy    <       0.00000018 Ry

     iteration # 22     ecut=    50.00 Ry     beta= 0.30
     Davidson diagonalization with overlap
     ethr =  5.00E-10,  avg # of iterations =  1.8

     total cpu time spent up to now is       37.6 secs

     total energy              =    -361.57803661 Ry
     estimated scf accuracy    <       0.00000007 Ry

     iteration # 23     ecut=    50.00 Ry     beta= 0.30
     Davidson diagonalization with overlap
     ethr =  1.83E-10,  avg # of iterations =  4.1

     total cpu time spent up to now is       38.8 secs

     End of self-consistent calculation

          k = 0.0000 0.0000 0.0000 (  1665 PWs)   bands (ev):

    -9.7057  -8.7517   2.7768   3.1544   3.1544   3.2213   3.3915   3.3915
     4.8556   4.8556   5.1422   5.1422   5.4960   8.8082   8.8082   9.5805
     9.7583   9.7583

          k = 0.0000 0.0000 0.1022 (  1677 PWs)   bands (ev):

    -9.6462  -8.8203   2.7306   3.1435   3.1629   3.1629   3.3674   3.3674
     4.8812   4.8812   5.1309   5.1309   5.7827   8.8721   8.8721   9.0508
     9.6954   9.6954

          k = 0.0000 0.0000 0.2044 (  1671 PWs)   bands (ev):

    -9.4805  -9.0041   2.6945   2.9583   3.1916   3.1916   3.3088   3.3088
     4.9475   4.9475   5.0932   5.0932   6.4848   8.2240   9.0469   9.0469
     9.5228   9.5228

          k = 0.0000 0.0000-0.3067 (  1654 PWs)   bands (ev):

    -9.2468  -9.2468   2.7766   2.7766   3.2429   3.2429   3.2429   3.2429
     5.0275   5.0275   5.0275   5.0275   7.3499   7.3499   9.2855   9.2855
     9.2855   9.2855

          k = 0.0000 0.1925 0.0000 (  1671 PWs)   bands (ev):

    -9.5076  -8.6622   2.8789   3.0987   3.2586   3.2822   3.4063   3.5433
     4.7625   4.8512   5.1582   5.2210   5.4704   7.7995   8.3897   8.6411
     9.3633   9.5200

          k = 0.0000 0.1925 0.1022 (  1665 PWs)   bands (ev):

    -9.4536  -8.7214   2.8151   2.9556   3.2708   3.3034   3.4070   3.5161
     4.8051   4.8761   5.1427   5.1882   5.8019   7.8696   8.4620   8.4678
     9.2732   9.4463

          k = 0.0000 0.1925 0.2044 (  1659 PWs)   bands (ev):

    -9.3042  -8.8814   2.6892   2.7851   3.3055   3.3083   3.3794   3.4486
     4.9059   4.9409   5.0955   5.1221   6.5403   7.9067   8.2127   8.6791
     8.9549   9.2436

          k = 0.0000 0.1925-0.3067 (  1650 PWs)   bands (ev):

    -9.0954  -9.0954   2.6740   2.6740   3.3334   3.3334   3.3712   3.3712
     5.0227   5.0227   5.0228   5.0228   7.3303   7.3303   8.5221   8.5221
     8.9636   8.9636

          k = 0.0000 0.3849 0.0000 (  1661 PWs)   bands (ev):

    -9.0580  -8.5086   2.6211   3.0706   3.4309   3.5859   3.8906   3.9152
     4.6752   4.9559   5.1872   5.1965   5.6550   6.1869   7.3157   7.5152
     8.7141   8.9921

          k = 0.0000 0.3849 0.1022 (  1648 PWs)   bands (ev):

    -9.0201  -8.5437   2.5779   2.9127   3.4553   3.5706   3.8068   3.8722
     4.7467   4.9700   5.1682   5.2600   5.8495   6.3275   7.2477   7.6255
     8.7261   8.8996

          k = 0.0000 0.3849 0.2044 (  1654 PWs)   bands (ev):

    -8.9171  -8.6415   2.4966   2.6432   3.5267   3.5650   3.6899   3.7646
     4.8960   5.0084   5.1205   5.1967   6.2150   6.6049   7.3623   7.9142
     8.5587   8.6444

          k = 0.0000 0.3849-0.3067 (  1650 PWs)   bands (ev):

    -8.7780  -8.7780   2.4920   2.4920   3.6051   3.6051   3.6368   3.6368
     5.0582   5.0582   5.0626   5.0626   6.4830   6.4830   8.0207   8.0207
     8.2871   8.2871

          k = 0.0000-0.5774 0.0000 (  1626 PWs)   bands (ev):

    -8.7698  -8.4792   2.7296   2.8020   3.4887   3.7975   3.9915   4.1569
     4.8758   5.0970   5.2124   5.3068   5.6298   5.8041   6.4739   7.0083
     8.1918   8.6951

          k = 0.0000-0.5774 0.1022 (  1636 PWs)   bands (ev):

    -8.7472  -8.4952   2.6582   2.6986   3.5219   3.7709   3.9470   4.0957
     4.9620   5.1004   5.1935   5.3059   5.6327   5.7394   6.7826   7.1447
     8.2702   8.5935

          k = 0.0000-0.5774 0.2044 (  1650 PWs)   bands (ev):

    -8.6875  -8.5415   2.5142   2.5156   3.6187   3.7567   3.8605   3.9446
     5.1079   5.1113   5.1588   5.2848   5.6372   5.6734   7.4299   7.4879
     8.3120   8.3187

          k = 0.0000-0.5774-0.3067 (  1652 PWs)   bands (ev):

    -8.6112  -8.6112   2.4383   2.4383   3.7686   3.7686   3.7894   3.7894
     5.1302   5.1302   5.2207   5.2207   5.6459   5.6459   7.9137   7.9137
     8.0376   8.0376

          k = 0.1667 0.2887 0.0000 (  1659 PWs)   bands (ev):

    -9.1816  -8.5410   2.7877   3.0515   3.4305   3.4521   3.6827   3.8302
     4.6825   4.8721   5.1756   5.2501   5.6056   6.8180   7.2529   7.8141
     8.9544   8.9589

          k = 0.1667 0.2887 0.1022 (  1657 PWs)   bands (ev):

    -9.1386  -8.5834   2.7384   2.9255   3.4126   3.4146   3.6508   3.7953
     4.7422   4.9191   5.1578   5.2663   5.8877   6.9331   7.2846   7.7700
     8.8612   8.9297

          k = 0.1667 0.2887 0.2044 (  1652 PWs)   bands (ev):

    -9.0210  -8.6999   2.6340   2.6933   3.3995   3.4022   3.6159   3.7127
     4.8829   4.9818   5.1118   5.1883   6.4880   7.1918   7.3424   7.8754
     8.5996   8.6876

          k = 0.1667 0.2887-0.3067 (  1664 PWs)   bands (ev):

    -8.8602  -8.8602   2.5871   2.5871   3.4035   3.4035   3.6346   3.6346
     5.0300   5.0300   5.0645   5.0645   6.9143   6.9143   7.9892   7.9892
     8.3035   8.3035

          k = 0.1667 0.4811 0.0000 (  1645 PWs)   bands (ev):

    -8.7826  -8.4731   2.8457   3.0869   3.4402   3.6816   4.0589   4.1504
     4.7696   4.8838   5.2253   5.3298   5.5751   6.1469   6.3629   6.8178
     8.1226   8.3925

          k = 0.1667 0.4811 0.1022 (  1646 PWs)   bands (ev):

    -8.7589  -8.4904   2.7877   2.9746   3.4288   3.6461   3.9851   4.0732
     4.8030   5.0046   5.2179   5.4320   5.5252   6.2112   6.4758   6.9796
     8.1066   8.3734

          k = 0.1667 0.4811 0.2044 (  1643 PWs)   bands (ev):

    -8.6960  -8.5405   2.6681   2.7507   3.4506   3.5888   3.9012   3.9506
     4.9257   5.0559   5.2254   5.3901   5.6995   6.1163   6.8775   7.4377
     7.8876   8.3751

          k = 0.1667 0.4811-0.3067 (  1646 PWs)   bands (ev):

    -8.6150  -8.6150   2.6269   2.6269   3.5198   3.5198   3.8828   3.8828
     5.0258   5.0258   5.2833   5.2833   5.9296   5.9296   7.3304   7.3304
     8.1216   8.1216

          k = 0.3333 0.5774 0.0000 (  1632 PWs)   bands (ev):

    -8.5507  -8.5507   3.0270   3.5150   3.5150   3.6681   4.2700   4.2700
     4.7148   4.8625   4.8625   4.9215   5.5778   6.0126   6.0126   7.4686
     7.4686   7.6088

          k = 0.3333 0.5774 0.1022 (  1659 PWs)   bands (ev):

    -8.5467  -8.5467   3.0533   3.3603   3.3603   3.5929   4.1945   4.1945
     4.7372   4.9102   5.0686   5.0686   5.7202   5.9551   5.9551   7.4632
     7.6376   7.6376

          k = 0.3333 0.5774 0.2044 (  1647 PWs)   bands (ev):

    -8.5386  -8.5386   3.0972   3.0972   3.1334   3.4298   4.1353   4.1353
     4.7839   4.8791   5.3759   5.3759   5.8220   5.8220   6.0926   7.0817
     7.9726   7.9726

          k = 0.3333 0.5774-0.3067 (  1614 PWs)   bands (ev):

    -8.5345  -8.5345   2.9833   2.9833   3.2636   3.2636   4.1190   4.1190
     4.8347   4.8347   5.5748   5.5748   5.6847   5.6847   6.5842   6.5842
     8.1406   8.1406

     highest occupied level (ev):     9.7583

!    total energy              =    -361.57803664 Ry
     estimated scf accuracy    <          1.4E-09 Ry

     The total energy is the sum of the following terms:
     one-electron contribution =    -133.84592154 Ry
     hartree contribution      =     111.09417860 Ry
     xc contribution           =    -109.94422550 Ry
     ewald contribution        =    -228.88206819 Ry

     convergence has been achieved in  23 iterations

     Forces acting on atoms (cartesian axes, Ry/au):

     atom    1 type  1   force =    -0.00000000    0.00000000    0.00792673
     atom    2 type  1   force =     0.00000000    0.00000000    0.00792673
     atom    3 type  2   force =     0.00000000    0.00000000   -0.00792673
     atom    4 type  2   force =     0.00000000   -0.00000000   -0.00792673
     The non-local contrib.  to forces
     atom    1 type  1   force =     0.00000000    0.00000000    0.02505386
     atom    2 type  1   force =    -0.00000000    0.00000000    0.02505386
     atom    3 type  2   force =     0.00000000    0.00000000    0.02543358
     atom    4 type  2   force =     0.00000000    0.00000000    0.02543358
     The ionic contribution  to forces
     atom    1 type  1   force =    -0.00000000    0.00000000    0.30117985
     atom    2 type  1   force =     0.00000000   -0.00000000    0.30117985
     atom    3 type  2   force =    -0.00000000    0.00000000   -0.30117985
     atom    4 type  2   force =     0.00000000   -0.00000000   -0.30117985
     The local contribution  to forces
     atom    1 type  1   force =    -0.00000002    0.00000001   -0.31641683
     atom    2 type  1   force =     0.00000006   -0.00000003   -0.31641682
     atom    3 type  2   force =    -0.00000001    0.00000000    0.26800704
     atom    4 type  2   force =     0.00000002   -0.00000001    0.26800703
     The core correction contribution to forces
     atom    1 type  1   force =    -0.00000000    0.00000000   -0.00188814
     atom    2 type  1   force =     0.00000001   -0.00000000   -0.00188814
     atom    3 type  2   force =     0.00000000   -0.00000000   -0.00018607
     atom    4 type  2   force =    -0.00000000    0.00000000   -0.00018607
     The Hubbard contrib.    to forces
     atom    1 type  1   force =     0.00000000    0.00000000    0.00000000
     atom    2 type  1   force =     0.00000000    0.00000000    0.00000000
     atom    3 type  2   force =     0.00000000    0.00000000    0.00000000
     atom    4 type  2   force =     0.00000000    0.00000000    0.00000000
     The SCF correction term to forces
     atom    1 type  1   force =     0.00000000   -0.00000000   -0.00000106
     atom    2 type  1   force =    -0.00000000    0.00000000   -0.00000106
     atom    3 type  2   force =     0.00000000   -0.00000000   -0.00000048
     atom    4 type  2   force =    -0.00000000    0.00000000   -0.00000048

     Total force =     0.015853     Total SCF correction =     0.000002


     Computing stress (Cartesian axis) and pressure

          total   stress  (Ry/bohr**3)                   (kbar)     P=      346.27
   0.00244823   0.00000000  -0.00000000          360.15        0.00       -0.00
   0.00000000   0.00244823  -0.00000000            0.00      360.15       -0.00
  -0.00000000  -0.00000000   0.00216525           -0.00       -0.00      318.52


     Writing all to output data dir ./ZnO_ANN.save/

     init_run     :      1.70s CPU      1.16s WALL (       1 calls)
     electrons    :     99.08s CPU     37.28s WALL (       1 calls)
     forces       :      0.58s CPU      0.27s WALL (       1 calls)
     stress       :      2.00s CPU      1.00s WALL (       1 calls)

     Called by init_run:
     wfcinit      :      0.91s CPU      0.37s WALL (       1 calls)
     potinit      :      0.21s CPU      0.21s WALL (       1 calls)
     hinit0       :      0.47s CPU      0.48s WALL (       1 calls)

     Called by electrons:
     c_bands      :     86.47s CPU     32.25s WALL (      23 calls)
     sum_band     :      9.45s CPU      3.76s WALL (      23 calls)
     v_of_rho     :      0.74s CPU      0.32s WALL (      24 calls)
     newd         :      2.27s CPU      0.91s WALL (      24 calls)
     mix_rho      :      0.11s CPU      0.05s WALL (      23 calls)

     Called by c_bands:
     init_us_2    :      0.82s CPU      0.29s WALL (    1372 calls)
     init_us_2:cp :      0.81s CPU      0.29s WALL (    1372 calls)
     cegterg      :     84.60s CPU     31.54s WALL (     644 calls)

     Called by *egterg:
     cdiaghg      :     14.41s CPU      4.76s WALL (    4730 calls)
     h_psi        :     57.81s CPU     23.48s WALL (    4758 calls)
     s_psi        :      1.19s CPU      0.38s WALL (    4758 calls)
     g_psi        :      0.43s CPU      0.11s WALL (    4086 calls)

     Called by h_psi:
     h_psi:calbec :      1.83s CPU      0.69s WALL (    4758 calls)
     vloc_psi     :     54.35s CPU     22.25s WALL (    4758 calls)
     add_vuspsi   :      1.16s CPU      0.40s WALL (    4758 calls)

     General routines
     calbec       :      2.20s CPU      0.82s WALL (    5542 calls)
     fft          :      0.66s CPU      0.42s WALL (     335 calls)
     ffts         :      0.12s CPU      0.11s WALL (      47 calls)
     fftw         :     53.20s CPU     21.84s WALL (  125866 calls)
     interpolate  :      0.14s CPU      0.11s WALL (      24 calls)

     Parallel routines

     PWSCF        :   1m43.91s CPU     40.17s WALL


   This run was terminated on:  15:56:48  13Jun2025            

=------------------------------------------------------------------------------=
   JOB DONE.
=------------------------------------------------------------------------------=
Note: The following floating-point exceptions are signalling: IEEE_INVALID_FLAG
