Authorization required, but no authorization protocol specified

Authorization required, but no authorization protocol specified

Authorization required, but no authorization protocol specified

Authorization required, but no authorization protocol specified

Authorization required, but no authorization protocol specified

Authorization required, but no authorization protocol specified

Authorization required, but no authorization protocol specified

Authorization required, but no authorization protocol specified

Authorization required, but no authorization protocol specified

Authorization required, but no authorization protocol specified


     Program PWSCF v.7.2 starts on 13Jun2025 at 18:25: 6 

     This program is part of the open-source Quantum ESPRESSO suite
     for quantum simulation of materials; please cite
         "P. Giannozzi et al., J. Phys.:Condens. Matter 21 395502 (2009);
         "P. Giannozzi et al., J. Phys.:Condens. Matter 29 465901 (2017);
         "P. Giannozzi et al., J. Chem. Phys. 152 154105 (2020);
          URL http://www.quantum-espresso.org", 
     in publications or presentations arising from this work. More details at
     http://www.quantum-espresso.org/quote

     Parallel version (MPI), running on     8 processors

     MPI processes distributed on     1 nodes
     120701 MiB available memory on the printing compute node when the environment starts

     Reading input from /home/jvc/QEspresso7.2/ZnO_database_python/SCFs.in/scf-6.43-1.74.in

     Current dimensions of program PWSCF are:
     Max number of different atomic species (ntypx) = 10
     Max number of k-points (npk) =  40000
     Max angular momentum in pseudopotentials (lmaxx) =  4
     file Zn.upf: wavefunction(s)  3D renormalized

     R & G space division:  proc/nbgrp/npool/nimage =       8
     Subspace diagonalization in iterative solution of the eigenvalue problem:
     a serial algorithm will be used


     Parallelization info
     --------------------
     sticks:   dense  smooth     PW     G-vecs:    dense   smooth      PW
     Min         143      71     20                 6775     2392     388
     Max         145      72     21                 6778     2395     397
     Sum        1147     571    163                54209    19149    3129

     Using Slab Decomposition



     bravais-lattice index     =            4
     lattice parameter (alat)  =       6.4260  a.u.
     unit-cell volume          =     400.6557 (a.u.)^3
     number of atoms/cell      =            4
     number of atomic types    =            2
     number of electrons       =        36.00
     number of Kohn-Sham states=           18
     kinetic-energy cutoff     =      50.0000  Ry
     charge density cutoff     =     400.0000  Ry
     scf convergence threshold =      1.0E-08
     mixing beta               =       0.3000
     number of iterations used =            8  plain     mixing
     Exchange-correlation= PBE
                           (   1   4   3   4   0   0   0)

     celldm(1)=   6.425974  celldm(2)=   0.000000  celldm(3)=   1.743507
     celldm(4)=   0.000000  celldm(5)=   0.000000  celldm(6)=   0.000000

     crystal axes: (cart. coord. in units of alat)
               a(1) = (   1.000000   0.000000   0.000000 )  
               a(2) = (  -0.500000   0.866025   0.000000 )  
               a(3) = (   0.000000   0.000000   1.743507 )  

     reciprocal axes: (cart. coord. in units 2 pi/alat)
               b(1) = (  1.000000  0.577350 -0.000000 )  
               b(2) = (  0.000000  1.154701  0.000000 )  
               b(3) = (  0.000000 -0.000000  0.573557 )  


     PseudoPot. # 1 for Zn read from file:
     /home/jvc/QEspresso7.2/ZnO_database/pseudos/Zn.upf
     MD5 check sum: 7f56cabf9682ed8c977c2f7d0c5985c5
     Pseudo is Ultrasoft + core correction, Zval = 12.0
     Generated using &quot;atomic&quot; code by A. Dal Corso  v.6.2.2
     Using radial grid of 1201 points,  6 beta functions with: 
                l(1) =   0
                l(2) =   0
                l(3) =   1
                l(4) =   1
                l(5) =   2
                l(6) =   2
     Q(r) pseudized with 0 coefficients 


     PseudoPot. # 2 for O  read from file:
     /home/jvc/QEspresso7.2/ZnO_database/pseudos/O.upf
     MD5 check sum: 91400c9766925bcf19f520983a725ff0
     Pseudo is Ultrasoft + core correction, Zval =  6.0
     Generated using &quot;atomic&quot; code by A. Dal Corso  v.6.3MaX
     Using radial grid of 1095 points,  4 beta functions with: 
                l(1) =   0
                l(2) =   0
                l(3) =   1
                l(4) =   1
     Q(r) pseudized with 0 coefficients 


     atomic species   valence    mass     pseudopotential
        Zn            12.00    63.38000     Zn( 1.00)
        O              6.00    15.99900     O ( 1.00)

     12 Sym. Ops. (no inversion) found ( 6 have fractional translation)



   Cartesian axes

     site n.     atom                  positions (alat units)
         1           Zn  tau(   1) = (   0.5000000   0.2886751   0.8728582  )
         2           Zn  tau(   2) = (  -0.0000000   0.5773503   0.0011047  )
         3           O   tau(   3) = (   0.5000000   0.2886751   1.5337220  )
         4           O   tau(   4) = (  -0.0000000   0.5773503   0.6619685  )

     number of k points=    28
                       cart. coord. in units 2pi/alat
        k(    1) = (   0.0000000   0.0000000   0.0000000), wk =   0.0092593
        k(    2) = (   0.0000000   0.0000000   0.0955928), wk =   0.0185185
        k(    3) = (   0.0000000   0.0000000   0.1911855), wk =   0.0185185
        k(    4) = (   0.0000000   0.0000000  -0.2867783), wk =   0.0092593
        k(    5) = (   0.0000000   0.1924501   0.0000000), wk =   0.0555556
        k(    6) = (   0.0000000   0.1924501   0.0955928), wk =   0.1111111
        k(    7) = (   0.0000000   0.1924501   0.1911855), wk =   0.1111111
        k(    8) = (   0.0000000   0.1924501  -0.2867783), wk =   0.0555556
        k(    9) = (   0.0000000   0.3849002   0.0000000), wk =   0.0555556
        k(   10) = (   0.0000000   0.3849002   0.0955928), wk =   0.1111111
        k(   11) = (   0.0000000   0.3849002   0.1911855), wk =   0.1111111
        k(   12) = (   0.0000000   0.3849002  -0.2867783), wk =   0.0555556
        k(   13) = (   0.0000000  -0.5773503   0.0000000), wk =   0.0277778
        k(   14) = (   0.0000000  -0.5773503   0.0955928), wk =   0.0555556
        k(   15) = (   0.0000000  -0.5773503   0.1911855), wk =   0.0555556
        k(   16) = (   0.0000000  -0.5773503  -0.2867783), wk =   0.0277778
        k(   17) = (   0.1666667   0.2886751   0.0000000), wk =   0.0555556
        k(   18) = (   0.1666667   0.2886751   0.0955928), wk =   0.1111111
        k(   19) = (   0.1666667   0.2886751   0.1911855), wk =   0.1111111
        k(   20) = (   0.1666667   0.2886751  -0.2867783), wk =   0.0555556
        k(   21) = (   0.1666667   0.4811252   0.0000000), wk =   0.1111111
        k(   22) = (   0.1666667   0.4811252   0.0955928), wk =   0.2222222
        k(   23) = (   0.1666667   0.4811252   0.1911855), wk =   0.2222222
        k(   24) = (   0.1666667   0.4811252  -0.2867783), wk =   0.1111111
        k(   25) = (   0.3333333   0.5773503   0.0000000), wk =   0.0185185
        k(   26) = (   0.3333333   0.5773503   0.0955928), wk =   0.0370370
        k(   27) = (   0.3333333   0.5773503   0.1911855), wk =   0.0370370
        k(   28) = (   0.3333333   0.5773503  -0.2867783), wk =   0.0185185

     Dense  grid:    54209 G-vectors     FFT dimensions: (  45,  45,  72)

     Smooth grid:    19149 G-vectors     FFT dimensions: (  30,  30,  54)

     Estimated max dynamical RAM per process >      30.86 MB

     Estimated total dynamical RAM >     246.86 MB

     Check: negative core charge=   -0.000002

     Initial potential from superposition of free atoms

     starting charge      35.9925, renormalised to      36.0000
     Starting wfcs are   26 randomized atomic wfcs

     total cpu time spent up to now is        1.7 secs

     Self-consistent Calculation

     iteration #  1     ecut=    50.00 Ry     beta= 0.30
     Davidson diagonalization with overlap
     ethr =  1.00E-02,  avg # of iterations =  1.3

     total cpu time spent up to now is        2.6 secs

     total energy              =    -361.39910173 Ry
     estimated scf accuracy    <       0.79300462 Ry

     iteration #  2     ecut=    50.00 Ry     beta= 0.30
     Davidson diagonalization with overlap
     ethr =  2.20E-03,  avg # of iterations =  2.2

     total cpu time spent up to now is        3.7 secs

     total energy              =    -361.52231288 Ry
     estimated scf accuracy    <       0.08772282 Ry

     iteration #  3     ecut=    50.00 Ry     beta= 0.30
     Davidson diagonalization with overlap
     ethr =  2.44E-04,  avg # of iterations =  6.3

     total cpu time spent up to now is        5.5 secs

     total energy              =    -361.53109862 Ry
     estimated scf accuracy    <       0.11292777 Ry

     iteration #  4     ecut=    50.00 Ry     beta= 0.30
     Davidson diagonalization with overlap
     ethr =  2.44E-04,  avg # of iterations =  8.9

     total cpu time spent up to now is        7.8 secs

     total energy              =    -361.62092297 Ry
     estimated scf accuracy    <       0.40377650 Ry

     iteration #  5     ecut=    50.00 Ry     beta= 0.30
     Davidson diagonalization with overlap
     ethr =  2.44E-04,  avg # of iterations =  1.4

     total cpu time spent up to now is        8.8 secs

     total energy              =    -361.45329003 Ry
     estimated scf accuracy    <       0.26193231 Ry

     iteration #  6     ecut=    50.00 Ry     beta= 0.30
     Davidson diagonalization with overlap
     ethr =  2.44E-04,  avg # of iterations =  8.0

     total cpu time spent up to now is       10.6 secs

     total energy              =    -361.58315720 Ry
     estimated scf accuracy    <       0.27210787 Ry

     iteration #  7     ecut=    50.00 Ry     beta= 0.30
     Davidson diagonalization with overlap
     ethr =  2.44E-04,  avg # of iterations =  2.0

     total cpu time spent up to now is       11.7 secs

     total energy              =    -361.58791405 Ry
     estimated scf accuracy    <       0.12511735 Ry

     iteration #  8     ecut=    50.00 Ry     beta= 0.30
     Davidson diagonalization with overlap
     ethr =  2.44E-04,  avg # of iterations =  1.9

     total cpu time spent up to now is       12.7 secs

     total energy              =    -361.59217088 Ry
     estimated scf accuracy    <       0.09231129 Ry

     iteration #  9     ecut=    50.00 Ry     beta= 0.30
     Davidson diagonalization with overlap
     ethr =  2.44E-04,  avg # of iterations =  1.4

     total cpu time spent up to now is       13.6 secs

     total energy              =    -361.59247288 Ry
     estimated scf accuracy    <       0.07569411 Ry

     iteration # 10     ecut=    50.00 Ry     beta= 0.30
     Davidson diagonalization with overlap
     ethr =  2.10E-04,  avg # of iterations =  1.0

     total cpu time spent up to now is       14.5 secs

     total energy              =    -361.58032981 Ry
     estimated scf accuracy    <       0.06089174 Ry

     iteration # 11     ecut=    50.00 Ry     beta= 0.30
     Davidson diagonalization with overlap
     ethr =  1.69E-04,  avg # of iterations =  3.0

     total cpu time spent up to now is       15.6 secs

     total energy              =    -361.58197197 Ry
     estimated scf accuracy    <       0.01859416 Ry

     iteration # 12     ecut=    50.00 Ry     beta= 0.30
     Davidson diagonalization with overlap
     ethr =  5.17E-05,  avg # of iterations =  5.7

     total cpu time spent up to now is       17.0 secs

     total energy              =    -361.58907191 Ry
     estimated scf accuracy    <       0.00002060 Ry

     iteration # 13     ecut=    50.00 Ry     beta= 0.30
     Davidson diagonalization with overlap
     c_bands:  1 eigenvalues not converged
     ethr =  5.72E-08,  avg # of iterations = 12.2

     total cpu time spent up to now is       19.9 secs

     total energy              =    -361.58947763 Ry
     estimated scf accuracy    <       0.00008857 Ry

     iteration # 14     ecut=    50.00 Ry     beta= 0.30
     Davidson diagonalization with overlap
     ethr =  5.72E-08,  avg # of iterations =  3.6

     total cpu time spent up to now is       21.1 secs

     total energy              =    -361.58938369 Ry
     estimated scf accuracy    <       0.00018174 Ry

     iteration # 15     ecut=    50.00 Ry     beta= 0.30
     Davidson diagonalization with overlap
     c_bands:  1 eigenvalues not converged
     ethr =  5.72E-08,  avg # of iterations = 13.8

     total cpu time spent up to now is       24.5 secs

     total energy              =    -361.58949752 Ry
     estimated scf accuracy    <       0.00221307 Ry

     iteration # 16     ecut=    50.00 Ry     beta= 0.30
     Davidson diagonalization with overlap
     ethr =  5.72E-08,  avg # of iterations = 10.4

     total cpu time spent up to now is       27.0 secs

     total energy              =    -361.58928586 Ry
     estimated scf accuracy    <       0.00068670 Ry

     iteration # 17     ecut=    50.00 Ry     beta= 0.30
     Davidson diagonalization with overlap
     ethr =  5.72E-08,  avg # of iterations = 12.0

     total cpu time spent up to now is       29.9 secs

     total energy              =    -361.58950895 Ry
     estimated scf accuracy    <       0.00004912 Ry

     iteration # 18     ecut=    50.00 Ry     beta= 0.30
     Davidson diagonalization with overlap
     ethr =  5.72E-08,  avg # of iterations = 10.5

     total cpu time spent up to now is       32.4 secs

     total energy              =    -361.58975429 Ry
     estimated scf accuracy    <       0.00066935 Ry

     iteration # 19     ecut=    50.00 Ry     beta= 0.30
     Davidson diagonalization with overlap
     ethr =  5.72E-08,  avg # of iterations =  8.1

     total cpu time spent up to now is       34.4 secs

     total energy              =    -361.59072416 Ry
     estimated scf accuracy    <       0.00157184 Ry

     iteration # 20     ecut=    50.00 Ry     beta= 0.30
     Davidson diagonalization with overlap
     ethr =  5.72E-08,  avg # of iterations = 12.6

     total cpu time spent up to now is       37.5 secs

     total energy              =    -361.59044122 Ry
     estimated scf accuracy    <       0.00720661 Ry

     iteration # 21     ecut=    50.00 Ry     beta= 0.30
     Davidson diagonalization with overlap
     ethr =  5.72E-08,  avg # of iterations =  8.7

     total cpu time spent up to now is       39.7 secs

     total energy              =    -361.58969522 Ry
     estimated scf accuracy    <       0.00476848 Ry

     iteration # 22     ecut=    50.00 Ry     beta= 0.30
     Davidson diagonalization with overlap
     ethr =  5.72E-08,  avg # of iterations = 10.9

     total cpu time spent up to now is       42.3 secs

     total energy              =    -361.58926046 Ry
     estimated scf accuracy    <       0.00179969 Ry

     iteration # 23     ecut=    50.00 Ry     beta= 0.30
     Davidson diagonalization with overlap
     c_bands:  1 eigenvalues not converged
     ethr =  5.72E-08,  avg # of iterations = 12.8

     total cpu time spent up to now is       45.3 secs

     total energy              =    -361.58950176 Ry
     estimated scf accuracy    <       0.00009945 Ry

     iteration # 24     ecut=    50.00 Ry     beta= 0.30
     Davidson diagonalization with overlap
     ethr =  5.72E-08,  avg # of iterations =  5.9

     total cpu time spent up to now is       47.0 secs

     total energy              =    -361.58935761 Ry
     estimated scf accuracy    <       0.00041473 Ry

     iteration # 25     ecut=    50.00 Ry     beta= 0.30
     Davidson diagonalization with overlap
     ethr =  5.72E-08,  avg # of iterations = 10.3

     total cpu time spent up to now is       49.4 secs

     total energy              =    -361.58942138 Ry
     estimated scf accuracy    <       0.00000111 Ry

     iteration # 26     ecut=    50.00 Ry     beta= 0.30
     Davidson diagonalization with overlap
     ethr =  3.07E-09,  avg # of iterations =  7.0

     total cpu time spent up to now is       51.1 secs

     total energy              =    -361.58942237 Ry
     estimated scf accuracy    <       0.00000056 Ry

     iteration # 27     ecut=    50.00 Ry     beta= 0.30
     Davidson diagonalization with overlap
     ethr =  1.56E-09,  avg # of iterations =  2.2

     total cpu time spent up to now is       52.2 secs

     total energy              =    -361.58942236 Ry
     estimated scf accuracy    <       0.00000009 Ry

     iteration # 28     ecut=    50.00 Ry     beta= 0.30
     Davidson diagonalization with overlap
     ethr =  2.54E-10,  avg # of iterations =  9.5

     total cpu time spent up to now is       54.5 secs

     total energy              =    -361.58942236 Ry
     estimated scf accuracy    <       0.00000066 Ry

     iteration # 29     ecut=    50.00 Ry     beta= 0.30
     Davidson diagonalization with overlap
     ethr =  2.54E-10,  avg # of iterations =  7.0

     total cpu time spent up to now is       56.4 secs

     End of self-consistent calculation

          k = 0.0000 0.0000 0.0000 (  2407 PWs)   bands (ev):

   -12.2652 -11.9078  -0.6345  -0.6345  -0.5870  -0.5366  -0.5366  -0.1744
     0.0467   0.0467   0.1388   0.1388   0.6641   3.9823   3.9823   4.1832
     4.4130   4.4130

          k = 0.0000 0.0000 0.0956 (  2383 PWs)   bands (ev):

   -12.2421 -11.9326  -0.6296  -0.6296  -0.5947  -0.5447  -0.5447  -0.3064
     0.0544   0.0544   0.1344   0.1344   0.9278   3.6133   4.0114   4.0114
     4.3844   4.3844

          k = 0.0000 0.0000 0.1912 (  2401 PWs)   bands (ev):

   -12.1784 -11.9998  -0.6153  -0.6153  -0.6046  -0.5663  -0.5663  -0.4835
     0.0736   0.0736   0.1202   0.1202   1.4810   2.8659   4.0907   4.0907
     4.3060   4.3060

          k = 0.0000 0.0000-0.2868 (  2414 PWs)   bands (ev):

   -12.0900 -12.0900  -0.5927  -0.5927  -0.5927  -0.5927  -0.5801  -0.5801
     0.0980   0.0980   0.0980   0.0980   2.1461   2.1461   4.1986   4.1986
     4.1986   4.1986

          k = 0.0000 0.1925 0.0000 (  2411 PWs)   bands (ev):

   -12.1661 -11.8517  -0.6836  -0.5722  -0.5524  -0.4910  -0.4511  -0.1377
     0.0103   0.0461   0.1429   0.2255   0.8009   3.0551   3.3348   3.7294
     4.1171   4.2536

          k = 0.0000 0.1925 0.0956 (  2400 PWs)   bands (ev):

   -12.1456 -11.8733  -0.6873  -0.5656  -0.5641  -0.4958  -0.4608  -0.2416
     0.0235   0.0535   0.1373   0.1805   1.0632   2.9762   3.3078   3.7649
     4.0307   4.2187

          k = 0.0000 0.1925 0.1912 (  2391 PWs)   bands (ev):

   -12.0891 -11.9319  -0.6889  -0.6079  -0.5465  -0.4949  -0.4863  -0.3908
     0.0559   0.0727   0.1210   0.1362   1.5771   2.6349   3.3992   3.8300
     3.8615   4.1234

          k = 0.0000 0.1925-0.2868 (  2376 PWs)   bands (ev):

   -12.0111 -12.0111  -0.6645  -0.6645  -0.5179  -0.5179  -0.4667  -0.4667
     0.0961   0.0961   0.0978   0.0978   2.1333   2.1333   3.5970   3.5970
     3.9927   3.9927

          k = 0.0000 0.3849 0.0000 (  2398 PWs)   bands (ev):

   -11.9502 -11.7484  -0.6977  -0.5256  -0.4727  -0.2662  -0.2635  -0.0886
    -0.0003   0.0939   0.1586   0.2991   1.1974   1.7127   2.3592   3.2214
     3.7541   3.9179

          k = 0.0000 0.3849 0.0956 (  2390 PWs)   bands (ev):

   -11.9366 -11.7618  -0.7027  -0.5496  -0.4601  -0.2791  -0.2722  -0.1354
     0.0123   0.0977   0.1534   0.2554   1.2740   1.7662   2.4145   3.2692
     3.7223   3.8719

          k = 0.0000 0.3849 0.1912 (  2392 PWs)   bands (ev):

   -11.8994 -11.7985  -0.7050  -0.6129  -0.4250  -0.3206  -0.2813  -0.2249
     0.0591   0.1083   0.1401   0.1861   1.4213   1.7360   2.7233   3.3986
     3.5527   3.7460

          k = 0.0000 0.3849-0.2868 (  2390 PWs)   bands (ev):

   -11.8488 -11.8488  -0.6772  -0.6772  -0.3744  -0.3744  -0.2729  -0.2729
     0.1207   0.1207   0.1235   0.1235   1.5872   1.5872   3.1845   3.1845
     3.5731   3.5731

          k = 0.0000-0.5774 0.0000 (  2396 PWs)   bands (ev):

   -11.8211 -11.7131  -0.6513  -0.4538  -0.4414  -0.1738  -0.1669  -0.0006
     0.1532   0.1532   0.1798   0.2358   0.8823   1.3415   2.2557   2.9561
     3.3951   3.7411

          k = 0.0000-0.5774 0.0956 (  2394 PWs)   bands (ev):

   -11.8134 -11.7199  -0.6605  -0.4987  -0.4252  -0.1876  -0.1673  -0.0075
     0.1541   0.1545   0.1762   0.2347   0.8733   1.2746   2.4333   3.0108
     3.4324   3.6897

          k = 0.0000-0.5774 0.1912 (  2390 PWs)   bands (ev):

   -11.7928 -11.7388  -0.6727  -0.5881  -0.3795  -0.2424  -0.1459  -0.0505
     0.1570   0.1690   0.1789   0.2277   0.8964   1.1287   2.8322   3.1581
     3.4289   3.5489

          k = 0.0000-0.5774-0.2868 (  2380 PWs)   bands (ev):

   -11.7654 -11.7654  -0.6546  -0.6546  -0.3131  -0.3131  -0.1056  -0.1056
     0.1620   0.1620   0.2095   0.2095   0.9870   0.9870   3.2226   3.2226
     3.3550   3.3550

          k = 0.1667 0.2887 0.0000 (  2387 PWs)   bands (ev):

   -12.0079 -11.7721  -0.6389  -0.5669  -0.4563  -0.4239  -0.2911  -0.0914
    -0.0234   0.0649   0.1527   0.2937   1.1171   2.2927   2.4366   3.1997
     3.8559   3.8999

          k = 0.1667 0.2887 0.0956 (  2382 PWs)   bands (ev):

   -11.9922 -11.7880  -0.6464  -0.5683  -0.4586  -0.4334  -0.3021  -0.1714
    -0.0021   0.0763   0.1474   0.2463   1.2859   2.2384   2.5405   3.2237
     3.8072   3.8493

          k = 0.1667 0.2887 0.1912 (  2389 PWs)   bands (ev):

   -11.9491 -11.8312  -0.6554  -0.5902  -0.4576  -0.4491  -0.3277  -0.2928
     0.0498   0.0938   0.1334   0.1792   1.5917   2.0860   2.8414   3.3099
     3.6567   3.6775

          k = 0.1667 0.2887-0.2868 (  2400 PWs)   bands (ev):

   -11.8903 -11.8903  -0.6361  -0.6361  -0.4526  -0.4526  -0.3405  -0.3405
     0.1055   0.1055   0.1224   0.1224   1.8654   1.8654   3.2388   3.2388
     3.5219   3.5219

          k = 0.1667 0.4811 0.0000 (  2391 PWs)   bands (ev):

   -11.8250 -11.7115  -0.6076  -0.4255  -0.3529  -0.1966  -0.1410  -0.0907
     0.0264   0.0968   0.2026   0.3335   1.1035   1.4916   2.2488   2.5595
     3.3621   3.4983

          k = 0.1667 0.4811 0.0956 (  2395 PWs)   bands (ev):

   -11.8170 -11.7187  -0.6032  -0.4401  -0.3787  -0.2028  -0.1613  -0.1200
     0.0370   0.1157   0.2035   0.3180   1.0956   1.4580   2.3654   2.6626
     3.3179   3.5110

          k = 0.1667 0.4811 0.1912 (  2395 PWs)   bands (ev):

   -11.7954 -11.7386  -0.5931  -0.5012  -0.3829  -0.2504  -0.1919  -0.1639
     0.0830   0.1305   0.2112   0.2790   1.1286   1.3514   2.6065   2.9378
     3.1730   3.5012

          k = 0.1667 0.4811-0.2868 (  2400 PWs)   bands (ev):

   -11.7666 -11.7666  -0.5648  -0.5648  -0.3308  -0.3308  -0.1875  -0.1875
     0.1211   0.1211   0.2364   0.2364   1.2243   1.2243   2.8652   2.8652
     3.3304   3.3304

          k = 0.3333 0.5774 0.0000 (  2415 PWs)   bands (ev):

   -11.7280 -11.7280  -0.6112  -0.2612  -0.2612  -0.1675   0.0110   0.0110
     0.0219   0.0632   0.2699   0.2699   1.2635   1.2635   1.6363   2.9325
     2.9641   2.9641

          k = 0.3333 0.5774 0.0956 (  2400 PWs)   bands (ev):

   -11.7275 -11.7275  -0.5899  -0.2917  -0.2917  -0.2116  -0.0022  -0.0022
     0.0252   0.0607   0.2948   0.2948   1.2241   1.2241   1.7299   2.8449
     3.0698   3.0698

          k = 0.3333 0.5774 0.1912 (  2400 PWs)   bands (ev):

   -11.7264 -11.7264  -0.5280  -0.3517  -0.3517  -0.3160  -0.0196  -0.0196
     0.0332   0.0534   0.3353   0.3353   1.1568   1.1568   1.9738   2.6097
     3.2722   3.2722

          k = 0.3333 0.5774-0.2868 (  2400 PWs)   bands (ev):

   -11.7258 -11.7258  -0.4319  -0.4319  -0.3809  -0.3809  -0.0258  -0.0258
     0.0435   0.0435   0.3527   0.3527   1.1275   1.1275   2.2933   2.2933
     3.3705   3.3705

     highest occupied level (ev):     4.4130

!    total energy              =    -361.58942250 Ry
     estimated scf accuracy    <          3.1E-09 Ry

     The total energy is the sum of the following terms:
     one-electron contribution =    -176.66580069 Ry
     hartree contribution      =     126.35660604 Ry
     xc contribution           =    -109.19375720 Ry
     ewald contribution        =    -202.08647065 Ry

     convergence has been achieved in  29 iterations

     Forces acting on atoms (cartesian axes, Ry/au):

     atom    1 type  1   force =     0.00000000    0.00000000   -0.00389695
     atom    2 type  1   force =     0.00000000   -0.00000000   -0.00389695
     atom    3 type  2   force =     0.00000000    0.00000000    0.00389695
     atom    4 type  2   force =     0.00000000    0.00000000    0.00389695
     The non-local contrib.  to forces
     atom    1 type  1   force =     0.00000000    0.00000000    0.18691604
     atom    2 type  1   force =    -0.00000000   -0.00000000    0.18691604
     atom    3 type  2   force =     0.00000000    0.00000000    0.20764313
     atom    4 type  2   force =     0.00000000   -0.00000000    0.20764313
     The ionic contribution  to forces
     atom    1 type  1   force =    -0.00000000    0.00000000    1.45442320
     atom    2 type  1   force =     0.00000000   -0.00000000    1.45442320
     atom    3 type  2   force =    -0.00000000    0.00000000   -1.45442320
     atom    4 type  2   force =     0.00000000   -0.00000000   -1.45442320
     The local contribution  to forces
     atom    1 type  1   force =    -0.00000002    0.00000001   -1.63386802
     atom    2 type  1   force =     0.00000007   -0.00000004   -1.63386801
     atom    3 type  2   force =    -0.00000001    0.00000000    1.25254422
     atom    4 type  2   force =     0.00000002   -0.00000001    1.25254421
     The core correction contribution to forces
     atom    1 type  1   force =    -0.00000000    0.00000000   -0.01136579
     atom    2 type  1   force =     0.00000001   -0.00000001   -0.01136579
     atom    3 type  2   force =     0.00000000   -0.00000000   -0.00187152
     atom    4 type  2   force =    -0.00000000    0.00000000   -0.00187152
     The Hubbard contrib.    to forces
     atom    1 type  1   force =     0.00000000    0.00000000    0.00000000
     atom    2 type  1   force =     0.00000000    0.00000000    0.00000000
     atom    3 type  2   force =     0.00000000    0.00000000    0.00000000
     atom    4 type  2   force =     0.00000000    0.00000000    0.00000000
     The SCF correction term to forces
     atom    1 type  1   force =     0.00000000   -0.00000000   -0.00000359
     atom    2 type  1   force =    -0.00000000    0.00000000   -0.00000359
     atom    3 type  2   force =     0.00000000   -0.00000000    0.00000312
     atom    4 type  2   force =    -0.00000000    0.00000000    0.00000312

     Total force =     0.007794     Total SCF correction =     0.000007


     Computing stress (Cartesian axis) and pressure

          total   stress  (Ry/bohr**3)                   (kbar)     P=     -162.52
  -0.00095905   0.00000000   0.00000000         -141.08        0.00        0.00
   0.00000000  -0.00095905   0.00000000            0.00     -141.08        0.00
   0.00000000   0.00000000  -0.00139628            0.00        0.00     -205.40


     Writing all to output data dir ./ZnO_ANN.save/

     init_run     :      2.05s CPU      1.35s WALL (       1 calls)
     electrons    :    147.90s CPU     54.69s WALL (       1 calls)
     forces       :      0.75s CPU      0.37s WALL (       1 calls)
     stress       :      2.85s CPU      1.43s WALL (       1 calls)

     Called by init_run:
     wfcinit      :      1.15s CPU      0.44s WALL (       1 calls)
     potinit      :      0.28s CPU      0.28s WALL (       1 calls)
     hinit0       :      0.45s CPU      0.46s WALL (       1 calls)

     Called by electrons:
     c_bands      :    126.74s CPU     46.33s WALL (      29 calls)
     sum_band     :     15.49s CPU      6.05s WALL (      29 calls)
     v_of_rho     :      1.31s CPU      0.57s WALL (      30 calls)
     newd         :      4.08s CPU      1.66s WALL (      30 calls)
     mix_rho      :      0.21s CPU      0.09s WALL (      29 calls)

     Called by c_bands:
     init_us_2    :      1.52s CPU      0.54s WALL (    1708 calls)
     init_us_2:cp :      1.49s CPU      0.53s WALL (    1708 calls)
     cegterg      :    123.50s CPU     45.04s WALL (     812 calls)

     Called by *egterg:
     cdiaghg      :     19.72s CPU      6.40s WALL (    6424 calls)
     h_psi        :     82.72s CPU     33.54s WALL (    6452 calls)
     s_psi        :      1.90s CPU      0.55s WALL (    6452 calls)
     g_psi        :      0.78s CPU      0.19s WALL (    5612 calls)

     Called by h_psi:
     h_psi:calbec :      2.83s CPU      1.02s WALL (    6452 calls)
     vloc_psi     :     77.18s CPU     31.66s WALL (    6452 calls)
     add_vuspsi   :      1.92s CPU      0.63s WALL (    6452 calls)

     General routines
     calbec       :      3.35s CPU      1.20s WALL (    7404 calls)
     fft          :      0.92s CPU      0.52s WALL (     413 calls)
     ffts         :      0.17s CPU      0.14s WALL (      59 calls)
     fftw         :     74.40s CPU     30.65s WALL (  150592 calls)
     interpolate  :      0.21s CPU      0.15s WALL (      30 calls)

     Parallel routines

     PWSCF        :   2m34.07s CPU     58.33s WALL


   This run was terminated on:  18:26: 5  13Jun2025            

=------------------------------------------------------------------------------=
   JOB DONE.
=------------------------------------------------------------------------------=
Note: The following floating-point exceptions are signalling: IEEE_INVALID_FLAG
