Authorization required, but no authorization protocol specified

Authorization required, but no authorization protocol specified

Authorization required, but no authorization protocol specified

Authorization required, but no authorization protocol specified

Authorization required, but no authorization protocol specified

Authorization required, but no authorization protocol specified

Authorization required, but no authorization protocol specified

Authorization required, but no authorization protocol specified

Authorization required, but no authorization protocol specified

Authorization required, but no authorization protocol specified


     Program PWSCF v.7.2 starts on 13Jun2025 at 17:18:41 

     This program is part of the open-source Quantum ESPRESSO suite
     for quantum simulation of materials; please cite
         "P. Giannozzi et al., J. Phys.:Condens. Matter 21 395502 (2009);
         "P. Giannozzi et al., J. Phys.:Condens. Matter 29 465901 (2017);
         "P. Giannozzi et al., J. Chem. Phys. 152 154105 (2020);
          URL http://www.quantum-espresso.org", 
     in publications or presentations arising from this work. More details at
     http://www.quantum-espresso.org/quote

     Parallel version (MPI), running on     8 processors

     MPI processes distributed on     1 nodes
     120706 MiB available memory on the printing compute node when the environment starts

     Reading input from /home/jvc/QEspresso7.2/ZnO_database_python/SCFs.in/scf-6.18-1.71.in

     Current dimensions of program PWSCF are:
     Max number of different atomic species (ntypx) = 10
     Max number of k-points (npk) =  40000
     Max angular momentum in pseudopotentials (lmaxx) =  4
     file Zn.upf: wavefunction(s)  3D renormalized

     R & G space division:  proc/nbgrp/npool/nimage =       8
     Subspace diagonalization in iterative solution of the eigenvalue problem:
     a serial algorithm will be used


     Parallelization info
     --------------------
     sticks:   dense  smooth     PW     G-vecs:    dense   smooth      PW
     Min         130      64     20                 5890     2080     354
     Max         131      65     21                 5895     2085     357
     Sum        1045     517    163                47143    16667    2841

     Using Slab Decomposition



     bravais-lattice index     =            4
     lattice parameter (alat)  =       6.1788  a.u.
     unit-cell volume          =     349.5855 (a.u.)^3
     number of atoms/cell      =            4
     number of atomic types    =            2
     number of electrons       =        36.00
     number of Kohn-Sham states=           18
     kinetic-energy cutoff     =      50.0000  Ry
     charge density cutoff     =     400.0000  Ry
     scf convergence threshold =      1.0E-08
     mixing beta               =       0.3000
     number of iterations used =            8  plain     mixing
     Exchange-correlation= PBE
                           (   1   4   3   4   0   0   0)

     celldm(1)=   6.178821  celldm(2)=   0.000000  celldm(3)=   1.711220
     celldm(4)=   0.000000  celldm(5)=   0.000000  celldm(6)=   0.000000

     crystal axes: (cart. coord. in units of alat)
               a(1) = (   1.000000   0.000000   0.000000 )  
               a(2) = (  -0.500000   0.866025   0.000000 )  
               a(3) = (   0.000000   0.000000   1.711220 )  

     reciprocal axes: (cart. coord. in units 2 pi/alat)
               b(1) = (  1.000000  0.577350 -0.000000 )  
               b(2) = (  0.000000  1.154701  0.000000 )  
               b(3) = (  0.000000 -0.000000  0.584378 )  


     PseudoPot. # 1 for Zn read from file:
     /home/jvc/QEspresso7.2/ZnO_database/pseudos/Zn.upf
     MD5 check sum: 7f56cabf9682ed8c977c2f7d0c5985c5
     Pseudo is Ultrasoft + core correction, Zval = 12.0
     Generated using &quot;atomic&quot; code by A. Dal Corso  v.6.2.2
     Using radial grid of 1201 points,  6 beta functions with: 
                l(1) =   0
                l(2) =   0
                l(3) =   1
                l(4) =   1
                l(5) =   2
                l(6) =   2
     Q(r) pseudized with 0 coefficients 


     PseudoPot. # 2 for O  read from file:
     /home/jvc/QEspresso7.2/ZnO_database/pseudos/O.upf
     MD5 check sum: 91400c9766925bcf19f520983a725ff0
     Pseudo is Ultrasoft + core correction, Zval =  6.0
     Generated using &quot;atomic&quot; code by A. Dal Corso  v.6.3MaX
     Using radial grid of 1095 points,  4 beta functions with: 
                l(1) =   0
                l(2) =   0
                l(3) =   1
                l(4) =   1
     Q(r) pseudized with 0 coefficients 


     atomic species   valence    mass     pseudopotential
        Zn            12.00    63.38000     Zn( 1.00)
        O              6.00    15.99900     O ( 1.00)

     12 Sym. Ops. (no inversion) found ( 6 have fractional translation)



   Cartesian axes

     site n.     atom                  positions (alat units)
         1           Zn  tau(   1) = (   0.5000000   0.2886751   0.8566941  )
         2           Zn  tau(   2) = (  -0.0000000   0.5773503   0.0010842  )
         3           O   tau(   3) = (   0.5000000   0.2886751   1.5053197  )
         4           O   tau(   4) = (  -0.0000000   0.5773503   0.6497098  )

     number of k points=    28
                       cart. coord. in units 2pi/alat
        k(    1) = (   0.0000000   0.0000000   0.0000000), wk =   0.0092593
        k(    2) = (   0.0000000   0.0000000   0.0973964), wk =   0.0185185
        k(    3) = (   0.0000000   0.0000000   0.1947928), wk =   0.0185185
        k(    4) = (   0.0000000   0.0000000  -0.2921892), wk =   0.0092593
        k(    5) = (   0.0000000   0.1924501   0.0000000), wk =   0.0555556
        k(    6) = (   0.0000000   0.1924501   0.0973964), wk =   0.1111111
        k(    7) = (   0.0000000   0.1924501   0.1947928), wk =   0.1111111
        k(    8) = (   0.0000000   0.1924501  -0.2921892), wk =   0.0555556
        k(    9) = (   0.0000000   0.3849002   0.0000000), wk =   0.0555556
        k(   10) = (   0.0000000   0.3849002   0.0973964), wk =   0.1111111
        k(   11) = (   0.0000000   0.3849002   0.1947928), wk =   0.1111111
        k(   12) = (   0.0000000   0.3849002  -0.2921892), wk =   0.0555556
        k(   13) = (   0.0000000  -0.5773503   0.0000000), wk =   0.0277778
        k(   14) = (   0.0000000  -0.5773503   0.0973964), wk =   0.0555556
        k(   15) = (   0.0000000  -0.5773503   0.1947928), wk =   0.0555556
        k(   16) = (   0.0000000  -0.5773503  -0.2921892), wk =   0.0277778
        k(   17) = (   0.1666667   0.2886751   0.0000000), wk =   0.0555556
        k(   18) = (   0.1666667   0.2886751   0.0973964), wk =   0.1111111
        k(   19) = (   0.1666667   0.2886751   0.1947928), wk =   0.1111111
        k(   20) = (   0.1666667   0.2886751  -0.2921892), wk =   0.0555556
        k(   21) = (   0.1666667   0.4811252   0.0000000), wk =   0.1111111
        k(   22) = (   0.1666667   0.4811252   0.0973964), wk =   0.2222222
        k(   23) = (   0.1666667   0.4811252   0.1947928), wk =   0.2222222
        k(   24) = (   0.1666667   0.4811252  -0.2921892), wk =   0.1111111
        k(   25) = (   0.3333333   0.5773503   0.0000000), wk =   0.0185185
        k(   26) = (   0.3333333   0.5773503   0.0973964), wk =   0.0370370
        k(   27) = (   0.3333333   0.5773503   0.1947928), wk =   0.0370370
        k(   28) = (   0.3333333   0.5773503  -0.2921892), wk =   0.0185185

     Dense  grid:    47143 G-vectors     FFT dimensions: (  40,  40,  72)

     Smooth grid:    16667 G-vectors     FFT dimensions: (  27,  27,  48)

     Estimated max dynamical RAM per process >      27.15 MB

     Estimated total dynamical RAM >     217.19 MB

     Check: negative core charge=   -0.000002

     Initial potential from superposition of free atoms

     starting charge      35.9925, renormalised to      36.0000
     Starting wfcs are   26 randomized atomic wfcs

     total cpu time spent up to now is        1.6 secs

     Self-consistent Calculation

     iteration #  1     ecut=    50.00 Ry     beta= 0.30
     Davidson diagonalization with overlap
     ethr =  1.00E-02,  avg # of iterations =  1.7

     total cpu time spent up to now is        2.4 secs

     total energy              =    -361.46346832 Ry
     estimated scf accuracy    <       0.71833529 Ry

     iteration #  2     ecut=    50.00 Ry     beta= 0.30
     Davidson diagonalization with overlap
     ethr =  2.00E-03,  avg # of iterations =  2.0

     total cpu time spent up to now is        3.4 secs

     total energy              =    -361.57205552 Ry
     estimated scf accuracy    <       0.08493515 Ry

     iteration #  3     ecut=    50.00 Ry     beta= 0.30
     Davidson diagonalization with overlap
     ethr =  2.36E-04,  avg # of iterations =  6.3

     total cpu time spent up to now is        5.1 secs

     total energy              =    -361.59811109 Ry
     estimated scf accuracy    <       0.06583747 Ry

     iteration #  4     ecut=    50.00 Ry     beta= 0.30
     Davidson diagonalization with overlap
     ethr =  1.83E-04,  avg # of iterations =  8.3

     total cpu time spent up to now is        7.0 secs

     total energy              =    -361.64078560 Ry
     estimated scf accuracy    <       0.25403646 Ry

     iteration #  5     ecut=    50.00 Ry     beta= 0.30
     Davidson diagonalization with overlap
     ethr =  1.83E-04,  avg # of iterations =  2.0

     total cpu time spent up to now is        7.9 secs

     total energy              =    -361.52491027 Ry
     estimated scf accuracy    <       0.14655086 Ry

     iteration #  6     ecut=    50.00 Ry     beta= 0.30
     Davidson diagonalization with overlap
     ethr =  1.83E-04,  avg # of iterations =  9.3

     total cpu time spent up to now is       10.0 secs

     total energy              =    -361.59102518 Ry
     estimated scf accuracy    <       0.64251183 Ry

     iteration #  7     ecut=    50.00 Ry     beta= 0.30
     Davidson diagonalization with overlap
     ethr =  1.83E-04,  avg # of iterations =  5.3

     total cpu time spent up to now is       11.4 secs

     total energy              =    -361.63311330 Ry
     estimated scf accuracy    <       0.07694176 Ry

     iteration #  8     ecut=    50.00 Ry     beta= 0.30
     Davidson diagonalization with overlap
     ethr =  1.83E-04,  avg # of iterations =  1.1

     total cpu time spent up to now is       12.2 secs

     total energy              =    -361.62720223 Ry
     estimated scf accuracy    <       0.04918515 Ry

     iteration #  9     ecut=    50.00 Ry     beta= 0.30
     Davidson diagonalization with overlap
     ethr =  1.37E-04,  avg # of iterations =  2.0

     total cpu time spent up to now is       13.1 secs

     total energy              =    -361.62291685 Ry
     estimated scf accuracy    <       0.02426617 Ry

     iteration # 10     ecut=    50.00 Ry     beta= 0.30
     Davidson diagonalization with overlap
     ethr =  6.74E-05,  avg # of iterations =  4.3

     total cpu time spent up to now is       14.2 secs

     total energy              =    -361.62732645 Ry
     estimated scf accuracy    <       0.00240287 Ry

     iteration # 11     ecut=    50.00 Ry     beta= 0.30
     Davidson diagonalization with overlap
     ethr =  6.67E-06,  avg # of iterations =  5.9

     total cpu time spent up to now is       15.6 secs

     total energy              =    -361.62937353 Ry
     estimated scf accuracy    <       0.00016439 Ry

     iteration # 12     ecut=    50.00 Ry     beta= 0.30
     Davidson diagonalization with overlap
     ethr =  4.57E-07,  avg # of iterations =  4.5

     total cpu time spent up to now is       16.8 secs

     total energy              =    -361.62938480 Ry
     estimated scf accuracy    <       0.00004795 Ry

     iteration # 13     ecut=    50.00 Ry     beta= 0.30
     Davidson diagonalization with overlap
     ethr =  1.33E-07,  avg # of iterations =  8.1

     total cpu time spent up to now is       18.7 secs

     total energy              =    -361.62928299 Ry
     estimated scf accuracy    <       0.00025579 Ry

     iteration # 14     ecut=    50.00 Ry     beta= 0.30
     Davidson diagonalization with overlap
     ethr =  1.33E-07,  avg # of iterations = 11.2

     total cpu time spent up to now is       21.3 secs

     total energy              =    -361.62965164 Ry
     estimated scf accuracy    <       0.00080959 Ry

     iteration # 15     ecut=    50.00 Ry     beta= 0.30
     Davidson diagonalization with overlap
     ethr =  1.33E-07,  avg # of iterations =  1.5

     total cpu time spent up to now is       22.1 secs

     total energy              =    -361.62963786 Ry
     estimated scf accuracy    <       0.00087439 Ry

     iteration # 16     ecut=    50.00 Ry     beta= 0.30
     Davidson diagonalization with overlap
     ethr =  1.33E-07,  avg # of iterations =  1.0

     total cpu time spent up to now is       22.9 secs

     total energy              =    -361.62937706 Ry
     estimated scf accuracy    <       0.00085734 Ry

     iteration # 17     ecut=    50.00 Ry     beta= 0.30
     Davidson diagonalization with overlap
     ethr =  1.33E-07,  avg # of iterations =  7.4

     total cpu time spent up to now is       24.7 secs

     total energy              =    -361.62947794 Ry
     estimated scf accuracy    <       0.00011080 Ry

     iteration # 18     ecut=    50.00 Ry     beta= 0.30
     Davidson diagonalization with overlap
     ethr =  1.33E-07,  avg # of iterations =  2.0

     total cpu time spent up to now is       25.6 secs

     total energy              =    -361.62944764 Ry
     estimated scf accuracy    <       0.00018359 Ry

     iteration # 19     ecut=    50.00 Ry     beta= 0.30
     Davidson diagonalization with overlap
     ethr =  1.33E-07,  avg # of iterations =  1.0

     total cpu time spent up to now is       26.4 secs

     total energy              =    -361.62934907 Ry
     estimated scf accuracy    <       0.00012988 Ry

     iteration # 20     ecut=    50.00 Ry     beta= 0.30
     Davidson diagonalization with overlap
     ethr =  1.33E-07,  avg # of iterations =  8.9

     total cpu time spent up to now is       28.5 secs

     total energy              =    -361.62937187 Ry
     estimated scf accuracy    <       0.00024470 Ry

     iteration # 21     ecut=    50.00 Ry     beta= 0.30
     Davidson diagonalization with overlap
     ethr =  1.33E-07,  avg # of iterations =  6.6

     total cpu time spent up to now is       30.2 secs

     total energy              =    -361.62941986 Ry
     estimated scf accuracy    <       0.00000025 Ry

     iteration # 22     ecut=    50.00 Ry     beta= 0.30
     Davidson diagonalization with overlap
     ethr =  6.89E-10,  avg # of iterations =  8.0

     total cpu time spent up to now is       32.0 secs

     total energy              =    -361.62942052 Ry
     estimated scf accuracy    <       0.00000012 Ry

     iteration # 23     ecut=    50.00 Ry     beta= 0.30
     Davidson diagonalization with overlap
     ethr =  3.40E-10,  avg # of iterations =  1.9

     total cpu time spent up to now is       32.9 secs

     total energy              =    -361.62942045 Ry
     estimated scf accuracy    <       0.00000020 Ry

     iteration # 24     ecut=    50.00 Ry     beta= 0.30
     Davidson diagonalization with overlap
     ethr =  3.40E-10,  avg # of iterations =  2.8

     total cpu time spent up to now is       33.8 secs

     total energy              =    -361.62942043 Ry
     estimated scf accuracy    <       0.00000004 Ry

     iteration # 25     ecut=    50.00 Ry     beta= 0.30
     Davidson diagonalization with overlap
     ethr =  1.25E-10,  avg # of iterations =  7.2

     total cpu time spent up to now is       35.6 secs

     total energy              =    -361.62942047 Ry
     estimated scf accuracy    <       0.00000007 Ry

     iteration # 26     ecut=    50.00 Ry     beta= 0.30
     Davidson diagonalization with overlap
     ethr =  1.25E-10,  avg # of iterations =  2.0

     total cpu time spent up to now is       36.4 secs

     total energy              =    -361.62942046 Ry
     estimated scf accuracy    <       0.00000003 Ry

     iteration # 27     ecut=    50.00 Ry     beta= 0.30
     Davidson diagonalization with overlap
     ethr =  8.99E-11,  avg # of iterations =  2.2

     total cpu time spent up to now is       37.4 secs

     End of self-consistent calculation

          k = 0.0000 0.0000 0.0000 (  2057 PWs)   bands (ev):

   -11.4032 -10.8832   0.6920   0.6920   0.7510   0.8320   0.8320   0.8952
     1.6916   1.6916   1.8307   1.8307   2.1695   5.5431   5.5431   5.9002
     6.1196   6.1196

          k = 0.0000 0.0000 0.0974 (  2052 PWs)   bands (ev):

   -11.3700 -10.9198   0.6987   0.6987   0.7235   0.7993   0.8195   0.8195
     1.7033   1.7033   1.8239   1.8239   2.4300   5.3298   5.5822   5.5822
     6.0814   6.0814

          k = 0.0000 0.0000 0.1948 (  2076 PWs)   bands (ev):

   -11.2783 -11.0185   0.6639   0.6695   0.7182   0.7182   0.7878   0.7878
     1.7331   1.7331   1.8033   1.8033   3.0237   4.5354   5.6884   5.6884
     5.9767   5.9767

          k = 0.0000 0.0000-0.2922 (  2100 PWs)   bands (ev):

   -11.1501 -11.1501   0.6276   0.6276   0.7498   0.7498   0.7498   0.7498
     1.7703   1.7703   1.7703   1.7703   3.7539   3.7539   5.8329   5.8329
     5.8329   5.8329

          k = 0.0000 0.1925 0.0000 (  2078 PWs)   bands (ev):

   -11.2721 -10.8135   0.5808   0.7704   0.7895   0.8701   0.9415   1.0838
     1.6382   1.6891   1.8373   1.9445   2.1675   4.6027   4.9938   5.2346
     5.7717   5.9309

          k = 0.0000 0.1925 0.0974 (  2076 PWs)   bands (ev):

   -11.2424 -10.8453   0.5669   0.7445   0.7792   0.8547   0.9269   0.9967
     1.6585   1.7005   1.8287   1.8785   2.4976   4.5991   4.8859   5.2821
     5.6789   5.8849

          k = 0.0000 0.1925 0.1948 (  2075 PWs)   bands (ev):

   -11.1606 -10.9313   0.5388   0.6215   0.8048   0.8457   0.8898   0.9116
     1.7078   1.7302   1.8044   1.8236   3.1042   4.3029   4.9244   5.4112
     5.4434   5.7590

          k = 0.0000 0.1925-0.2922 (  2072 PWs)   bands (ev):

   -11.0470 -11.0470   0.5419   0.5419   0.8445   0.8445   0.8660   0.8660
     1.7672   1.7672   1.7687   1.7687   3.7478   3.7478   5.1591   5.1591
     5.5858   5.5858

          k = 0.0000 0.3849 0.0000 (  2088 PWs)   bands (ev):

   -10.9823 -10.6869   0.4802   0.7617   0.8992   1.1345   1.1945   1.3841
     1.6028   1.7515   1.8561   2.0469   2.4304   3.1019   3.8927   4.6025
     5.3094   5.5270

          k = 0.0000 0.3849 0.0974 (  2090 PWs)   bands (ev):

   -10.9623 -10.7064   0.4659   0.7063   0.9160   1.1203   1.1713   1.2866
     1.6316   1.7577   1.8476   1.9709   2.6459   3.1992   3.8911   4.6678
     5.2851   5.4671

          k = 0.0000 0.3849 0.1948 (  2091 PWs)   bands (ev):

   -10.9078 -10.7599   0.4461   0.5763   0.9635   1.0997   1.1105   1.1660
     1.7057   1.7747   1.8261   1.8826   2.9136   3.2696   4.1429   4.8425
     5.1044   5.3024

          k = 0.0000 0.3849-0.2922 (  2084 PWs)   bands (ev):

   -10.8336 -10.8336   0.4729   0.4729   1.0338   1.0338   1.1095   1.1095
     1.7947   1.7947   1.7994   1.7994   3.1247   3.1247   4.6743   4.6743
     5.0749   5.0749

          k = 0.0000-0.5774 0.0000 (  2094 PWs)   bands (ev):

   -10.8052 -10.6480   0.5604   0.7403   0.9418   1.3010   1.3383   1.4513
     1.7349   1.8325   1.8795   1.9531   2.3637   2.6876   3.5330   4.2590
     4.8795   5.3092

          k = 0.0000-0.5774 0.0974 (  2100 PWs)   bands (ev):

   -10.7938 -10.6576   0.5353   0.6783   0.9638   1.2964   1.3065   1.4084
     1.7783   1.8338   1.8728   1.9515   2.3488   2.6329   3.7529   4.3356
     4.9299   5.2423

          k = 0.0000-0.5774 0.1948 (  2090 PWs)   bands (ev):

   -10.7632 -10.6846   0.4889   0.5579   1.0270   1.2240   1.2927   1.3449
     1.8387   1.8529   1.8595   1.9414   2.3538   2.5181   4.2376   4.5379
     4.9398   5.0583

          k = 0.0000-0.5774-0.2922 (  2076 PWs)   bands (ev):

   -10.7230 -10.7230   0.4836   0.4836   1.1207   1.1207   1.3056   1.3056
     1.8474   1.8474   1.9112   1.9112   2.4132   2.4132   4.7037   4.7037
     4.8025   4.8025

          k = 0.1667 0.2887 0.0000 (  2081 PWs)   bands (ev):

   -11.0605 -10.7155   0.5735   0.7346   0.9139   0.9390   1.1506   1.3269
     1.5895   1.7086   1.8488   2.0485   2.3510   3.8062   3.9119   4.6238
     5.4714   5.4916

          k = 0.1667 0.2887 0.0974 (  2093 PWs)   bands (ev):

   -11.0375 -10.7387   0.5544   0.7087   0.9093   0.9222   1.1327   1.2082
     1.6208   1.7280   1.8401   1.9613   2.6551   3.8629   3.9124   4.6477
     5.4078   5.4419

          k = 0.1667 0.2887 0.1948 (  2081 PWs)   bands (ev):

   -10.9746 -10.8020   0.5212   0.6146   0.9075   0.9085   1.0861   1.0906
     1.6963   1.7563   1.8181   1.8757   3.1061   3.7044   4.2462   4.7596
     5.2231   5.2381

          k = 0.1667 0.2887-0.2922 (  2088 PWs)   bands (ev):

   -10.8884 -10.8884   0.5303   0.5303   0.9115   0.9115   1.0580   1.0580
     1.7767   1.7767   1.7984   1.7984   3.4534   3.4534   4.7191   4.7191
     5.0349   5.0349

          k = 0.1667 0.4811 0.0000 (  2094 PWs)   bands (ev):

   -10.8115 -10.6453   0.6426   0.8759   0.9685   1.2232   1.3462   1.4138
     1.6496   1.7386   1.9007   2.0935   2.3997   2.9395   3.5216   3.8375
     4.8541   5.0314

          k = 0.1667 0.4811 0.0974 (  2096 PWs)   bands (ev):

   -10.7995 -10.6555   0.6320   0.8213   0.9639   1.2109   1.3087   1.3455
     1.6655   1.7792   1.9003   2.0717   2.4300   2.9307   3.6426   3.9724
     4.8216   5.0282

          k = 0.1667 0.4811 0.1948 (  2097 PWs)   bands (ev):

   -10.7674 -10.6842   0.6065   0.7019   0.9842   1.1560   1.2375   1.2749
     1.7338   1.8041   1.9089   2.0105   2.5352   2.8302   3.9355   4.3186
     4.6517   5.0136

          k = 0.1667 0.4811-0.2922 (  2094 PWs)   bands (ev):

   -10.7249 -10.7249   0.6156   0.6156   1.0566   1.0566   1.2374   1.2374
     1.7901   1.7901   1.9453   1.9453   2.6810   2.6810   4.2587   4.2587
     4.8116   4.8116

          k = 0.3333 0.5774 0.0000 (  2061 PWs)   bands (ev):

   -10.6756 -10.6756   0.6797   1.1240   1.1240   1.2785   1.6166   1.6166
     1.6259   1.7117   1.8191   1.8191   2.6339   2.6339   2.7820   4.3528
     4.3528   4.4015

          k = 0.3333 0.5774 0.0974 (  2067 PWs)   bands (ev):

   -10.6745 -10.6745   0.7050   1.0645   1.0645   1.2068   1.5389   1.5389
     1.6365   1.7071   1.9276   1.9276   2.5952   2.5952   2.9068   4.2934
     4.4793   4.4793

          k = 0.3333 0.5774 0.1948 (  2091 PWs)   bands (ev):

   -10.6723 -10.6723   0.7798   0.9467   0.9467   1.0547   1.4766   1.4766
     1.6559   1.6943   2.0601   2.0601   2.5211   2.5211   3.2197   4.0045
     4.7239   4.7239

          k = 0.3333 0.5774-0.2922 (  2106 PWs)   bands (ev):

   -10.6712 -10.6712   0.8905   0.8905   0.9005   0.9005   1.4596   1.4596
     1.6762   1.6762   2.1163   2.1163   2.4823   2.4823   3.6162   3.6162
     4.8438   4.8438

     highest occupied level (ev):     6.1196

!    total energy              =    -361.62942046 Ry
     estimated scf accuracy    <          6.6E-09 Ry

     The total energy is the sum of the following terms:
     one-electron contribution =    -161.33612234 Ry
     hartree contribution      =     120.73821709 Ry
     xc contribution           =    -109.43352021 Ry
     ewald contribution        =    -211.59799501 Ry

     convergence has been achieved in  27 iterations

     Forces acting on atoms (cartesian axes, Ry/au):

     atom    1 type  1   force =     0.00000000    0.00000000    0.00821625
     atom    2 type  1   force =     0.00000000    0.00000000    0.00821625
     atom    3 type  2   force =    -0.00000000   -0.00000000   -0.00821625
     atom    4 type  2   force =     0.00000000    0.00000000   -0.00821625
     The non-local contrib.  to forces
     atom    1 type  1   force =     0.00000000   -0.00000000    0.15286945
     atom    2 type  1   force =     0.00000000   -0.00000000    0.15286945
     atom    3 type  2   force =     0.00000000    0.00000000    0.15303478
     atom    4 type  2   force =     0.00000000    0.00000000    0.15303478
     The ionic contribution  to forces
     atom    1 type  1   force =    -0.00000000    0.00000000    1.21907319
     atom    2 type  1   force =     0.00000000   -0.00000000    1.21907319
     atom    3 type  2   force =    -0.00000000    0.00000000   -1.21907319
     atom    4 type  2   force =     0.00000000   -0.00000000   -1.21907319
     The local contribution  to forces
     atom    1 type  1   force =    -0.00000002    0.00000001   -1.35333135
     atom    2 type  1   force =     0.00000006   -0.00000004   -1.35333135
     atom    3 type  2   force =    -0.00000001    0.00000000    1.05911273
     atom    4 type  2   force =     0.00000002   -0.00000001    1.05911273
     The core correction contribution to forces
     atom    1 type  1   force =    -0.00000000    0.00000000   -0.01041401
     atom    2 type  1   force =     0.00000001   -0.00000000   -0.01041401
     atom    3 type  2   force =     0.00000000   -0.00000000   -0.00128789
     atom    4 type  2   force =    -0.00000000    0.00000000   -0.00128789
     The Hubbard contrib.    to forces
     atom    1 type  1   force =     0.00000000    0.00000000    0.00000000
     atom    2 type  1   force =     0.00000000    0.00000000    0.00000000
     atom    3 type  2   force =     0.00000000    0.00000000    0.00000000
     atom    4 type  2   force =     0.00000000    0.00000000    0.00000000
     The SCF correction term to forces
     atom    1 type  1   force =     0.00000000   -0.00000000    0.00002419
     atom    2 type  1   force =    -0.00000000    0.00000000    0.00002419
     atom    3 type  2   force =     0.00000000   -0.00000000    0.00000254
     atom    4 type  2   force =    -0.00000000    0.00000000    0.00000254

     Total force =     0.016433     Total SCF correction =     0.000034


     Computing stress (Cartesian axis) and pressure

          total   stress  (Ry/bohr**3)                   (kbar)     P=      -63.41
  -0.00022477   0.00000000  -0.00000000          -33.07        0.00       -0.00
   0.00000000  -0.00022477  -0.00000000            0.00      -33.07       -0.00
   0.00000000   0.00000000  -0.00084356            0.00        0.00     -124.09


     Writing all to output data dir ./ZnO_ANN.save/

     init_run     :      1.88s CPU      1.26s WALL (       1 calls)
     electrons    :     95.72s CPU     35.80s WALL (       1 calls)
     forces       :      0.69s CPU      0.33s WALL (       1 calls)
     stress       :      2.62s CPU      1.36s WALL (       1 calls)

     Called by init_run:
     wfcinit      :      1.02s CPU      0.39s WALL (       1 calls)
     potinit      :      0.23s CPU      0.23s WALL (       1 calls)
     hinit0       :      0.49s CPU      0.50s WALL (       1 calls)

     Called by electrons:
     c_bands      :     78.52s CPU     28.99s WALL (      27 calls)
     sum_band     :     12.47s CPU      4.92s WALL (      27 calls)
     v_of_rho     :      1.00s CPU      0.43s WALL (      28 calls)
     newd         :      3.50s CPU      1.38s WALL (      28 calls)
     mix_rho      :      0.18s CPU      0.08s WALL (      27 calls)

     Called by c_bands:
     init_us_2    :      1.20s CPU      0.42s WALL (    1596 calls)
     init_us_2:cp :      1.18s CPU      0.42s WALL (    1596 calls)
     cegterg      :     75.85s CPU     27.95s WALL (     756 calls)

     Called by *egterg:
     cdiaghg      :     12.44s CPU      4.08s WALL (    4247 calls)
     h_psi        :     51.20s CPU     20.82s WALL (    4275 calls)
     s_psi        :      1.24s CPU      0.36s WALL (    4275 calls)
     g_psi        :      0.43s CPU      0.11s WALL (    3491 calls)

     Called by h_psi:
     h_psi:calbec :      1.83s CPU      0.67s WALL (    4275 calls)
     vloc_psi     :     47.71s CPU     19.63s WALL (    4275 calls)
     add_vuspsi   :      1.21s CPU      0.39s WALL (    4275 calls)

     General routines
     calbec       :      2.34s CPU      0.84s WALL (    5171 calls)
     fft          :      0.84s CPU      0.50s WALL (     387 calls)
     ffts         :      0.13s CPU      0.11s WALL (      55 calls)
     fftw         :     47.88s CPU     19.78s WALL (  112216 calls)
     interpolate  :      0.15s CPU      0.12s WALL (      28 calls)

     Parallel routines

     PWSCF        :   1m41.43s CPU     39.22s WALL


   This run was terminated on:  17:19:20  13Jun2025            

=------------------------------------------------------------------------------=
   JOB DONE.
=------------------------------------------------------------------------------=
Note: The following floating-point exceptions are signalling: IEEE_INVALID_FLAG
