Authorization required, but no authorization protocol specified

Authorization required, but no authorization protocol specified

Authorization required, but no authorization protocol specified

Authorization required, but no authorization protocol specified

Authorization required, but no authorization protocol specified

Authorization required, but no authorization protocol specified

Authorization required, but no authorization protocol specified

Authorization required, but no authorization protocol specified

Authorization required, but no authorization protocol specified

Authorization required, but no authorization protocol specified


     Program PWSCF v.7.2 starts on 13Jun2025 at 17:34:25 

     This program is part of the open-source Quantum ESPRESSO suite
     for quantum simulation of materials; please cite
         "P. Giannozzi et al., J. Phys.:Condens. Matter 21 395502 (2009);
         "P. Giannozzi et al., J. Phys.:Condens. Matter 29 465901 (2017);
         "P. Giannozzi et al., J. Chem. Phys. 152 154105 (2020);
          URL http://www.quantum-espresso.org", 
     in publications or presentations arising from this work. More details at
     http://www.quantum-espresso.org/quote

     Parallel version (MPI), running on     8 processors

     MPI processes distributed on     1 nodes
     120706 MiB available memory on the printing compute node when the environment starts

     Reading input from /home/jvc/QEspresso7.2/ZnO_database_python/SCFs.in/scf-6.24-1.73.in

     Current dimensions of program PWSCF are:
     Max number of different atomic species (ntypx) = 10
     Max number of k-points (npk) =  40000
     Max angular momentum in pseudopotentials (lmaxx) =  4
     file Zn.upf: wavefunction(s)  3D renormalized

     R & G space division:  proc/nbgrp/npool/nimage =       8
     Subspace diagonalization in iterative solution of the eigenvalue problem:
     a serial algorithm will be used


     Parallelization info
     --------------------
     sticks:   dense  smooth     PW     G-vecs:    dense   smooth      PW
     Min         133      66     20                 6139     2158     360
     Max         134      68     21                 6146     2161     365
     Sum        1069     535    163                49149    17275    2901

     Using Slab Decomposition



     bravais-lattice index     =            4
     lattice parameter (alat)  =       6.2406  a.u.
     unit-cell volume          =     363.5762 (a.u.)^3
     number of atoms/cell      =            4
     number of atomic types    =            2
     number of electrons       =        36.00
     number of Kohn-Sham states=           18
     kinetic-energy cutoff     =      50.0000  Ry
     charge density cutoff     =     400.0000  Ry
     scf convergence threshold =      1.0E-08
     mixing beta               =       0.3000
     number of iterations used =            8  plain     mixing
     Exchange-correlation= PBE
                           (   1   4   3   4   0   0   0)

     celldm(1)=   6.240610  celldm(2)=   0.000000  celldm(3)=   1.727363
     celldm(4)=   0.000000  celldm(5)=   0.000000  celldm(6)=   0.000000

     crystal axes: (cart. coord. in units of alat)
               a(1) = (   1.000000   0.000000   0.000000 )  
               a(2) = (  -0.500000   0.866025   0.000000 )  
               a(3) = (   0.000000   0.000000   1.727363 )  

     reciprocal axes: (cart. coord. in units 2 pi/alat)
               b(1) = (  1.000000  0.577350 -0.000000 )  
               b(2) = (  0.000000  1.154701  0.000000 )  
               b(3) = (  0.000000 -0.000000  0.578917 )  


     PseudoPot. # 1 for Zn read from file:
     /home/jvc/QEspresso7.2/ZnO_database/pseudos/Zn.upf
     MD5 check sum: 7f56cabf9682ed8c977c2f7d0c5985c5
     Pseudo is Ultrasoft + core correction, Zval = 12.0
     Generated using &quot;atomic&quot; code by A. Dal Corso  v.6.2.2
     Using radial grid of 1201 points,  6 beta functions with: 
                l(1) =   0
                l(2) =   0
                l(3) =   1
                l(4) =   1
                l(5) =   2
                l(6) =   2
     Q(r) pseudized with 0 coefficients 


     PseudoPot. # 2 for O  read from file:
     /home/jvc/QEspresso7.2/ZnO_database/pseudos/O.upf
     MD5 check sum: 91400c9766925bcf19f520983a725ff0
     Pseudo is Ultrasoft + core correction, Zval =  6.0
     Generated using &quot;atomic&quot; code by A. Dal Corso  v.6.3MaX
     Using radial grid of 1095 points,  4 beta functions with: 
                l(1) =   0
                l(2) =   0
                l(3) =   1
                l(4) =   1
     Q(r) pseudized with 0 coefficients 


     atomic species   valence    mass     pseudopotential
        Zn            12.00    63.38000     Zn( 1.00)
        O              6.00    15.99900     O ( 1.00)

     12 Sym. Ops. (no inversion) found ( 6 have fractional translation)



   Cartesian axes

     site n.     atom                  positions (alat units)
         1           Zn  tau(   1) = (   0.5000000   0.2886751   0.8647762  )
         2           Zn  tau(   2) = (  -0.0000000   0.5773503   0.0010944  )
         3           O   tau(   3) = (   0.5000000   0.2886751   1.5195209  )
         4           O   tau(   4) = (  -0.0000000   0.5773503   0.6558392  )

     number of k points=    28
                       cart. coord. in units 2pi/alat
        k(    1) = (   0.0000000   0.0000000   0.0000000), wk =   0.0092593
        k(    2) = (   0.0000000   0.0000000   0.0964862), wk =   0.0185185
        k(    3) = (   0.0000000   0.0000000   0.1929723), wk =   0.0185185
        k(    4) = (   0.0000000   0.0000000  -0.2894585), wk =   0.0092593
        k(    5) = (   0.0000000   0.1924501   0.0000000), wk =   0.0555556
        k(    6) = (   0.0000000   0.1924501   0.0964862), wk =   0.1111111
        k(    7) = (   0.0000000   0.1924501   0.1929723), wk =   0.1111111
        k(    8) = (   0.0000000   0.1924501  -0.2894585), wk =   0.0555556
        k(    9) = (   0.0000000   0.3849002   0.0000000), wk =   0.0555556
        k(   10) = (   0.0000000   0.3849002   0.0964862), wk =   0.1111111
        k(   11) = (   0.0000000   0.3849002   0.1929723), wk =   0.1111111
        k(   12) = (   0.0000000   0.3849002  -0.2894585), wk =   0.0555556
        k(   13) = (   0.0000000  -0.5773503   0.0000000), wk =   0.0277778
        k(   14) = (   0.0000000  -0.5773503   0.0964862), wk =   0.0555556
        k(   15) = (   0.0000000  -0.5773503   0.1929723), wk =   0.0555556
        k(   16) = (   0.0000000  -0.5773503  -0.2894585), wk =   0.0277778
        k(   17) = (   0.1666667   0.2886751   0.0000000), wk =   0.0555556
        k(   18) = (   0.1666667   0.2886751   0.0964862), wk =   0.1111111
        k(   19) = (   0.1666667   0.2886751   0.1929723), wk =   0.1111111
        k(   20) = (   0.1666667   0.2886751  -0.2894585), wk =   0.0555556
        k(   21) = (   0.1666667   0.4811252   0.0000000), wk =   0.1111111
        k(   22) = (   0.1666667   0.4811252   0.0964862), wk =   0.2222222
        k(   23) = (   0.1666667   0.4811252   0.1929723), wk =   0.2222222
        k(   24) = (   0.1666667   0.4811252  -0.2894585), wk =   0.1111111
        k(   25) = (   0.3333333   0.5773503   0.0000000), wk =   0.0185185
        k(   26) = (   0.3333333   0.5773503   0.0964862), wk =   0.0370370
        k(   27) = (   0.3333333   0.5773503   0.1929723), wk =   0.0370370
        k(   28) = (   0.3333333   0.5773503  -0.2894585), wk =   0.0185185

     Dense  grid:    49149 G-vectors     FFT dimensions: (  40,  40,  72)

     Smooth grid:    17275 G-vectors     FFT dimensions: (  30,  30,  50)

     Estimated max dynamical RAM per process >      28.12 MB

     Estimated total dynamical RAM >     224.94 MB

     Check: negative core charge=   -0.000002

     Initial potential from superposition of free atoms

     starting charge      35.9925, renormalised to      36.0000
     Starting wfcs are   26 randomized atomic wfcs

     total cpu time spent up to now is        1.7 secs

     Self-consistent Calculation

     iteration #  1     ecut=    50.00 Ry     beta= 0.30
     Davidson diagonalization with overlap
     ethr =  1.00E-02,  avg # of iterations =  1.7

     total cpu time spent up to now is        2.6 secs

     total energy              =    -361.44898653 Ry
     estimated scf accuracy    <       0.73751734 Ry

     iteration #  2     ecut=    50.00 Ry     beta= 0.30
     Davidson diagonalization with overlap
     ethr =  2.05E-03,  avg # of iterations =  2.0

     total cpu time spent up to now is        3.7 secs

     total energy              =    -361.56311618 Ry
     estimated scf accuracy    <       0.08402554 Ry

     iteration #  3     ecut=    50.00 Ry     beta= 0.30
     Davidson diagonalization with overlap
     ethr =  2.33E-04,  avg # of iterations =  6.5

     total cpu time spent up to now is        5.4 secs

     total energy              =    -361.58723091 Ry
     estimated scf accuracy    <       0.07125603 Ry

     iteration #  4     ecut=    50.00 Ry     beta= 0.30
     Davidson diagonalization with overlap
     ethr =  1.98E-04,  avg # of iterations =  8.6

     total cpu time spent up to now is        7.6 secs

     total energy              =    -361.63382972 Ry
     estimated scf accuracy    <       0.28049236 Ry

     iteration #  5     ecut=    50.00 Ry     beta= 0.30
     Davidson diagonalization with overlap
     ethr =  1.98E-04,  avg # of iterations =  2.0

     total cpu time spent up to now is        8.6 secs

     total energy              =    -361.51955199 Ry
     estimated scf accuracy    <       0.16513917 Ry

     iteration #  6     ecut=    50.00 Ry     beta= 0.30
     Davidson diagonalization with overlap
     ethr =  1.98E-04,  avg # of iterations =  8.4

     total cpu time spent up to now is       10.6 secs

     total energy              =    -361.61602040 Ry
     estimated scf accuracy    <       0.28770893 Ry

     iteration #  7     ecut=    50.00 Ry     beta= 0.30
     Davidson diagonalization with overlap
     ethr =  1.98E-04,  avg # of iterations =  2.0

     total cpu time spent up to now is       11.6 secs

     total energy              =    -361.62646814 Ry
     estimated scf accuracy    <       0.13732085 Ry

     iteration #  8     ecut=    50.00 Ry     beta= 0.30
     Davidson diagonalization with overlap
     ethr =  1.98E-04,  avg # of iterations =  2.0

     total cpu time spent up to now is       12.5 secs

     total energy              =    -361.62233240 Ry
     estimated scf accuracy    <       0.11028115 Ry

     iteration #  9     ecut=    50.00 Ry     beta= 0.30
     Davidson diagonalization with overlap
     ethr =  1.98E-04,  avg # of iterations =  2.0

     total cpu time spent up to now is       13.5 secs

     total energy              =    -361.61454695 Ry
     estimated scf accuracy    <       0.07093522 Ry

     iteration # 10     ecut=    50.00 Ry     beta= 0.30
     Davidson diagonalization with overlap
     ethr =  1.97E-04,  avg # of iterations =  2.0

     total cpu time spent up to now is       14.4 secs

     total energy              =    -361.61201967 Ry
     estimated scf accuracy    <       0.03102446 Ry

     iteration # 11     ecut=    50.00 Ry     beta= 0.30
     Davidson diagonalization with overlap
     ethr =  8.62E-05,  avg # of iterations =  4.9

     total cpu time spent up to now is       15.6 secs

     total energy              =    -361.61837914 Ry
     estimated scf accuracy    <       0.00186797 Ry

     iteration # 12     ecut=    50.00 Ry     beta= 0.30
     Davidson diagonalization with overlap
     ethr =  5.19E-06,  avg # of iterations =  9.1

     total cpu time spent up to now is       18.0 secs

     total energy              =    -361.62378924 Ry
     estimated scf accuracy    <       0.01390965 Ry

     iteration # 13     ecut=    50.00 Ry     beta= 0.30
     Davidson diagonalization with overlap
     ethr =  5.19E-06,  avg # of iterations =  1.1

     total cpu time spent up to now is       18.8 secs

     total energy              =    -361.61962663 Ry
     estimated scf accuracy    <       0.01154729 Ry

     iteration # 14     ecut=    50.00 Ry     beta= 0.30
     Davidson diagonalization with overlap
     ethr =  5.19E-06,  avg # of iterations =  6.1

     total cpu time spent up to now is       20.6 secs

     total energy              =    -361.62129249 Ry
     estimated scf accuracy    <       0.00020027 Ry

     iteration # 15     ecut=    50.00 Ry     beta= 0.30
     Davidson diagonalization with overlap
     ethr =  5.56E-07,  avg # of iterations =  7.5

     total cpu time spent up to now is       22.5 secs

     total energy              =    -361.62115188 Ry
     estimated scf accuracy    <       0.00051272 Ry

     iteration # 16     ecut=    50.00 Ry     beta= 0.30
     Davidson diagonalization with overlap
     ethr =  5.56E-07,  avg # of iterations = 10.3

     total cpu time spent up to now is       25.1 secs

     total energy              =    -361.62116849 Ry
     estimated scf accuracy    <       0.00298452 Ry

     iteration # 17     ecut=    50.00 Ry     beta= 0.30
     Davidson diagonalization with overlap
     ethr =  5.56E-07,  avg # of iterations =  8.0

     total cpu time spent up to now is       27.1 secs

     total energy              =    -361.62151296 Ry
     estimated scf accuracy    <       0.00018604 Ry

     iteration # 18     ecut=    50.00 Ry     beta= 0.30
     Davidson diagonalization with overlap
     ethr =  5.17E-07,  avg # of iterations =  1.1

     total cpu time spent up to now is       28.0 secs

     total energy              =    -361.62150861 Ry
     estimated scf accuracy    <       0.00024987 Ry

     iteration # 19     ecut=    50.00 Ry     beta= 0.30
     Davidson diagonalization with overlap
     ethr =  5.17E-07,  avg # of iterations =  1.0

     total cpu time spent up to now is       28.8 secs

     total energy              =    -361.62149086 Ry
     estimated scf accuracy    <       0.00023848 Ry

     iteration # 20     ecut=    50.00 Ry     beta= 0.30
     Davidson diagonalization with overlap
     ethr =  5.17E-07,  avg # of iterations =  1.0

     total cpu time spent up to now is       29.7 secs

     total energy              =    -361.62139988 Ry
     estimated scf accuracy    <       0.00020257 Ry

     iteration # 21     ecut=    50.00 Ry     beta= 0.30
     Davidson diagonalization with overlap
     ethr =  5.17E-07,  avg # of iterations =  3.1

     total cpu time spent up to now is       30.8 secs

     total energy              =    -361.62141766 Ry
     estimated scf accuracy    <       0.00002895 Ry

     iteration # 22     ecut=    50.00 Ry     beta= 0.30
     Davidson diagonalization with overlap
     ethr =  8.04E-08,  avg # of iterations =  6.8

     total cpu time spent up to now is       32.5 secs

     total energy              =    -361.62144199 Ry
     estimated scf accuracy    <       0.00001444 Ry

     iteration # 23     ecut=    50.00 Ry     beta= 0.30
     Davidson diagonalization with overlap
     ethr =  4.01E-08,  avg # of iterations =  6.5

     total cpu time spent up to now is       34.3 secs

     total energy              =    -361.62144732 Ry
     estimated scf accuracy    <       0.00003058 Ry

     iteration # 24     ecut=    50.00 Ry     beta= 0.30
     Davidson diagonalization with overlap
     ethr =  4.01E-08,  avg # of iterations =  2.0

     total cpu time spent up to now is       35.2 secs

     total energy              =    -361.62144340 Ry
     estimated scf accuracy    <       0.00001170 Ry

     iteration # 25     ecut=    50.00 Ry     beta= 0.30
     Davidson diagonalization with overlap
     ethr =  3.25E-08,  avg # of iterations =  5.2

     total cpu time spent up to now is       36.7 secs

     total energy              =    -361.62144955 Ry
     estimated scf accuracy    <       0.00000241 Ry

     iteration # 26     ecut=    50.00 Ry     beta= 0.30
     Davidson diagonalization with overlap
     ethr =  6.70E-09,  avg # of iterations =  2.4

     total cpu time spent up to now is       37.7 secs

     total energy              =    -361.62144865 Ry
     estimated scf accuracy    <       0.00000162 Ry

     iteration # 27     ecut=    50.00 Ry     beta= 0.30
     Davidson diagonalization with overlap
     ethr =  4.51E-09,  avg # of iterations =  5.2

     total cpu time spent up to now is       39.2 secs

     total energy              =    -361.62144976 Ry
     estimated scf accuracy    <       0.00000075 Ry

     iteration # 28     ecut=    50.00 Ry     beta= 0.30
     Davidson diagonalization with overlap
     ethr =  2.09E-09,  avg # of iterations =  2.2

     total cpu time spent up to now is       40.1 secs

     total energy              =    -361.62144934 Ry
     estimated scf accuracy    <       0.00000120 Ry

     iteration # 29     ecut=    50.00 Ry     beta= 0.30
     Davidson diagonalization with overlap
     ethr =  2.09E-09,  avg # of iterations =  2.0

     total cpu time spent up to now is       41.0 secs

     total energy              =    -361.62144937 Ry
     estimated scf accuracy    <       0.00000042 Ry

     iteration # 30     ecut=    50.00 Ry     beta= 0.30
     Davidson diagonalization with overlap
     ethr =  1.16E-09,  avg # of iterations =  2.0

     total cpu time spent up to now is       42.0 secs

     total energy              =    -361.62144935 Ry
     estimated scf accuracy    <       0.00000026 Ry

     iteration # 31     ecut=    50.00 Ry     beta= 0.30
     Davidson diagonalization with overlap
     ethr =  7.13E-10,  avg # of iterations =  2.9

     total cpu time spent up to now is       43.1 secs

     total energy              =    -361.62144939 Ry
     estimated scf accuracy    <       0.00000005 Ry

     iteration # 32     ecut=    50.00 Ry     beta= 0.30
     Davidson diagonalization with overlap
     ethr =  1.30E-10,  avg # of iterations =  5.4

     total cpu time spent up to now is       44.4 secs

     End of self-consistent calculation

          k = 0.0000 0.0000 0.0000 (  2071 PWs)   bands (ev):

   -11.6612 -11.1978   0.3013   0.3013   0.3590   0.4269   0.4269   0.5936
     1.2042   1.2042   1.3260   1.3260   1.6951   5.0789   5.0789   5.3696
     5.6026   5.6026

          k = 0.0000 0.0000 0.0965 (  2136 PWs)   bands (ev):

   -11.6316 -11.2303   0.3069   0.3069   0.3377   0.4153   0.4153   0.4861
     1.2134   1.2134   1.3195   1.3195   1.9562   4.7978   5.1142   5.1142
     5.5678   5.5678

          k = 0.0000 0.0000 0.1930 (  2142 PWs)   bands (ev):

   -11.5496 -11.3180   0.2955   0.3250   0.3250   0.3404   0.3874   0.3874
     1.2397   1.2397   1.3009   1.3009   2.5377   4.0140   5.2107   5.2107
     5.4726   5.4726

          k = 0.0000 0.0000-0.2895 (  2136 PWs)   bands (ev):

   -11.4352 -11.4352   0.2799   0.2799   0.3538   0.3538   0.3538   0.3538
     1.2724   1.2724   1.2724   1.2724   3.2488   3.2488   5.3420   5.3420
     5.3420   5.3420

          k = 0.0000 0.1925 0.0000 (  2138 PWs)   bands (ev):

   -11.5394 -11.1311   0.2091   0.3750   0.3942   0.4701   0.5292   0.7453
     1.1554   1.2016   1.3313   1.4311   1.7269   4.1419   4.4825   4.7870
     5.2609   5.4214

          k = 0.0000 0.1925 0.0965 (  2140 PWs)   bands (ev):

   -11.5130 -11.1593   0.1992   0.3639   0.3830   0.4597   0.5164   0.6410
     1.1731   1.2113   1.3237   1.3718   2.0416   4.1134   4.3995   4.8302
     5.1692   5.3794

          k = 0.0000 0.1925 0.1930 (  2159 PWs)   bands (ev):

   -11.4400 -11.2358   0.1811   0.2692   0.4065   0.4536   0.4832   0.5281
     1.2157   1.2372   1.3020   1.3196   2.6244   3.7890   4.4618   4.9458
     4.9475   5.2644

          k = 0.0000 0.1925-0.2895 (  2164 PWs)   bands (ev):

   -11.3388 -11.3388   0.1934   0.1934   0.4425   0.4425   0.4752   0.4752
     1.2684   1.2684   1.2708   1.2708   3.2447   3.2447   4.6816   4.6816
     5.1065   5.1065

          k = 0.0000 0.3849 0.0000 (  2162 PWs)   bands (ev):

   -11.2716 -11.0089   0.1360   0.3847   0.4961   0.7283   0.7627   0.9615
     1.1262   1.2591   1.3493   1.5267   2.0438   2.6721   3.4152   4.1922
     4.8304   5.0355

          k = 0.0000 0.3849 0.0965 (  2169 PWs)   bands (ev):

   -11.2538 -11.0263   0.1255   0.3411   0.5114   0.7170   0.7419   0.8779
     1.1501   1.2643   1.3419   1.4603   2.2156   2.7580   3.4293   4.2511
     4.8013   4.9804

          k = 0.0000 0.3849 0.1930 (  2182 PWs)   bands (ev):

   -11.2054 -11.0740   0.1131   0.2342   0.5550   0.6876   0.7002   0.7628
     1.2148   1.2789   1.3231   1.3759   2.4500   2.7958   3.6993   4.4095
     4.6200   4.8295

          k = 0.0000 0.3849-0.2895 (  2174 PWs)   bands (ev):

   -11.1395 -11.1395   0.1422   0.1422   0.6188   0.6188   0.7086   0.7086
     1.2948   1.2948   1.3003   1.3003   2.6493   2.6493   4.2076   4.2076
     4.6213   4.6213

          k = 0.0000-0.5774 0.0000 (  2168 PWs)   bands (ev):

   -11.1091 -10.9693   0.2085   0.3968   0.5358   0.8706   0.8912   1.0517
     1.2629   1.3331   1.3727   1.4418   1.8814   2.2668   3.1386   3.8726
     4.4205   4.8289

          k = 0.0000-0.5774 0.0965 (  2186 PWs)   bands (ev):

   -11.0991 -10.9780   0.1892   0.3413   0.5558   0.8633   0.8705   1.0151
     1.2945   1.3343   1.3673   1.4395   1.8716   2.2074   3.3436   3.9412
     4.4652   4.7674

          k = 0.0000-0.5774 0.1930 (  2166 PWs)   bands (ev):

   -11.0721 -11.0021   0.1559   0.2319   0.6136   0.7904   0.8776   0.9510
     1.3386   1.3549   1.3562   1.4304   1.8874   2.0803   3.7990   4.1237
     4.4682   4.5985

          k = 0.0000-0.5774-0.2895 (  2188 PWs)   bands (ev):

   -11.0364 -11.0364   0.1595   0.1595   0.6977   0.6977   0.9023   0.9023
     1.3456   1.3456   1.4039   1.4039   1.9604   1.9604   4.2402   4.2402
     4.3643   4.3643

          k = 0.1667 0.2887 0.0000 (  2169 PWs)   bands (ev):

   -11.3436 -11.0368   0.2185   0.3542   0.5124   0.5371   0.7245   0.9227
     1.1107   1.2209   1.3421   1.5239   1.9593   3.3871   3.4181   4.1938
     4.9771   5.0021

          k = 0.1667 0.2887 0.0965 (  2166 PWs)   bands (ev):

   -11.3232 -11.0574   0.2038   0.3383   0.5087   0.5232   0.7092   0.8120
     1.1385   1.2374   1.3346   1.4504   2.2225   3.3661   3.4913   4.2189
     4.9188   4.9498

          k = 0.1667 0.2887 0.1930 (  2181 PWs)   bands (ev):

   -11.2672 -11.1137   0.1800   0.2689   0.5074   0.5087   0.6732   0.6843
     1.2057   1.2616   1.3153   1.3689   2.6349   3.2079   3.8114   4.3218
     4.7362   4.7631

          k = 0.1667 0.2887-0.2895 (  2186 PWs)   bands (ev):

   -11.1906 -11.1906   0.1945   0.1945   0.5108   0.5108   0.6485   0.6485
     1.2784   1.2784   1.2983   1.2983   2.9641   2.9641   4.2581   4.2581
     4.5760   4.5760

          k = 0.1667 0.4811 0.0000 (  2179 PWs)   bands (ev):

   -11.1147 -10.9670   0.2800   0.5077   0.5746   0.8158   0.9051   0.9745
     1.1668   1.2521   1.3948   1.5695   1.9929   2.4867   3.1294   3.4472
     4.3947   4.5593

          k = 0.1667 0.4811 0.0965 (  2174 PWs)   bands (ev):

   -11.1042 -10.9762   0.2753   0.4627   0.5683   0.8090   0.8697   0.9190
     1.1811   1.2846   1.3951   1.5486   2.0108   2.4692   3.2515   3.5698
     4.3581   4.5602

          k = 0.1667 0.4811 0.1930 (  2180 PWs)   bands (ev):

   -11.0758 -11.0019   0.2636   0.3597   0.5854   0.7551   0.8118   0.8551
     1.2426   1.3062   1.4032   1.4937   2.0935   2.3672   3.5291   3.8891
     4.1972   4.5437

          k = 0.1667 0.4811-0.2895 (  2180 PWs)   bands (ev):

   -11.0382 -11.0382   0.2805   0.2805   0.6534   0.6534   0.8205   0.8205
     1.2936   1.2936   1.4356   1.4356   2.2246   2.2246   3.8307   3.8307
     4.3504   4.3504

          k = 0.3333 0.5774 0.0000 (  2193 PWs)   bands (ev):

   -10.9915 -10.9915   0.3010   0.7260   0.7260   0.8551   1.1473   1.1473
     1.1490   1.2201   1.3766   1.3766   2.1858   2.1858   2.4278   3.9258
     3.9258   3.9434

          k = 0.3333 0.5774 0.0965 (  2169 PWs)   bands (ev):

   -10.9906 -10.9906   0.3256   0.6779   0.6779   0.7920   1.0957   1.0957
     1.1575   1.2163   1.4506   1.4506   2.1486   2.1486   2.5426   3.8423
     4.0442   4.0442

          k = 0.3333 0.5774 0.1930 (  2166 PWs)   bands (ev):

   -10.9889 -10.9889   0.3971   0.5818   0.5818   0.6542   1.0465   1.0465
     1.1735   1.2056   1.5494   1.5494   2.0809   2.0809   2.8338   3.5709
     4.2727   4.2727

          k = 0.3333 0.5774-0.2895 (  2166 PWs)   bands (ev):

   -10.9880 -10.9880   0.5111   0.5111   0.5353   0.5353   1.0323   1.0323
     1.1902   1.1902   1.5902   1.5902   2.0486   2.0486   3.2059   3.2059
     4.3844   4.3844

     highest occupied level (ev):     5.6026

!    total energy              =    -361.62144940 Ry
     estimated scf accuracy    <          4.3E-09 Ry

     The total energy is the sum of the following terms:
     one-electron contribution =    -165.84126948 Ry
     hartree contribution      =     122.37737704 Ry
     xc contribution           =    -109.36116933 Ry
     ewald contribution        =    -208.79638763 Ry

     convergence has been achieved in  32 iterations

     Forces acting on atoms (cartesian axes, Ry/au):

     atom    1 type  1   force =    -0.00000000   -0.00000000    0.00504159
     atom    2 type  1   force =     0.00000000    0.00000000    0.00504159
     atom    3 type  2   force =     0.00000000    0.00000000   -0.00504159
     atom    4 type  2   force =     0.00000000    0.00000000   -0.00504159
     The non-local contrib.  to forces
     atom    1 type  1   force =     0.00000000    0.00000000    0.17379637
     atom    2 type  1   force =     0.00000000    0.00000000    0.17379637
     atom    3 type  2   force =     0.00000000   -0.00000000    0.17910520
     atom    4 type  2   force =     0.00000000   -0.00000000    0.17910520
     The ionic contribution  to forces
     atom    1 type  1   force =    -0.00000000    0.00000000    1.37034820
     atom    2 type  1   force =     0.00000000   -0.00000000    1.37034820
     atom    3 type  2   force =    -0.00000000    0.00000000   -1.37034820
     atom    4 type  2   force =     0.00000000   -0.00000000   -1.37034820
     The local contribution  to forces
     atom    1 type  1   force =    -0.00000002    0.00000001   -1.52766323
     atom    2 type  1   force =     0.00000006   -0.00000004   -1.52766323
     atom    3 type  2   force =    -0.00000001    0.00000000    1.18773868
     atom    4 type  2   force =     0.00000002   -0.00000001    1.18773868
     The core correction contribution to forces
     atom    1 type  1   force =    -0.00000000    0.00000000   -0.01145186
     atom    2 type  1   force =     0.00000001   -0.00000000   -0.01145186
     atom    3 type  2   force =     0.00000000   -0.00000000   -0.00154191
     atom    4 type  2   force =    -0.00000000    0.00000000   -0.00154191
     The Hubbard contrib.    to forces
     atom    1 type  1   force =     0.00000000    0.00000000    0.00000000
     atom    2 type  1   force =     0.00000000    0.00000000    0.00000000
     atom    3 type  2   force =     0.00000000    0.00000000    0.00000000
     atom    4 type  2   force =     0.00000000    0.00000000    0.00000000
     The SCF correction term to forces
     atom    1 type  1   force =    -0.00000000    0.00000000    0.00001465
     atom    2 type  1   force =     0.00000000   -0.00000000    0.00001465
     atom    3 type  2   force =    -0.00000000    0.00000000    0.00000716
     atom    4 type  2   force =     0.00000000   -0.00000000    0.00000716

     Total force =     0.010083     Total SCF correction =     0.000023


     Computing stress (Cartesian axis) and pressure

          total   stress  (Ry/bohr**3)                   (kbar)     P=      -98.74
  -0.00046983   0.00000000   0.00000000          -69.11        0.00        0.00
   0.00000000  -0.00046983   0.00000000            0.00      -69.11        0.00
   0.00000000   0.00000000  -0.00107392            0.00        0.00     -157.98


     Writing all to output data dir ./ZnO_ANN.save/

     init_run     :      1.96s CPU      1.35s WALL (       1 calls)
     electrons    :    113.76s CPU     42.72s WALL (       1 calls)
     forces       :      0.71s CPU      0.34s WALL (       1 calls)
     stress       :      2.65s CPU      1.29s WALL (       1 calls)

     Called by init_run:
     wfcinit      :      1.04s CPU      0.43s WALL (       1 calls)
     potinit      :      0.25s CPU      0.26s WALL (       1 calls)
     hinit0       :      0.52s CPU      0.53s WALL (       1 calls)

     Called by electrons:
     c_bands      :     92.11s CPU     34.26s WALL (      32 calls)
     sum_band     :     15.88s CPU      6.20s WALL (      32 calls)
     v_of_rho     :      1.19s CPU      0.52s WALL (      33 calls)
     newd         :      4.31s CPU      1.66s WALL (      33 calls)
     mix_rho      :      0.21s CPU      0.09s WALL (      32 calls)

     Called by c_bands:
     init_us_2    :      1.49s CPU      0.52s WALL (    1876 calls)
     init_us_2:cp :      1.46s CPU      0.51s WALL (    1876 calls)
     cegterg      :     88.91s CPU     32.98s WALL (     896 calls)

     Called by *egterg:
     cdiaghg      :     13.23s CPU      4.36s WALL (    4615 calls)
     h_psi        :     62.23s CPU     25.36s WALL (    4643 calls)
     s_psi        :      1.39s CPU      0.40s WALL (    4643 calls)
     g_psi        :      0.47s CPU      0.12s WALL (    3719 calls)

     Called by h_psi:
     h_psi:calbec :      1.93s CPU      0.69s WALL (    4643 calls)
     vloc_psi     :     58.45s CPU     24.07s WALL (    4643 calls)
     add_vuspsi   :      1.35s CPU      0.44s WALL (    4643 calls)

     General routines
     calbec       :      2.49s CPU      0.88s WALL (    5679 calls)
     fft          :      0.96s CPU      0.57s WALL (     452 calls)
     ffts         :      0.16s CPU      0.12s WALL (      65 calls)
     fftw         :     59.38s CPU     24.50s WALL (  123064 calls)
     interpolate  :      0.17s CPU      0.13s WALL (      33 calls)

     Parallel routines

     PWSCF        :   1m59.63s CPU     46.18s WALL


   This run was terminated on:  17:35:12  13Jun2025            

=------------------------------------------------------------------------------=
   JOB DONE.
=------------------------------------------------------------------------------=
Note: The following floating-point exceptions are signalling: IEEE_INVALID_FLAG
