Authorization required, but no authorization protocol specified

Authorization required, but no authorization protocol specified

Authorization required, but no authorization protocol specified

Authorization required, but no authorization protocol specified

Authorization required, but no authorization protocol specified

Authorization required, but no authorization protocol specified

Authorization required, but no authorization protocol specified

Authorization required, but no authorization protocol specified

Authorization required, but no authorization protocol specified

Authorization required, but no authorization protocol specified


     Program PWSCF v.7.2 starts on 13Jun2025 at 19:14:14 

     This program is part of the open-source Quantum ESPRESSO suite
     for quantum simulation of materials; please cite
         "P. Giannozzi et al., J. Phys.:Condens. Matter 21 395502 (2009);
         "P. Giannozzi et al., J. Phys.:Condens. Matter 29 465901 (2017);
         "P. Giannozzi et al., J. Chem. Phys. 152 154105 (2020);
          URL http://www.quantum-espresso.org", 
     in publications or presentations arising from this work. More details at
     http://www.quantum-espresso.org/quote

     Parallel version (MPI), running on     8 processors

     MPI processes distributed on     1 nodes
     120706 MiB available memory on the printing compute node when the environment starts

     Reading input from /home/jvc/QEspresso7.2/ZnO_database_python/SCFs.in/scf-6.61-1.70.in

     Current dimensions of program PWSCF are:
     Max number of different atomic species (ntypx) = 10
     Max number of k-points (npk) =  40000
     Max angular momentum in pseudopotentials (lmaxx) =  4
     file Zn.upf: wavefunction(s)  3D renormalized

     R & G space division:  proc/nbgrp/npool/nimage =       8
     Subspace diagonalization in iterative solution of the eigenvalue problem:
     a serial algorithm will be used


     Parallelization info
     --------------------
     sticks:   dense  smooth     PW     G-vecs:    dense   smooth      PW
     Min         150      74     22                 7160     2524     418
     Max         151      75     24                 7165     2529     423
     Sum        1201     595    187                57299    20205    3369

     Using Slab Decomposition



     bravais-lattice index     =            4
     lattice parameter (alat)  =       6.6113  a.u.
     unit-cell volume          =     424.2171 (a.u.)^3
     number of atoms/cell      =            4
     number of atomic types    =            2
     number of electrons       =        36.00
     number of Kohn-Sham states=           18
     kinetic-energy cutoff     =      50.0000  Ry
     charge density cutoff     =     400.0000  Ry
     scf convergence threshold =      1.0E-08
     mixing beta               =       0.3000
     number of iterations used =            8  plain     mixing
     Exchange-correlation= PBE
                           (   1   4   3   4   0   0   0)

     celldm(1)=   6.611339  celldm(2)=   0.000000  celldm(3)=   1.695076
     celldm(4)=   0.000000  celldm(5)=   0.000000  celldm(6)=   0.000000

     crystal axes: (cart. coord. in units of alat)
               a(1) = (   1.000000   0.000000   0.000000 )  
               a(2) = (  -0.500000   0.866025   0.000000 )  
               a(3) = (   0.000000   0.000000   1.695076 )  

     reciprocal axes: (cart. coord. in units 2 pi/alat)
               b(1) = (  1.000000  0.577350 -0.000000 )  
               b(2) = (  0.000000  1.154701  0.000000 )  
               b(3) = (  0.000000 -0.000000  0.589944 )  


     PseudoPot. # 1 for Zn read from file:
     /home/jvc/QEspresso7.2/ZnO_database/pseudos/Zn.upf
     MD5 check sum: 7f56cabf9682ed8c977c2f7d0c5985c5
     Pseudo is Ultrasoft + core correction, Zval = 12.0
     Generated using &quot;atomic&quot; code by A. Dal Corso  v.6.2.2
     Using radial grid of 1201 points,  6 beta functions with: 
                l(1) =   0
                l(2) =   0
                l(3) =   1
                l(4) =   1
                l(5) =   2
                l(6) =   2
     Q(r) pseudized with 0 coefficients 


     PseudoPot. # 2 for O  read from file:
     /home/jvc/QEspresso7.2/ZnO_database/pseudos/O.upf
     MD5 check sum: 91400c9766925bcf19f520983a725ff0
     Pseudo is Ultrasoft + core correction, Zval =  6.0
     Generated using &quot;atomic&quot; code by A. Dal Corso  v.6.3MaX
     Using radial grid of 1095 points,  4 beta functions with: 
                l(1) =   0
                l(2) =   0
                l(3) =   1
                l(4) =   1
     Q(r) pseudized with 0 coefficients 


     atomic species   valence    mass     pseudopotential
        Zn            12.00    63.38000     Zn( 1.00)
        O              6.00    15.99900     O ( 1.00)

     12 Sym. Ops. (no inversion) found ( 6 have fractional translation)



   Cartesian axes

     site n.     atom                  positions (alat units)
         1           Zn  tau(   1) = (   0.5000000   0.2886751   0.8486121  )
         2           Zn  tau(   2) = (  -0.0000000   0.5773503   0.0010740  )
         3           O   tau(   3) = (   0.5000000   0.2886751   1.4911186  )
         4           O   tau(   4) = (  -0.0000000   0.5773503   0.6435805  )

     number of k points=    28
                       cart. coord. in units 2pi/alat
        k(    1) = (   0.0000000   0.0000000   0.0000000), wk =   0.0092593
        k(    2) = (   0.0000000   0.0000000   0.0983240), wk =   0.0185185
        k(    3) = (   0.0000000   0.0000000   0.1966480), wk =   0.0185185
        k(    4) = (   0.0000000   0.0000000  -0.2949720), wk =   0.0092593
        k(    5) = (   0.0000000   0.1924501   0.0000000), wk =   0.0555556
        k(    6) = (   0.0000000   0.1924501   0.0983240), wk =   0.1111111
        k(    7) = (   0.0000000   0.1924501   0.1966480), wk =   0.1111111
        k(    8) = (   0.0000000   0.1924501  -0.2949720), wk =   0.0555556
        k(    9) = (   0.0000000   0.3849002   0.0000000), wk =   0.0555556
        k(   10) = (   0.0000000   0.3849002   0.0983240), wk =   0.1111111
        k(   11) = (   0.0000000   0.3849002   0.1966480), wk =   0.1111111
        k(   12) = (   0.0000000   0.3849002  -0.2949720), wk =   0.0555556
        k(   13) = (   0.0000000  -0.5773503   0.0000000), wk =   0.0277778
        k(   14) = (   0.0000000  -0.5773503   0.0983240), wk =   0.0555556
        k(   15) = (   0.0000000  -0.5773503   0.1966480), wk =   0.0555556
        k(   16) = (   0.0000000  -0.5773503  -0.2949720), wk =   0.0277778
        k(   17) = (   0.1666667   0.2886751   0.0000000), wk =   0.0555556
        k(   18) = (   0.1666667   0.2886751   0.0983240), wk =   0.1111111
        k(   19) = (   0.1666667   0.2886751   0.1966480), wk =   0.1111111
        k(   20) = (   0.1666667   0.2886751  -0.2949720), wk =   0.0555556
        k(   21) = (   0.1666667   0.4811252   0.0000000), wk =   0.1111111
        k(   22) = (   0.1666667   0.4811252   0.0983240), wk =   0.2222222
        k(   23) = (   0.1666667   0.4811252   0.1966480), wk =   0.2222222
        k(   24) = (   0.1666667   0.4811252  -0.2949720), wk =   0.1111111
        k(   25) = (   0.3333333   0.5773503   0.0000000), wk =   0.0185185
        k(   26) = (   0.3333333   0.5773503   0.0983240), wk =   0.0370370
        k(   27) = (   0.3333333   0.5773503   0.1966480), wk =   0.0370370
        k(   28) = (   0.3333333   0.5773503  -0.2949720), wk =   0.0185185

     Dense  grid:    57299 G-vectors     FFT dimensions: (  45,  45,  72)

     Smooth grid:    20205 G-vectors     FFT dimensions: (  30,  30,  54)

     Estimated max dynamical RAM per process >      32.36 MB

     Estimated total dynamical RAM >     258.91 MB

     Check: negative core charge=   -0.000002

     Initial potential from superposition of free atoms

     starting charge      35.9925, renormalised to      36.0000
     Starting wfcs are   26 randomized atomic wfcs

     total cpu time spent up to now is        1.7 secs

     Self-consistent Calculation

     iteration #  1     ecut=    50.00 Ry     beta= 0.30
     Davidson diagonalization with overlap
     ethr =  1.00E-02,  avg # of iterations =  1.2

     total cpu time spent up to now is        2.7 secs

     total energy              =    -361.36421864 Ry
     estimated scf accuracy    <       0.82902236 Ry

     iteration #  2     ecut=    50.00 Ry     beta= 0.30
     Davidson diagonalization with overlap
     ethr =  2.30E-03,  avg # of iterations =  2.2

     total cpu time spent up to now is        3.8 secs

     total energy              =    -361.48515584 Ry
     estimated scf accuracy    <       0.09739368 Ry

     iteration #  3     ecut=    50.00 Ry     beta= 0.30
     Davidson diagonalization with overlap
     ethr =  2.71E-04,  avg # of iterations =  5.7

     total cpu time spent up to now is        5.5 secs

     total energy              =    -361.48485114 Ry
     estimated scf accuracy    <       0.16077791 Ry

     iteration #  4     ecut=    50.00 Ry     beta= 0.30
     Davidson diagonalization with overlap
     ethr =  2.71E-04,  avg # of iterations =  9.3

     total cpu time spent up to now is        8.0 secs

     total energy              =    -361.62092327 Ry
     estimated scf accuracy    <       0.38617167 Ry

     iteration #  5     ecut=    50.00 Ry     beta= 0.30
     Davidson diagonalization with overlap
     ethr =  2.71E-04,  avg # of iterations =  1.0

     total cpu time spent up to now is        8.9 secs

     total energy              =    -361.45469964 Ry
     estimated scf accuracy    <       0.30234011 Ry

     iteration #  6     ecut=    50.00 Ry     beta= 0.30
     Davidson diagonalization with overlap
     ethr =  2.71E-04,  avg # of iterations =  6.5

     total cpu time spent up to now is       10.6 secs

     total energy              =    -361.56565007 Ry
     estimated scf accuracy    <       0.08720862 Ry

     iteration #  7     ecut=    50.00 Ry     beta= 0.30
     Davidson diagonalization with overlap
     ethr =  2.42E-04,  avg # of iterations =  1.1

     total cpu time spent up to now is       11.5 secs

     total energy              =    -361.56836891 Ry
     estimated scf accuracy    <       0.04424660 Ry

     iteration #  8     ecut=    50.00 Ry     beta= 0.30
     Davidson diagonalization with overlap
     ethr =  1.23E-04,  avg # of iterations =  1.0

     total cpu time spent up to now is       12.5 secs

     total energy              =    -361.56767610 Ry
     estimated scf accuracy    <       0.04327657 Ry

     iteration #  9     ecut=    50.00 Ry     beta= 0.30
     Davidson diagonalization with overlap
     ethr =  1.20E-04,  avg # of iterations =  1.0

     total cpu time spent up to now is       13.4 secs

     total energy              =    -361.56702472 Ry
     estimated scf accuracy    <       0.03551196 Ry

     iteration # 10     ecut=    50.00 Ry     beta= 0.30
     Davidson diagonalization with overlap
     ethr =  9.86E-05,  avg # of iterations =  1.1

     total cpu time spent up to now is       14.4 secs

     total energy              =    -361.56489755 Ry
     estimated scf accuracy    <       0.02578063 Ry

     iteration # 11     ecut=    50.00 Ry     beta= 0.30
     Davidson diagonalization with overlap
     ethr =  7.16E-05,  avg # of iterations =  1.0

     total cpu time spent up to now is       15.3 secs

     total energy              =    -361.56178833 Ry
     estimated scf accuracy    <       0.01910117 Ry

     iteration # 12     ecut=    50.00 Ry     beta= 0.30
     Davidson diagonalization with overlap
     ethr =  5.31E-05,  avg # of iterations =  2.9

     total cpu time spent up to now is       16.5 secs

     total energy              =    -361.56380291 Ry
     estimated scf accuracy    <       0.00291085 Ry

     iteration # 13     ecut=    50.00 Ry     beta= 0.30
     Davidson diagonalization with overlap
     ethr =  8.09E-06,  avg # of iterations =  5.4

     total cpu time spent up to now is       17.9 secs

     total energy              =    -361.56567001 Ry
     estimated scf accuracy    <       0.00004158 Ry

     iteration # 14     ecut=    50.00 Ry     beta= 0.30
     Davidson diagonalization with overlap
     c_bands:  1 eigenvalues not converged
     c_bands:  1 eigenvalues not converged
     ethr =  1.15E-07,  avg # of iterations = 15.4

     total cpu time spent up to now is       21.7 secs

     total energy              =    -361.56733029 Ry
     estimated scf accuracy    <       0.01169398 Ry

     iteration # 15     ecut=    50.00 Ry     beta= 0.30
     Davidson diagonalization with overlap
     ethr =  1.15E-07,  avg # of iterations =  4.3

     total cpu time spent up to now is       23.1 secs

     total energy              =    -361.56222518 Ry
     estimated scf accuracy    <       0.01023916 Ry

     iteration # 16     ecut=    50.00 Ry     beta= 0.30
     Davidson diagonalization with overlap
     c_bands:  1 eigenvalues not converged
     c_bands:  1 eigenvalues not converged
     ethr =  1.15E-07,  avg # of iterations = 15.2

     total cpu time spent up to now is       26.9 secs

     total energy              =    -361.56500888 Ry
     estimated scf accuracy    <       0.00163631 Ry

     iteration # 17     ecut=    50.00 Ry     beta= 0.30
     Davidson diagonalization with overlap
     ethr =  1.15E-07,  avg # of iterations =  9.4

     total cpu time spent up to now is       29.4 secs

     total energy              =    -361.56511222 Ry
     estimated scf accuracy    <       0.00016642 Ry

     iteration # 18     ecut=    50.00 Ry     beta= 0.30
     Davidson diagonalization with overlap
     ethr =  1.15E-07,  avg # of iterations =  5.3

     total cpu time spent up to now is       30.8 secs

     total energy              =    -361.56512719 Ry
     estimated scf accuracy    <       0.00004954 Ry

     iteration # 19     ecut=    50.00 Ry     beta= 0.30
     Davidson diagonalization with overlap
     ethr =  1.15E-07,  avg # of iterations =  1.1

     total cpu time spent up to now is       31.7 secs

     total energy              =    -361.56513667 Ry
     estimated scf accuracy    <       0.00005009 Ry

     iteration # 20     ecut=    50.00 Ry     beta= 0.30
     Davidson diagonalization with overlap
     ethr =  1.15E-07,  avg # of iterations =  2.0

     total cpu time spent up to now is       32.7 secs

     total energy              =    -361.56511125 Ry
     estimated scf accuracy    <       0.00006572 Ry

     iteration # 21     ecut=    50.00 Ry     beta= 0.30
     Davidson diagonalization with overlap
     ethr =  1.15E-07,  avg # of iterations =  3.0

     total cpu time spent up to now is       33.8 secs

     total energy              =    -361.56510305 Ry
     estimated scf accuracy    <       0.00001766 Ry

     iteration # 22     ecut=    50.00 Ry     beta= 0.30
     Davidson diagonalization with overlap
     ethr =  4.90E-08,  avg # of iterations =  6.7

     total cpu time spent up to now is       35.6 secs

     total energy              =    -361.56510529 Ry
     estimated scf accuracy    <       0.00003751 Ry

     iteration # 23     ecut=    50.00 Ry     beta= 0.30
     Davidson diagonalization with overlap
     ethr =  4.90E-08,  avg # of iterations =  6.6

     total cpu time spent up to now is       37.3 secs

     total energy              =    -361.56511580 Ry
     estimated scf accuracy    <       0.00001030 Ry

     iteration # 24     ecut=    50.00 Ry     beta= 0.30
     Davidson diagonalization with overlap
     ethr =  2.86E-08,  avg # of iterations =  2.0

     total cpu time spent up to now is       38.3 secs

     total energy              =    -361.56511541 Ry
     estimated scf accuracy    <       0.00000233 Ry

     iteration # 25     ecut=    50.00 Ry     beta= 0.30
     Davidson diagonalization with overlap
     ethr =  6.47E-09,  avg # of iterations =  8.0

     total cpu time spent up to now is       40.2 secs

     total energy              =    -361.56511770 Ry
     estimated scf accuracy    <       0.00000319 Ry

     iteration # 26     ecut=    50.00 Ry     beta= 0.30
     Davidson diagonalization with overlap
     ethr =  6.47E-09,  avg # of iterations =  1.0

     total cpu time spent up to now is       41.1 secs

     total energy              =    -361.56511719 Ry
     estimated scf accuracy    <       0.00000189 Ry

     iteration # 27     ecut=    50.00 Ry     beta= 0.30
     Davidson diagonalization with overlap
     ethr =  5.24E-09,  avg # of iterations =  3.0

     total cpu time spent up to now is       42.3 secs

     total energy              =    -361.56511734 Ry
     estimated scf accuracy    <       0.00000024 Ry

     iteration # 28     ecut=    50.00 Ry     beta= 0.30
     Davidson diagonalization with overlap
     ethr =  6.79E-10,  avg # of iterations =  6.3

     total cpu time spent up to now is       44.0 secs

     total energy              =    -361.56511761 Ry
     estimated scf accuracy    <       0.00000027 Ry

     iteration # 29     ecut=    50.00 Ry     beta= 0.30
     Davidson diagonalization with overlap
     ethr =  6.79E-10,  avg # of iterations =  1.0

     total cpu time spent up to now is       44.9 secs

     total energy              =    -361.56511754 Ry
     estimated scf accuracy    <       0.00000023 Ry

     iteration # 30     ecut=    50.00 Ry     beta= 0.30
     Davidson diagonalization with overlap
     ethr =  6.29E-10,  avg # of iterations =  1.6

     total cpu time spent up to now is       45.9 secs

     total energy              =    -361.56511755 Ry
     estimated scf accuracy    <       0.00000008 Ry

     iteration # 31     ecut=    50.00 Ry     beta= 0.30
     Davidson diagonalization with overlap
     ethr =  2.31E-10,  avg # of iterations =  2.2

     total cpu time spent up to now is       47.0 secs

     total energy              =    -361.56511754 Ry
     estimated scf accuracy    <       0.00000006 Ry

     iteration # 32     ecut=    50.00 Ry     beta= 0.30
     Davidson diagonalization with overlap
     ethr =  1.65E-10,  avg # of iterations =  5.2

     total cpu time spent up to now is       48.4 secs

     End of self-consistent calculation

          k = 0.0000 0.0000 0.0000 (  2563 PWs)   bands (ev):

   -12.5898 -12.2557  -1.1526  -1.1526  -1.1204  -1.0589  -1.0589  -0.6248
    -0.6010  -0.6010  -0.5118  -0.5118   0.1577   3.3203   3.3203   3.6221
     3.7526   3.7526

          k = 0.0000 0.0000 0.0983 (  2557 PWs)   bands (ev):

   -12.5681 -12.2788  -1.1480  -1.1480  -1.1252  -1.0672  -1.0672  -0.7737
    -0.5934  -0.5934  -0.5164  -0.5164   0.4291   3.0317   3.3496   3.3496
     3.7240   3.7240

          k = 0.0000 0.0000 0.1966 (  2533 PWs)   bands (ev):

   -12.5083 -12.3413  -1.1347  -1.1347  -1.1260  -1.0882  -1.0882  -0.9723
    -0.5737  -0.5737  -0.5293  -0.5293   0.9766   2.3105   3.4294   3.4294
     3.6456   3.6456

          k = 0.0000 0.0000-0.2950 (  2498 PWs)   bands (ev):

   -12.4255 -12.4255  -1.1133  -1.1133  -1.1133  -1.1133  -1.0871  -1.0871
    -0.5496  -0.5496  -0.5496  -0.5496   1.6204   1.6204   3.5379   3.5379
     3.5379   3.5379

          k = 0.0000 0.1925 0.0000 (  2553 PWs)   bands (ev):

   -12.5062 -12.2122  -1.1796  -1.1000  -1.0801  -1.0226  -0.9847  -0.6668
    -0.6293  -0.6008  -0.5079  -0.4226   0.3441   2.4425   2.7132   3.0889
     3.5402   3.6146

          k = 0.0000 0.1925 0.0983 (  2541 PWs)   bands (ev):

   -12.4869 -12.2323  -1.1821  -1.0940  -1.0847  -1.0298  -0.9944  -0.7616
    -0.6165  -0.5935  -0.5130  -0.4689   0.5828   2.3574   2.7022   3.1245
     3.4618   3.5797

          k = 0.0000 0.1925 0.1966 (  2538 PWs)   bands (ev):

   -12.4339 -12.2869  -1.1809  -1.1075  -1.0764  -1.0357  -1.0192  -0.9211
    -0.5863  -0.5747  -0.5281  -0.5115   1.0597   2.0326   2.8131   3.2215
     3.2669   3.4842

          k = 0.0000 0.1925-0.2950 (  2550 PWs)   bands (ev):

   -12.3608 -12.3608  -1.1543  -1.1543  -1.0496  -1.0496  -1.0082  -1.0082
    -0.5506  -0.5506  -0.5489  -0.5489   1.5716   1.5716   3.0261   3.0261
     3.3532   3.3532

          k = 0.0000 0.3849 0.0000 (  2541 PWs)   bands (ev):

   -12.3235 -12.1344  -1.1696  -1.0302  -1.0188  -0.8374  -0.8234  -0.6971
    -0.6201  -0.5589  -0.4960  -0.3690   0.7404   1.2235   1.8193   2.6303
     3.1932   3.3239

          k = 0.0000 0.3849 0.0983 (  2541 PWs)   bands (ev):

   -12.3106 -12.1469  -1.1745  -1.0494  -1.0072  -0.8430  -0.8379  -0.7292
    -0.6149  -0.5553  -0.5011  -0.4045   0.7767   1.2601   1.9004   2.6778
     3.1758   3.2779

          k = 0.0000 0.3849 0.1966 (  2532 PWs)   bands (ev):

   -12.2757 -12.1811  -1.1778  -1.0996  -0.9743  -0.8765  -0.8526  -0.8058
    -0.5759  -0.5450  -0.5140  -0.4642   0.8803   1.1900   2.2447   2.8065
     3.0375   3.1524

          k = 0.0000 0.3849-0.2950 (  2534 PWs)   bands (ev):

   -12.2282 -12.2282  -1.1541  -1.1541  -0.9269  -0.9269  -0.8480  -0.8480
    -0.5303  -0.5303  -0.5217  -0.5217   1.0314   1.0314   2.6979   2.6979
     2.9802   2.9802

          k = 0.0000-0.5774 0.0000 (  2532 PWs)   bands (ev):

   -12.2132 -12.1112  -1.1441  -0.9947  -0.9327  -0.7739  -0.7404  -0.6322
    -0.5085  -0.4893  -0.4815  -0.4326   0.4315   0.9088   1.7668   2.3952
     2.8585   3.1720

          k = 0.0000-0.5774 0.0983 (  2522 PWs)   bands (ev):

   -12.2059 -12.1176  -1.1517  -0.9800  -0.9795  -0.7675  -0.7590  -0.6291
    -0.5078  -0.4911  -0.4852  -0.4333   0.4134   0.8327   1.9476   2.4491
     2.9061   3.1209

          k = 0.0000-0.5774 0.1966 (  2526 PWs)   bands (ev):

   -12.1863 -12.1353  -1.1604  -1.0710  -0.9368  -0.8092  -0.7466  -0.6587
    -0.5050  -0.4930  -0.4751  -0.4380   0.4260   0.6705   2.3472   2.5943
     2.9220   2.9811

          k = 0.0000-0.5774-0.2950 (  2516 PWs)   bands (ev):

   -12.1604 -12.1604  -1.1390  -1.1390  -0.8748  -0.8748  -0.7081  -0.7081
    -0.5001  -0.5001  -0.4516  -0.4516   0.5176   0.5176   2.7305   2.7305
     2.7890   2.7890

          k = 0.1667 0.2887 0.0000 (  2537 PWs)   bands (ev):

   -12.3724 -12.1518  -1.1230  -1.0867  -1.0036  -0.9551  -0.8500  -0.6694
    -0.6563  -0.5835  -0.5000  -0.3723   0.6717   1.7000   1.9195   2.6175
     3.2640   3.3258

          k = 0.1667 0.2887 0.0983 (  2539 PWs)   bands (ev):

   -12.3576 -12.1665  -1.1295  -1.0836  -1.0064  -0.9631  -0.8613  -0.7409
    -0.6360  -0.5720  -0.5053  -0.4122   0.7998   1.6433   2.0357   2.6406
     3.2155   3.2915

          k = 0.1667 0.2887 0.1966 (  2544 PWs)   bands (ev):

   -12.3171 -12.2068  -1.1373  -1.0882  -1.0038  -0.9797  -0.8889  -0.8608
    -0.5881  -0.5559  -0.5185  -0.4716   1.0444   1.4897   2.3555   2.7304
     3.0861   3.1285

          k = 0.1667 0.2887-0.2950 (  2534 PWs)   bands (ev):

   -12.2619 -12.2619  -1.1198  -1.1198  -0.9912  -0.9912  -0.9077  -0.9077
    -0.5424  -0.5424  -0.5243  -0.5243   1.2814   1.2814   2.7434   2.7434
     2.9366   2.9366

          k = 0.1667 0.4811 0.0000 (  2527 PWs)   bands (ev):

   -12.2163 -12.1096  -1.1146  -0.9783  -0.8661  -0.7761  -0.7216  -0.6968
    -0.6030  -0.5525  -0.4614  -0.3492   0.6542   1.0097   1.7642   2.0522
     2.8364   2.9376

          k = 0.1667 0.4811 0.0983 (  2524 PWs)   bands (ev):

   -12.2087 -12.1163  -1.1083  -0.9842  -0.9017  -0.7830  -0.7368  -0.7172
    -0.5962  -0.5366  -0.4601  -0.3610   0.6322   0.9657   1.8754   2.1650
     2.7899   2.9646

          k = 0.1667 0.4811 0.1966 (  2525 PWs)   bands (ev):

   -12.1883 -12.1350  -1.0959  -1.0140  -0.9353  -0.8190  -0.7712  -0.7522
    -0.5592  -0.5244  -0.4513  -0.3914   0.6407   0.8472   2.0983   2.4602
     2.6381   2.9834

          k = 0.1667 0.4811-0.2950 (  2520 PWs)   bands (ev):

   -12.1612 -12.1612  -1.0690  -1.0690  -0.8903  -0.8903  -0.7714  -0.7714
    -0.5306  -0.5306  -0.4269  -0.4269   0.7210   0.7210   2.3506   2.3506
     2.8303   2.8303

          k = 0.3333 0.5774 0.0000 (  2514 PWs)   bands (ev):

   -12.1302 -12.1302  -1.1244  -0.8432  -0.8432  -0.7172  -0.6269  -0.6269
    -0.6019  -0.5754  -0.3867  -0.3867   0.8363   0.8363   1.1884   2.4375
     2.4375   2.4601

          k = 0.3333 0.5774 0.0983 (  2517 PWs)   bands (ev):

   -12.1296 -12.1296  -1.1043  -0.8701  -0.8701  -0.7540  -0.6336  -0.6336
    -0.6032  -0.5779  -0.3715  -0.3715   0.7875   0.7875   1.2790   2.3738
     2.5530   2.5530

          k = 0.3333 0.5774 0.1966 (  2511 PWs)   bands (ev):

   -12.1285 -12.1285  -1.0456  -0.9224  -0.9224  -0.8470  -0.6432  -0.6432
    -0.6004  -0.5844  -0.3457  -0.3457   0.7067   0.7067   1.5170   2.1420
     2.7705   2.7705

          k = 0.3333 0.5774-0.2950 (  2550 PWs)   bands (ev):

   -12.1280 -12.1280  -0.9551  -0.9551  -0.9479  -0.9479  -0.6476  -0.6476
    -0.5930  -0.5930  -0.3346  -0.3346   0.6724   0.6724   1.8305   1.8305
     2.8750   2.8750

     highest occupied level (ev):     3.7526

!    total energy              =    -361.56511756 Ry
     estimated scf accuracy    <          5.6E-09 Ry

     The total energy is the sum of the following terms:
     one-electron contribution =    -182.56182490 Ry
     hartree contribution      =     128.51790128 Ry
     xc contribution           =    -109.09996499 Ry
     ewald contribution        =    -198.42122896 Ry

     convergence has been achieved in  32 iterations

     Forces acting on atoms (cartesian axes, Ry/au):

     atom    1 type  1   force =     0.00000000    0.00000000   -0.00447632
     atom    2 type  1   force =     0.00000000    0.00000000   -0.00447632
     atom    3 type  2   force =     0.00000000    0.00000000    0.00447632
     atom    4 type  2   force =     0.00000000   -0.00000000    0.00447632
     The non-local contrib.  to forces
     atom    1 type  1   force =     0.00000000    0.00000000    0.11444617
     atom    2 type  1   force =     0.00000000   -0.00000000    0.11444617
     atom    3 type  2   force =     0.00000000   -0.00000000    0.13545601
     atom    4 type  2   force =     0.00000000    0.00000000    0.13545601
     The ionic contribution  to forces
     atom    1 type  1   force =    -0.00000000    0.00000000    0.90533476
     atom    2 type  1   force =     0.00000000   -0.00000000    0.90533476
     atom    3 type  2   force =    -0.00000000    0.00000000   -0.90533476
     atom    4 type  2   force =     0.00000000   -0.00000000   -0.90533476
     The local contribution  to forces
     atom    1 type  1   force =    -0.00000002    0.00000001   -1.01759483
     atom    2 type  1   force =     0.00000007   -0.00000004   -1.01759482
     atom    3 type  2   force =    -0.00000001    0.00000000    0.77560718
     atom    4 type  2   force =     0.00000002   -0.00000001    0.77560716
     The core correction contribution to forces
     atom    1 type  1   force =    -0.00000000    0.00000000   -0.00667189
     atom    2 type  1   force =     0.00000001   -0.00000001   -0.00667189
     atom    3 type  2   force =     0.00000000   -0.00000000   -0.00125231
     atom    4 type  2   force =    -0.00000000    0.00000000   -0.00125231
     The Hubbard contrib.    to forces
     atom    1 type  1   force =     0.00000000    0.00000000    0.00000000
     atom    2 type  1   force =     0.00000000    0.00000000    0.00000000
     atom    3 type  2   force =     0.00000000    0.00000000    0.00000000
     atom    4 type  2   force =     0.00000000    0.00000000    0.00000000
     The SCF correction term to forces
     atom    1 type  1   force =    -0.00000000    0.00000000    0.00001342
     atom    2 type  1   force =     0.00000000   -0.00000000    0.00001342
     atom    3 type  2   force =    -0.00000000    0.00000000    0.00000416
     atom    4 type  2   force =    -0.00000000    0.00000000    0.00000416

     Total force =     0.008953     Total SCF correction =     0.000020


     Computing stress (Cartesian axis) and pressure

          total   stress  (Ry/bohr**3)                   (kbar)     P=     -190.29
  -0.00122530   0.00000000  -0.00000000         -180.25        0.00       -0.00
   0.00000000  -0.00122530  -0.00000000            0.00     -180.25       -0.00
  -0.00000000  -0.00000000  -0.00143017           -0.00       -0.00     -210.39


     Writing all to output data dir ./ZnO_ANN.save/

     init_run     :      2.16s CPU      1.40s WALL (       1 calls)
     electrons    :    125.56s CPU     46.65s WALL (       1 calls)
     forces       :      0.85s CPU      0.38s WALL (       1 calls)
     stress       :      3.21s CPU      1.66s WALL (       1 calls)

     Called by init_run:
     wfcinit      :      1.22s CPU      0.46s WALL (       1 calls)
     potinit      :      0.29s CPU      0.29s WALL (       1 calls)
     hinit0       :      0.47s CPU      0.48s WALL (       1 calls)

     Called by electrons:
     c_bands      :    101.06s CPU     37.09s WALL (      32 calls)
     sum_band     :     17.70s CPU      6.90s WALL (      32 calls)
     v_of_rho     :      1.45s CPU      0.63s WALL (      33 calls)
     newd         :      5.01s CPU      1.92s WALL (      33 calls)
     mix_rho      :      0.23s CPU      0.11s WALL (      32 calls)

     Called by c_bands:
     init_us_2    :      1.74s CPU      0.61s WALL (    1876 calls)
     init_us_2:cp :      1.71s CPU      0.60s WALL (    1876 calls)
     cegterg      :     96.99s CPU     35.53s WALL (     896 calls)

     Called by *egterg:
     cdiaghg      :     14.35s CPU      4.61s WALL (    4778 calls)
     h_psi        :     67.37s CPU     27.31s WALL (    4806 calls)
     s_psi        :      1.52s CPU      0.42s WALL (    4806 calls)
     g_psi        :      0.55s CPU      0.14s WALL (    3882 calls)

     Called by h_psi:
     h_psi:calbec :      2.29s CPU      0.81s WALL (    4806 calls)
     vloc_psi     :     62.90s CPU     25.84s WALL (    4806 calls)
     add_vuspsi   :      1.57s CPU      0.48s WALL (    4806 calls)

     General routines
     calbec       :      2.99s CPU      1.02s WALL (    5842 calls)
     fft          :      1.05s CPU      0.57s WALL (     452 calls)
     ffts         :      0.19s CPU      0.14s WALL (      65 calls)
     fftw         :     63.17s CPU     26.04s WALL (  124504 calls)
     interpolate  :      0.22s CPU      0.16s WALL (      33 calls)

     Parallel routines

     PWSCF        :   2m12.34s CPU     50.59s WALL


   This run was terminated on:  19:15: 4  13Jun2025            

=------------------------------------------------------------------------------=
   JOB DONE.
=------------------------------------------------------------------------------=
Note: The following floating-point exceptions are signalling: IEEE_INVALID_FLAG
