Authorization required, but no authorization protocol specified

Authorization required, but no authorization protocol specified

Authorization required, but no authorization protocol specified

Authorization required, but no authorization protocol specified

Authorization required, but no authorization protocol specified

Authorization required, but no authorization protocol specified

Authorization required, but no authorization protocol specified

Authorization required, but no authorization protocol specified

Authorization required, but no authorization protocol specified

Authorization required, but no authorization protocol specified


     Program PWSCF v.7.2 starts on 13Jun2025 at 17:39: 1 

     This program is part of the open-source Quantum ESPRESSO suite
     for quantum simulation of materials; please cite
         "P. Giannozzi et al., J. Phys.:Condens. Matter 21 395502 (2009);
         "P. Giannozzi et al., J. Phys.:Condens. Matter 29 465901 (2017);
         "P. Giannozzi et al., J. Chem. Phys. 152 154105 (2020);
          URL http://www.quantum-espresso.org", 
     in publications or presentations arising from this work. More details at
     http://www.quantum-espresso.org/quote

     Parallel version (MPI), running on     8 processors

     MPI processes distributed on     1 nodes
     120711 MiB available memory on the printing compute node when the environment starts

     Reading input from /home/jvc/QEspresso7.2/ZnO_database_python/SCFs.in/scf-6.30-1.50.in

     Current dimensions of program PWSCF are:
     Max number of different atomic species (ntypx) = 10
     Max number of k-points (npk) =  40000
     Max angular momentum in pseudopotentials (lmaxx) =  4
     file Zn.upf: wavefunction(s)  3D renormalized

     R & G space division:  proc/nbgrp/npool/nimage =       8
     Subspace diagonalization in iterative solution of the eigenvalue problem:
     a serial algorithm will be used


     Parallelization info
     --------------------
     sticks:   dense  smooth     PW     G-vecs:    dense   smooth      PW
     Min         137      68     20                 5481     1946     324
     Max         138      69     21                 5483     1949     331
     Sum        1099     547    163                43855    15577    2621

     Using Slab Decomposition



     bravais-lattice index     =            4
     lattice parameter (alat)  =       6.3024  a.u.
     unit-cell volume          =     325.4850 (a.u.)^3
     number of atoms/cell      =            4
     number of atomic types    =            2
     number of electrons       =        36.00
     number of Kohn-Sham states=           18
     kinetic-energy cutoff     =      50.0000  Ry
     charge density cutoff     =     400.0000  Ry
     scf convergence threshold =      1.0E-08
     mixing beta               =       0.3000
     number of iterations used =            8  plain     mixing
     Exchange-correlation= PBE
                           (   1   4   3   4   0   0   0)

     celldm(1)=   6.302398  celldm(2)=   0.000000  celldm(3)=   1.501353
     celldm(4)=   0.000000  celldm(5)=   0.000000  celldm(6)=   0.000000

     crystal axes: (cart. coord. in units of alat)
               a(1) = (   1.000000   0.000000   0.000000 )  
               a(2) = (  -0.500000   0.866025   0.000000 )  
               a(3) = (   0.000000   0.000000   1.501353 )  

     reciprocal axes: (cart. coord. in units 2 pi/alat)
               b(1) = (  1.000000  0.577350 -0.000000 )  
               b(2) = (  0.000000  1.154701  0.000000 )  
               b(3) = (  0.000000 -0.000000  0.666066 )  


     PseudoPot. # 1 for Zn read from file:
     /home/jvc/QEspresso7.2/ZnO_database/pseudos/Zn.upf
     MD5 check sum: 7f56cabf9682ed8c977c2f7d0c5985c5
     Pseudo is Ultrasoft + core correction, Zval = 12.0
     Generated using &quot;atomic&quot; code by A. Dal Corso  v.6.2.2
     Using radial grid of 1201 points,  6 beta functions with: 
                l(1) =   0
                l(2) =   0
                l(3) =   1
                l(4) =   1
                l(5) =   2
                l(6) =   2
     Q(r) pseudized with 0 coefficients 


     PseudoPot. # 2 for O  read from file:
     /home/jvc/QEspresso7.2/ZnO_database/pseudos/O.upf
     MD5 check sum: 91400c9766925bcf19f520983a725ff0
     Pseudo is Ultrasoft + core correction, Zval =  6.0
     Generated using &quot;atomic&quot; code by A. Dal Corso  v.6.3MaX
     Using radial grid of 1095 points,  4 beta functions with: 
                l(1) =   0
                l(2) =   0
                l(3) =   1
                l(4) =   1
     Q(r) pseudized with 0 coefficients 


     atomic species   valence    mass     pseudopotential
        Zn            12.00    63.38000     Zn( 1.00)
        O              6.00    15.99900     O ( 1.00)

     12 Sym. Ops. (no inversion) found ( 6 have fractional translation)



   Cartesian axes

     site n.     atom                  positions (alat units)
         1           Zn  tau(   1) = (   0.5000000   0.2886751   0.7516279  )
         2           Zn  tau(   2) = (  -0.0000000   0.5773503   0.0009512  )
         3           O   tau(   3) = (   0.5000000   0.2886751   1.3207051  )
         4           O   tau(   4) = (  -0.0000000   0.5773503   0.5700284  )

     number of k points=    28
                       cart. coord. in units 2pi/alat
        k(    1) = (   0.0000000   0.0000000   0.0000000), wk =   0.0092593
        k(    2) = (   0.0000000   0.0000000   0.1110110), wk =   0.0185185
        k(    3) = (   0.0000000   0.0000000   0.2220219), wk =   0.0185185
        k(    4) = (   0.0000000   0.0000000  -0.3330329), wk =   0.0092593
        k(    5) = (   0.0000000   0.1924501   0.0000000), wk =   0.0555556
        k(    6) = (   0.0000000   0.1924501   0.1110110), wk =   0.1111111
        k(    7) = (   0.0000000   0.1924501   0.2220219), wk =   0.1111111
        k(    8) = (   0.0000000   0.1924501  -0.3330329), wk =   0.0555556
        k(    9) = (   0.0000000   0.3849002   0.0000000), wk =   0.0555556
        k(   10) = (   0.0000000   0.3849002   0.1110110), wk =   0.1111111
        k(   11) = (   0.0000000   0.3849002   0.2220219), wk =   0.1111111
        k(   12) = (   0.0000000   0.3849002  -0.3330329), wk =   0.0555556
        k(   13) = (   0.0000000  -0.5773503   0.0000000), wk =   0.0277778
        k(   14) = (   0.0000000  -0.5773503   0.1110110), wk =   0.0555556
        k(   15) = (   0.0000000  -0.5773503   0.2220219), wk =   0.0555556
        k(   16) = (   0.0000000  -0.5773503  -0.3330329), wk =   0.0277778
        k(   17) = (   0.1666667   0.2886751   0.0000000), wk =   0.0555556
        k(   18) = (   0.1666667   0.2886751   0.1110110), wk =   0.1111111
        k(   19) = (   0.1666667   0.2886751   0.2220219), wk =   0.1111111
        k(   20) = (   0.1666667   0.2886751  -0.3330329), wk =   0.0555556
        k(   21) = (   0.1666667   0.4811252   0.0000000), wk =   0.1111111
        k(   22) = (   0.1666667   0.4811252   0.1110110), wk =   0.2222222
        k(   23) = (   0.1666667   0.4811252   0.2220219), wk =   0.2222222
        k(   24) = (   0.1666667   0.4811252  -0.3330329), wk =   0.1111111
        k(   25) = (   0.3333333   0.5773503   0.0000000), wk =   0.0185185
        k(   26) = (   0.3333333   0.5773503   0.1110110), wk =   0.0370370
        k(   27) = (   0.3333333   0.5773503   0.2220219), wk =   0.0370370
        k(   28) = (   0.3333333   0.5773503  -0.3330329), wk =   0.0185185

     Dense  grid:    43855 G-vectors     FFT dimensions: (  45,  45,  64)

     Smooth grid:    15577 G-vectors     FFT dimensions: (  30,  30,  48)

     Estimated max dynamical RAM per process >      25.68 MB

     Estimated total dynamical RAM >     205.43 MB

     Check: negative core charge=   -0.000002

     Initial potential from superposition of free atoms

     starting charge      35.9925, renormalised to      36.0000
     Starting wfcs are   26 randomized atomic wfcs

     total cpu time spent up to now is        1.5 secs

     Self-consistent Calculation

     iteration #  1     ecut=    50.00 Ry     beta= 0.30
     Davidson diagonalization with overlap
     ethr =  1.00E-02,  avg # of iterations =  2.0

     total cpu time spent up to now is        2.4 secs

     total energy              =    -361.46929216 Ry
     estimated scf accuracy    <       0.69829660 Ry

     iteration #  2     ecut=    50.00 Ry     beta= 0.30
     Davidson diagonalization with overlap
     ethr =  1.94E-03,  avg # of iterations =  2.0

     total cpu time spent up to now is        3.4 secs

     total energy              =    -361.56585350 Ry
     estimated scf accuracy    <       0.09248609 Ry

     iteration #  3     ecut=    50.00 Ry     beta= 0.30
     Davidson diagonalization with overlap
     ethr =  2.57E-04,  avg # of iterations =  6.2

     total cpu time spent up to now is        5.0 secs

     total energy              =    -361.59826148 Ry
     estimated scf accuracy    <       0.06250858 Ry

     iteration #  4     ecut=    50.00 Ry     beta= 0.30
     Davidson diagonalization with overlap
     ethr =  1.74E-04,  avg # of iterations =  8.0

     total cpu time spent up to now is        6.9 secs

     total energy              =    -361.63871729 Ry
     estimated scf accuracy    <       0.19831087 Ry

     iteration #  5     ecut=    50.00 Ry     beta= 0.30
     Davidson diagonalization with overlap
     ethr =  1.74E-04,  avg # of iterations =  1.5

     total cpu time spent up to now is        7.8 secs

     total energy              =    -361.54932106 Ry
     estimated scf accuracy    <       0.11304717 Ry

     iteration #  6     ecut=    50.00 Ry     beta= 0.30
     Davidson diagonalization with overlap
     ethr =  1.74E-04,  avg # of iterations =  9.0

     total cpu time spent up to now is        9.9 secs

     total energy              =    -361.59397872 Ry
     estimated scf accuracy    <       0.44900065 Ry

     iteration #  7     ecut=    50.00 Ry     beta= 0.30
     Davidson diagonalization with overlap
     ethr =  1.74E-04,  avg # of iterations =  4.9

     total cpu time spent up to now is       11.3 secs

     total energy              =    -361.63329336 Ry
     estimated scf accuracy    <       0.04535935 Ry

     iteration #  8     ecut=    50.00 Ry     beta= 0.30
     Davidson diagonalization with overlap
     ethr =  1.26E-04,  avg # of iterations =  1.1

     total cpu time spent up to now is       12.1 secs

     total energy              =    -361.63299944 Ry
     estimated scf accuracy    <       0.04088951 Ry

     iteration #  9     ecut=    50.00 Ry     beta= 0.30
     Davidson diagonalization with overlap
     ethr =  1.14E-04,  avg # of iterations =  1.1

     total cpu time spent up to now is       12.9 secs

     total energy              =    -361.62009465 Ry
     estimated scf accuracy    <       0.03700194 Ry

     iteration # 10     ecut=    50.00 Ry     beta= 0.30
     Davidson diagonalization with overlap
     ethr =  1.03E-04,  avg # of iterations =  2.7

     total cpu time spent up to now is       13.8 secs

     total energy              =    -361.61821590 Ry
     estimated scf accuracy    <       0.01111613 Ry

     iteration # 11     ecut=    50.00 Ry     beta= 0.30
     Davidson diagonalization with overlap
     ethr =  3.09E-05,  avg # of iterations =  6.2

     total cpu time spent up to now is       15.3 secs

     total energy              =    -361.62685583 Ry
     estimated scf accuracy    <       0.00531657 Ry

     iteration # 12     ecut=    50.00 Ry     beta= 0.30
     Davidson diagonalization with overlap
     ethr =  1.48E-05,  avg # of iterations =  2.0

     total cpu time spent up to now is       16.2 secs

     total energy              =    -361.62732834 Ry
     estimated scf accuracy    <       0.00178976 Ry

     iteration # 13     ecut=    50.00 Ry     beta= 0.30
     Davidson diagonalization with overlap
     ethr =  4.97E-06,  avg # of iterations =  1.9

     total cpu time spent up to now is       17.0 secs

     total energy              =    -361.62759559 Ry
     estimated scf accuracy    <       0.00172257 Ry

     iteration # 14     ecut=    50.00 Ry     beta= 0.30
     Davidson diagonalization with overlap
     ethr =  4.78E-06,  avg # of iterations =  1.0

     total cpu time spent up to now is       17.8 secs

     total energy              =    -361.62738301 Ry
     estimated scf accuracy    <       0.00189104 Ry

     iteration # 15     ecut=    50.00 Ry     beta= 0.30
     Davidson diagonalization with overlap
     ethr =  4.78E-06,  avg # of iterations =  1.4

     total cpu time spent up to now is       18.7 secs

     total energy              =    -361.62682155 Ry
     estimated scf accuracy    <       0.00122462 Ry

     iteration # 16     ecut=    50.00 Ry     beta= 0.30
     Davidson diagonalization with overlap
     ethr =  3.40E-06,  avg # of iterations =  4.5

     total cpu time spent up to now is       19.9 secs

     total energy              =    -361.62737682 Ry
     estimated scf accuracy    <       0.00002847 Ry

     iteration # 17     ecut=    50.00 Ry     beta= 0.30
     Davidson diagonalization with overlap
     ethr =  7.91E-08,  avg # of iterations = 10.6

     total cpu time spent up to now is       22.4 secs

     total energy              =    -361.62762654 Ry
     estimated scf accuracy    <       0.00156190 Ry

     iteration # 18     ecut=    50.00 Ry     beta= 0.30
     Davidson diagonalization with overlap
     ethr =  7.91E-08,  avg # of iterations =  1.5

     total cpu time spent up to now is       23.3 secs

     total energy              =    -361.62842999 Ry
     estimated scf accuracy    <       0.00141386 Ry

     iteration # 19     ecut=    50.00 Ry     beta= 0.30
     Davidson diagonalization with overlap
     ethr =  7.91E-08,  avg # of iterations = 10.5

     total cpu time spent up to now is       25.8 secs

     total energy              =    -361.62514371 Ry
     estimated scf accuracy    <       0.00525579 Ry

     iteration # 20     ecut=    50.00 Ry     beta= 0.30
     Davidson diagonalization with overlap
     c_bands:  1 eigenvalues not converged
     c_bands:  1 eigenvalues not converged
     ethr =  7.91E-08,  avg # of iterations = 14.8

     total cpu time spent up to now is       29.3 secs

     total energy              =    -361.62678370 Ry
     estimated scf accuracy    <       0.00334123 Ry

     iteration # 21     ecut=    50.00 Ry     beta= 0.30
     Davidson diagonalization with overlap
     ethr =  7.91E-08,  avg # of iterations = 11.6

     total cpu time spent up to now is       32.1 secs

     total energy              =    -361.62730807 Ry
     estimated scf accuracy    <       0.00001739 Ry

     iteration # 22     ecut=    50.00 Ry     beta= 0.30
     Davidson diagonalization with overlap
     ethr =  4.83E-08,  avg # of iterations =  3.2

     total cpu time spent up to now is       33.1 secs

     total energy              =    -361.62729077 Ry
     estimated scf accuracy    <       0.00004493 Ry

     iteration # 23     ecut=    50.00 Ry     beta= 0.30
     Davidson diagonalization with overlap
     ethr =  4.83E-08,  avg # of iterations =  2.9

     total cpu time spent up to now is       34.0 secs

     total energy              =    -361.62728658 Ry
     estimated scf accuracy    <       0.00001116 Ry

     iteration # 24     ecut=    50.00 Ry     beta= 0.30
     Davidson diagonalization with overlap
     ethr =  3.10E-08,  avg # of iterations =  6.1

     total cpu time spent up to now is       35.6 secs

     total energy              =    -361.62729427 Ry
     estimated scf accuracy    <       0.00000662 Ry

     iteration # 25     ecut=    50.00 Ry     beta= 0.30
     Davidson diagonalization with overlap
     ethr =  1.84E-08,  avg # of iterations =  1.6

     total cpu time spent up to now is       36.4 secs

     total energy              =    -361.62729341 Ry
     estimated scf accuracy    <       0.00000418 Ry

     iteration # 26     ecut=    50.00 Ry     beta= 0.30
     Davidson diagonalization with overlap
     ethr =  1.16E-08,  avg # of iterations =  2.0

     total cpu time spent up to now is       37.3 secs

     total energy              =    -361.62729363 Ry
     estimated scf accuracy    <       0.00000142 Ry

     iteration # 27     ecut=    50.00 Ry     beta= 0.30
     Davidson diagonalization with overlap
     ethr =  3.94E-09,  avg # of iterations =  2.2

     total cpu time spent up to now is       38.2 secs

     total energy              =    -361.62729349 Ry
     estimated scf accuracy    <       0.00000103 Ry

     iteration # 28     ecut=    50.00 Ry     beta= 0.30
     Davidson diagonalization with overlap
     ethr =  2.86E-09,  avg # of iterations =  2.9

     total cpu time spent up to now is       39.1 secs

     total energy              =    -361.62729373 Ry
     estimated scf accuracy    <       0.00000032 Ry

     iteration # 29     ecut=    50.00 Ry     beta= 0.30
     Davidson diagonalization with overlap
     ethr =  8.92E-10,  avg # of iterations =  3.1

     total cpu time spent up to now is       40.1 secs

     total energy              =    -361.62729365 Ry
     estimated scf accuracy    <       0.00000034 Ry

     iteration # 30     ecut=    50.00 Ry     beta= 0.30
     Davidson diagonalization with overlap
     ethr =  8.92E-10,  avg # of iterations =  4.0

     total cpu time spent up to now is       41.2 secs

     total energy              =    -361.62729369 Ry
     estimated scf accuracy    <       0.00000003 Ry

     iteration # 31     ecut=    50.00 Ry     beta= 0.30
     Davidson diagonalization with overlap
     ethr =  9.28E-11,  avg # of iterations =  7.3

     total cpu time spent up to now is       42.9 secs

     total energy              =    -361.62729372 Ry
     estimated scf accuracy    <       0.00000006 Ry

     iteration # 32     ecut=    50.00 Ry     beta= 0.30
     Davidson diagonalization with overlap
     ethr =  9.28E-11,  avg # of iterations =  5.4

     total cpu time spent up to now is       44.4 secs

     End of self-consistent calculation

          k = 0.0000 0.0000 0.0000 (  1959 PWs)   bands (ev):

   -10.9244 -10.1132   1.4793   1.4805   1.4805   1.6819   1.7109   1.7109
     2.5624   2.5624   2.8129   2.8129   3.0220   6.0593   6.0593   7.0188
     7.0188   7.0700

          k = 0.0000 0.0000 0.1110 (  1935 PWs)   bands (ev):

   -10.8721 -10.1693   1.4138   1.4748   1.4850   1.4850   1.6828   1.6828
     2.5889   2.5889   2.8081   2.8081   3.4218   6.1264   6.1264   6.5156
     6.9579   6.9579

          k = 0.0000 0.0000 0.2220 (  1923 PWs)   bands (ev):

   -10.7274 -10.3214   1.2310   1.2712   1.5048   1.5048   1.6172   1.6172
     2.6542   2.6542   2.7827   2.7827   4.1950   5.7726   6.3081   6.3081
     6.7888   6.7888

          k = 0.0000 0.0000-0.3330 (  1930 PWs)   bands (ev):

   -10.5264 -10.5264   1.1722   1.1722   1.5503   1.5503   1.5503   1.5503
     2.7277   2.7277   2.7277   2.7277   5.0068   5.0068   6.5517   6.5517
     6.5517   6.5517

          k = 0.0000 0.1925 0.0000 (  1930 PWs)   bands (ev):

   -10.7918 -10.0741   1.3306   1.5478   1.5692   1.6588   1.8239   1.9192
     2.5123   2.5657   2.8302   2.8664   3.0631   5.2396   5.7147   5.9388
     6.8600   6.8712

          k = 0.0000 0.1925 0.1110 (  1933 PWs)   bands (ev):

   -10.7444 -10.1224   1.2836   1.4794   1.5557   1.5817   1.7783   1.7926
     2.5526   2.5900   2.8199   2.8509   3.4915   5.3231   5.7687   5.7964
     6.7877   6.8326

          k = 0.0000 0.1925 0.2220 (  1942 PWs)   bands (ev):

   -10.6141 -10.2546   1.1699   1.2176   1.5666   1.5843   1.6749   1.7187
     2.6400   2.6517   2.7856   2.8098   4.2209   5.3001   5.7029   6.0155
     6.5819   6.5873

          k = 0.0000 0.1925-0.3330 (  1936 PWs)   bands (ev):

   -10.4349 -10.4349   1.1111   1.1111   1.6029   1.6029   1.6407   1.6407
     2.7252   2.7252   2.7357   2.7357   4.8481   4.8481   6.1312   6.1312
     6.3060   6.3060

          k = 0.0000 0.3849 0.0000 (  1932 PWs)   bands (ev):

   -10.4890 -10.0221   1.1962   1.5638   1.6502   1.7972   2.1059   2.1984
     2.5446   2.6462   2.8541   2.9217   3.2517   4.0017   4.8412   5.0093
     6.3053   6.5061

          k = 0.0000 0.3849 0.1110 (  1946 PWs)   bands (ev):

   -10.4556 -10.0507   1.1456   1.4351   1.6704   1.7634   2.0214   2.0613
     2.5671   2.6591   2.8364   2.9306   3.5006   4.1943   4.8025   5.1249
     6.3831   6.4147

          k = 0.0000 0.3849 0.2220 (  1940 PWs)   bands (ev):

   -10.3655 -10.1311   1.0434   1.1665   1.7315   1.7366   1.8540   1.9532
     2.6673   2.6944   2.7943   2.8736   3.7995   4.2626   5.2171   5.4234
     6.1612   6.3477

          k = 0.0000 0.3849-0.3330 (  1944 PWs)   bands (ev):

   -10.2459 -10.2459   1.0180   1.0180   1.7661   1.7661   1.8309   1.8309
     2.7430   2.7430   2.7797   2.7797   4.0496   4.0496   5.8026   5.8026
     5.9203   5.9203

          k = 0.0000-0.5774 0.0000 (  1948 PWs)   bands (ev):

   -10.2901 -10.0374   1.2410   1.5355   1.6810   1.9566   2.0587   2.2894
     2.6164   2.7429   2.8636   2.9120   3.4459   3.7197   4.2950   4.6133
     5.8616   6.3122

          k = 0.0000-0.5774 0.1110 (  1944 PWs)   bands (ev):

   -10.2695 -10.0503   1.1777   1.3814   1.7094   1.9234   2.0174   2.2324
     2.6921   2.7463   2.8399   2.9124   3.3913   3.6575   4.6505   4.7559
     6.0054   6.2121

          k = 0.0000-0.5774 0.2220 (  1952 PWs)   bands (ev):

   -10.2156 -10.0886   1.0485   1.1204   1.7933   1.8942   1.9447   2.0899
     2.7561   2.8006   2.8016   2.9040   3.3782   3.5425   5.1078   5.3453
     5.9337   6.1615

          k = 0.0000-0.5774-0.3330 (  1948 PWs)   bands (ev):

   -10.1482 -10.1482   0.9957   0.9957   1.8993   1.8993   1.9272   1.9272
     2.7734   2.7734   2.8717   2.8717   3.4407   3.4407   5.5369   5.5369
     5.9444   5.9444

          k = 0.1667 0.2887 0.0000 (  1941 PWs)   bands (ev):

   -10.5725 -10.0293   1.2871   1.4857   1.6657   1.7388   2.0314   2.1994
     2.4719   2.5952   2.8474   2.9001   3.2321   4.5255   4.6984   5.3080
     6.4632   6.4943

          k = 0.1667 0.2887 0.1110 (  1941 PWs)   bands (ev):

   -10.5347 -10.0637   1.2317   1.4179   1.6476   1.6991   1.9563   1.9905
     2.5232   2.6385   2.8333   2.9135   3.5774   4.7069   4.7186   5.2656
     6.3670   6.5454

          k = 0.1667 0.2887 0.2220 (  1940 PWs)   bands (ev):

   -10.4322 -10.1596   1.1147   1.1955   1.6381   1.6777   1.8017   1.8954
     2.6357   2.6858   2.7972   2.8608   4.0462   4.6127   5.2719   5.3980
     6.1060   6.4497

          k = 0.1667 0.2887-0.3330 (  1950 PWs)   bands (ev):

   -10.2943 -10.2943   1.0687   1.0687   1.6627   1.6627   1.8036   1.8036
     2.7280   2.7280   2.7747   2.7747   4.3678   4.3678   5.7220   5.7220
     5.9983   5.9983

          k = 0.1667 0.4811 0.0000 (  1955 PWs)   bands (ev):

   -10.2974 -10.0326   1.3371   1.5723   1.7470   1.8569   2.2068   2.3277
     2.5874   2.6188   2.8684   3.0109   3.2533   3.8292   4.2111   4.5625
     5.8375   6.0364

          k = 0.1667 0.4811 0.1110 (  1953 PWs)   bands (ev):

   -10.2761 -10.0464   1.2817   1.4877   1.6772   1.8465   2.1043   2.2311
     2.5849   2.7042   2.8591   3.0225   3.3055   3.9021   4.2651   4.8331
     5.8615   6.0412

          k = 0.1667 0.4811 0.2220 (  1946 PWs)   bands (ev):

   -10.2202 -10.0871   1.1534   1.2406   1.6940   1.8198   1.9908   2.0687
     2.6618   2.7277   2.8717   2.9833   3.4613   3.8058   4.6153   5.4128
     5.5997   6.1960

          k = 0.1667 0.4811-0.3330 (  1946 PWs)   bands (ev):

   -10.1498 -10.1498   1.1044   1.1044   1.7721   1.7721   1.9662   1.9662
     2.7125   2.7125   2.9214   2.9214   3.6384   3.6384   5.0847   5.0847
     6.0260   6.0260

          k = 0.3333 0.5774 0.0000 (  1989 PWs)   bands (ev):

   -10.1200 -10.1200   1.4297   1.7018   1.7018   2.3498   2.3579   2.3579
     2.5237   2.6745   2.7415   2.7415   3.1752   3.6392   3.6392   5.2054
     5.2054   5.5636

          k = 0.3333 0.5774 0.1110 (  1950 PWs)   bands (ev):

   -10.1155 -10.1155   1.4583   1.5907   1.5907   2.1780   2.2352   2.2352
     2.5440   2.6661   2.8811   2.8811   3.4208   3.5934   3.5934   5.4157
     5.4380   5.4380

          k = 0.3333 0.5774 0.2220 (  1962 PWs)   bands (ev):

   -10.1066 -10.1066   1.3685   1.3685   1.5454   1.9142   2.1337   2.1337
     2.5731   2.6418   3.0341   3.0341   3.5246   3.5246   3.9190   5.0201
     5.8691   5.8691

          k = 0.3333 0.5774-0.3330 (  1950 PWs)   bands (ev):

   -10.1022 -10.1022   1.2642   1.2642   1.6971   1.6971   2.1058   2.1058
     2.6081   2.6081   3.0901   3.0901   3.4964   3.4964   4.4851   4.4851
     6.0751   6.0751

     highest occupied level (ev):     7.0700

!    total energy              =    -361.62729373 Ry
     estimated scf accuracy    <          8.3E-09 Ry

     The total energy is the sum of the following terms:
     one-electron contribution =    -153.79930218 Ry
     hartree contribution      =     118.15112042 Ry
     xc contribution           =    -109.58226194 Ry
     ewald contribution        =    -216.39685003 Ry

     convergence has been achieved in  32 iterations

     Forces acting on atoms (cartesian axes, Ry/au):

     atom    1 type  1   force =     0.00000000    0.00000000   -0.03139741
     atom    2 type  1   force =     0.00000000   -0.00000000   -0.03139741
     atom    3 type  2   force =    -0.00000000    0.00000000    0.03139741
     atom    4 type  2   force =     0.00000000    0.00000000    0.03139741
     The non-local contrib.  to forces
     atom    1 type  1   force =     0.00000000    0.00000000   -0.21723000
     atom    2 type  1   force =     0.00000000    0.00000000   -0.21723000
     atom    3 type  2   force =     0.00000000   -0.00000000   -0.16252834
     atom    4 type  2   force =    -0.00000000    0.00000000   -0.16252834
     The ionic contribution  to forces
     atom    1 type  1   force =    -0.00000000    0.00000000   -1.44383714
     atom    2 type  1   force =     0.00000000   -0.00000000   -1.44383714
     atom    3 type  2   force =    -0.00000000    0.00000000    1.44383714
     atom    4 type  2   force =     0.00000000   -0.00000000    1.44383714
     The local contribution  to forces
     atom    1 type  1   force =    -0.00000002    0.00000001    1.61310963
     atom    2 type  1   force =     0.00000007   -0.00000004    1.61310964
     atom    3 type  2   force =    -0.00000001    0.00000000   -1.25108016
     atom    4 type  2   force =     0.00000002   -0.00000001   -1.25108017
     The core correction contribution to forces
     atom    1 type  1   force =    -0.00000000    0.00000000    0.01653608
     atom    2 type  1   force =     0.00000001   -0.00000000    0.01653608
     atom    3 type  2   force =     0.00000000   -0.00000000    0.00119190
     atom    4 type  2   force =    -0.00000000    0.00000000    0.00119190
     The Hubbard contrib.    to forces
     atom    1 type  1   force =     0.00000000    0.00000000    0.00000000
     atom    2 type  1   force =     0.00000000    0.00000000    0.00000000
     atom    3 type  2   force =     0.00000000    0.00000000    0.00000000
     atom    4 type  2   force =     0.00000000    0.00000000    0.00000000
     The SCF correction term to forces
     atom    1 type  1   force =    -0.00000000    0.00000000    0.00003483
     atom    2 type  1   force =     0.00000000   -0.00000000    0.00003483
     atom    3 type  2   force =    -0.00000000    0.00000000   -0.00001231
     atom    4 type  2   force =     0.00000000   -0.00000000   -0.00001231

     Total force =     0.062795     Total SCF correction =     0.000052


     Computing stress (Cartesian axis) and pressure

          total   stress  (Ry/bohr**3)                   (kbar)     P=       27.86
  -0.00020227   0.00000000  -0.00000000          -29.75        0.00       -0.00
   0.00000000  -0.00020227  -0.00000000            0.00      -29.75       -0.00
   0.00000000   0.00000000   0.00097263            0.00        0.00      143.08


     Writing all to output data dir ./ZnO_ANN.save/

     init_run     :      1.79s CPU      1.19s WALL (       1 calls)
     electrons    :    113.48s CPU     42.88s WALL (       1 calls)
     forces       :      0.65s CPU      0.31s WALL (       1 calls)
     stress       :      2.24s CPU      1.14s WALL (       1 calls)

     Called by init_run:
     wfcinit      :      1.00s CPU      0.39s WALL (       1 calls)
     potinit      :      0.26s CPU      0.27s WALL (       1 calls)
     hinit0       :      0.41s CPU      0.42s WALL (       1 calls)

     Called by electrons:
     c_bands      :     93.92s CPU     35.05s WALL (      32 calls)
     sum_band     :     14.43s CPU      5.72s WALL (      32 calls)
     v_of_rho     :      1.24s CPU      0.55s WALL (      33 calls)
     newd         :      3.60s CPU      1.47s WALL (      33 calls)
     mix_rho      :      0.21s CPU      0.09s WALL (      32 calls)

     Called by c_bands:
     init_us_2    :      1.27s CPU      0.46s WALL (    1876 calls)
     init_us_2:cp :      1.25s CPU      0.45s WALL (    1876 calls)
     cegterg      :     91.10s CPU     33.94s WALL (     896 calls)

     Called by *egterg:
     cdiaghg      :     14.42s CPU      4.80s WALL (    4967 calls)
     h_psi        :     62.76s CPU     25.64s WALL (    4995 calls)
     s_psi        :      1.39s CPU      0.41s WALL (    4995 calls)
     g_psi        :      0.47s CPU      0.12s WALL (    4071 calls)

     Called by h_psi:
     h_psi:calbec :      2.12s CPU      0.76s WALL (    4995 calls)
     vloc_psi     :     58.75s CPU     24.27s WALL (    4995 calls)
     add_vuspsi   :      1.37s CPU      0.44s WALL (    4995 calls)

     General routines
     calbec       :      2.74s CPU      0.97s WALL (    6031 calls)
     fft          :      0.86s CPU      0.45s WALL (     452 calls)
     ffts         :      0.17s CPU      0.15s WALL (      65 calls)
     fftw         :     58.15s CPU     24.08s WALL (  134948 calls)
     interpolate  :      0.21s CPU      0.16s WALL (      33 calls)

     Parallel routines

     PWSCF        :   1m58.70s CPU     45.99s WALL


   This run was terminated on:  17:39:47  13Jun2025            

=------------------------------------------------------------------------------=
   JOB DONE.
=------------------------------------------------------------------------------=
Note: The following floating-point exceptions are signalling: IEEE_INVALID_FLAG
