Authorization required, but no authorization protocol specified

Authorization required, but no authorization protocol specified

Authorization required, but no authorization protocol specified

Authorization required, but no authorization protocol specified

Authorization required, but no authorization protocol specified

Authorization required, but no authorization protocol specified

Authorization required, but no authorization protocol specified

Authorization required, but no authorization protocol specified

Authorization required, but no authorization protocol specified

Authorization required, but no authorization protocol specified


     Program PWSCF v.7.2 starts on 13Jun2025 at 16:55:34 

     This program is part of the open-source Quantum ESPRESSO suite
     for quantum simulation of materials; please cite
         "P. Giannozzi et al., J. Phys.:Condens. Matter 21 395502 (2009);
         "P. Giannozzi et al., J. Phys.:Condens. Matter 29 465901 (2017);
         "P. Giannozzi et al., J. Chem. Phys. 152 154105 (2020);
          URL http://www.quantum-espresso.org", 
     in publications or presentations arising from this work. More details at
     http://www.quantum-espresso.org/quote

     Parallel version (MPI), running on     8 processors

     MPI processes distributed on     1 nodes
     120714 MiB available memory on the printing compute node when the environment starts

     Reading input from /home/jvc/QEspresso7.2/ZnO_database_python/SCFs.in/scf-6.12-1.55.in

     Current dimensions of program PWSCF are:
     Max number of different atomic species (ntypx) = 10
     Max number of k-points (npk) =  40000
     Max angular momentum in pseudopotentials (lmaxx) =  4
     file Zn.upf: wavefunction(s)  3D renormalized

     R & G space division:  proc/nbgrp/npool/nimage =       8
     Subspace diagonalization in iterative solution of the eigenvalue problem:
     a serial algorithm will be used


     Parallelization info
     --------------------
     sticks:   dense  smooth     PW     G-vecs:    dense   smooth      PW
     Min         129      63     20                 5203     1827     310
     Max         130      64     21                 5208     1832     313
     Sum        1039     511    163                41647    14641    2489

     Using Slab Decomposition



     bravais-lattice index     =            4
     lattice parameter (alat)  =       6.1170  a.u.
     unit-cell volume          =     307.2022 (a.u.)^3
     number of atoms/cell      =            4
     number of atomic types    =            2
     number of electrons       =        36.00
     number of Kohn-Sham states=           18
     kinetic-energy cutoff     =      50.0000  Ry
     charge density cutoff     =     400.0000  Ry
     scf convergence threshold =      1.0E-08
     mixing beta               =       0.3000
     number of iterations used =            8  plain     mixing
     Exchange-correlation= PBE
                           (   1   4   3   4   0   0   0)

     celldm(1)=   6.117033  celldm(2)=   0.000000  celldm(3)=   1.549784
     celldm(4)=   0.000000  celldm(5)=   0.000000  celldm(6)=   0.000000

     crystal axes: (cart. coord. in units of alat)
               a(1) = (   1.000000   0.000000   0.000000 )  
               a(2) = (  -0.500000   0.866025   0.000000 )  
               a(3) = (   0.000000   0.000000   1.549784 )  

     reciprocal axes: (cart. coord. in units 2 pi/alat)
               b(1) = (  1.000000  0.577350 -0.000000 )  
               b(2) = (  0.000000  1.154701  0.000000 )  
               b(3) = (  0.000000 -0.000000  0.645251 )  


     PseudoPot. # 1 for Zn read from file:
     /home/jvc/QEspresso7.2/ZnO_database/pseudos/Zn.upf
     MD5 check sum: 7f56cabf9682ed8c977c2f7d0c5985c5
     Pseudo is Ultrasoft + core correction, Zval = 12.0
     Generated using &quot;atomic&quot; code by A. Dal Corso  v.6.2.2
     Using radial grid of 1201 points,  6 beta functions with: 
                l(1) =   0
                l(2) =   0
                l(3) =   1
                l(4) =   1
                l(5) =   2
                l(6) =   2
     Q(r) pseudized with 0 coefficients 


     PseudoPot. # 2 for O  read from file:
     /home/jvc/QEspresso7.2/ZnO_database/pseudos/O.upf
     MD5 check sum: 91400c9766925bcf19f520983a725ff0
     Pseudo is Ultrasoft + core correction, Zval =  6.0
     Generated using &quot;atomic&quot; code by A. Dal Corso  v.6.3MaX
     Using radial grid of 1095 points,  4 beta functions with: 
                l(1) =   0
                l(2) =   0
                l(3) =   1
                l(4) =   1
     Q(r) pseudized with 0 coefficients 


     atomic species   valence    mass     pseudopotential
        Zn            12.00    63.38000     Zn( 1.00)
        O              6.00    15.99900     O ( 1.00)

     12 Sym. Ops. (no inversion) found ( 6 have fractional translation)



   Cartesian axes

     site n.     atom                  positions (alat units)
         1           Zn  tau(   1) = (   0.5000000   0.2886751   0.7758739  )
         2           Zn  tau(   2) = (  -0.0000000   0.5773503   0.0009819  )
         3           O   tau(   3) = (   0.5000000   0.2886751   1.3633085  )
         4           O   tau(   4) = (  -0.0000000   0.5773503   0.5884164  )

     number of k points=    28
                       cart. coord. in units 2pi/alat
        k(    1) = (   0.0000000   0.0000000   0.0000000), wk =   0.0092593
        k(    2) = (   0.0000000   0.0000000   0.1075419), wk =   0.0185185
        k(    3) = (   0.0000000   0.0000000   0.2150837), wk =   0.0185185
        k(    4) = (   0.0000000   0.0000000  -0.3226256), wk =   0.0092593
        k(    5) = (   0.0000000   0.1924501   0.0000000), wk =   0.0555556
        k(    6) = (   0.0000000   0.1924501   0.1075419), wk =   0.1111111
        k(    7) = (   0.0000000   0.1924501   0.2150837), wk =   0.1111111
        k(    8) = (   0.0000000   0.1924501  -0.3226256), wk =   0.0555556
        k(    9) = (   0.0000000   0.3849002   0.0000000), wk =   0.0555556
        k(   10) = (   0.0000000   0.3849002   0.1075419), wk =   0.1111111
        k(   11) = (   0.0000000   0.3849002   0.2150837), wk =   0.1111111
        k(   12) = (   0.0000000   0.3849002  -0.3226256), wk =   0.0555556
        k(   13) = (   0.0000000  -0.5773503   0.0000000), wk =   0.0277778
        k(   14) = (   0.0000000  -0.5773503   0.1075419), wk =   0.0555556
        k(   15) = (   0.0000000  -0.5773503   0.2150837), wk =   0.0555556
        k(   16) = (   0.0000000  -0.5773503  -0.3226256), wk =   0.0277778
        k(   17) = (   0.1666667   0.2886751   0.0000000), wk =   0.0555556
        k(   18) = (   0.1666667   0.2886751   0.1075419), wk =   0.1111111
        k(   19) = (   0.1666667   0.2886751   0.2150837), wk =   0.1111111
        k(   20) = (   0.1666667   0.2886751  -0.3226256), wk =   0.0555556
        k(   21) = (   0.1666667   0.4811252   0.0000000), wk =   0.1111111
        k(   22) = (   0.1666667   0.4811252   0.1075419), wk =   0.2222222
        k(   23) = (   0.1666667   0.4811252   0.2150837), wk =   0.2222222
        k(   24) = (   0.1666667   0.4811252  -0.3226256), wk =   0.1111111
        k(   25) = (   0.3333333   0.5773503   0.0000000), wk =   0.0185185
        k(   26) = (   0.3333333   0.5773503   0.1075419), wk =   0.0370370
        k(   27) = (   0.3333333   0.5773503   0.2150837), wk =   0.0370370
        k(   28) = (   0.3333333   0.5773503  -0.3226256), wk =   0.0185185

     Dense  grid:    41647 G-vectors     FFT dimensions: (  40,  40,  64)

     Smooth grid:    14641 G-vectors     FFT dimensions: (  27,  27,  48)

     Estimated max dynamical RAM per process >      24.37 MB

     Estimated total dynamical RAM >     194.94 MB

     Check: negative core charge=   -0.000002

     Initial potential from superposition of free atoms

     starting charge      35.9925, renormalised to      36.0000
     Starting wfcs are   26 randomized atomic wfcs

     total cpu time spent up to now is        1.7 secs

     Self-consistent Calculation

     iteration #  1     ecut=    50.00 Ry     beta= 0.30
     Davidson diagonalization with overlap
     ethr =  1.00E-02,  avg # of iterations =  2.0

     total cpu time spent up to now is        2.5 secs

     total energy              =    -361.47373304 Ry
     estimated scf accuracy    <       0.68191830 Ry

     iteration #  2     ecut=    50.00 Ry     beta= 0.30
     Davidson diagonalization with overlap
     ethr =  1.89E-03,  avg # of iterations =  2.0

     total cpu time spent up to now is        3.5 secs

     total energy              =    -361.55609294 Ry
     estimated scf accuracy    <       0.10059276 Ry

     iteration #  3     ecut=    50.00 Ry     beta= 0.30
     Davidson diagonalization with overlap
     ethr =  2.79E-04,  avg # of iterations =  6.0

     total cpu time spent up to now is        5.0 secs

     total energy              =    -361.59259575 Ry
     estimated scf accuracy    <       0.06660970 Ry

     iteration #  4     ecut=    50.00 Ry     beta= 0.30
     Davidson diagonalization with overlap
     ethr =  1.85E-04,  avg # of iterations =  7.4

     total cpu time spent up to now is        6.8 secs

     total energy              =    -361.64728647 Ry
     estimated scf accuracy    <       0.19919278 Ry

     iteration #  5     ecut=    50.00 Ry     beta= 0.30
     Davidson diagonalization with overlap
     ethr =  1.85E-04,  avg # of iterations =  1.0

     total cpu time spent up to now is        7.6 secs

     total energy              =    -361.56036928 Ry
     estimated scf accuracy    <       0.13314500 Ry

     iteration #  6     ecut=    50.00 Ry     beta= 0.30
     Davidson diagonalization with overlap
     ethr =  1.85E-04,  avg # of iterations =  7.4

     total cpu time spent up to now is        9.4 secs

     total energy              =    -361.62347593 Ry
     estimated scf accuracy    <       0.08713165 Ry

     iteration #  7     ecut=    50.00 Ry     beta= 0.30
     Davidson diagonalization with overlap
     ethr =  1.85E-04,  avg # of iterations =  1.1

     total cpu time spent up to now is       10.1 secs

     total energy              =    -361.62461133 Ry
     estimated scf accuracy    <       0.04074944 Ry

     iteration #  8     ecut=    50.00 Ry     beta= 0.30
     Davidson diagonalization with overlap
     ethr =  1.13E-04,  avg # of iterations =  1.5

     total cpu time spent up to now is       10.9 secs

     total energy              =    -361.62787805 Ry
     estimated scf accuracy    <       0.03265652 Ry

     iteration #  9     ecut=    50.00 Ry     beta= 0.30
     Davidson diagonalization with overlap
     ethr =  9.07E-05,  avg # of iterations =  1.0

     total cpu time spent up to now is       11.7 secs

     total energy              =    -361.62532066 Ry
     estimated scf accuracy    <       0.03031769 Ry

     iteration # 10     ecut=    50.00 Ry     beta= 0.30
     Davidson diagonalization with overlap
     ethr =  8.42E-05,  avg # of iterations =  1.3

     total cpu time spent up to now is       12.4 secs

     total energy              =    -361.62257997 Ry
     estimated scf accuracy    <       0.01792386 Ry

     iteration # 11     ecut=    50.00 Ry     beta= 0.30
     Davidson diagonalization with overlap
     ethr =  4.98E-05,  avg # of iterations =  1.8

     total cpu time spent up to now is       13.3 secs

     total energy              =    -361.62316148 Ry
     estimated scf accuracy    <       0.00812083 Ry

     iteration # 12     ecut=    50.00 Ry     beta= 0.30
     Davidson diagonalization with overlap
     ethr =  2.26E-05,  avg # of iterations =  2.2

     total cpu time spent up to now is       14.1 secs

     total energy              =    -361.63059423 Ry
     estimated scf accuracy    <       0.00586751 Ry

     iteration # 13     ecut=    50.00 Ry     beta= 0.30
     Davidson diagonalization with overlap
     ethr =  1.63E-05,  avg # of iterations =  4.5

     total cpu time spent up to now is       15.2 secs

     total energy              =    -361.62406772 Ry
     estimated scf accuracy    <       0.02758509 Ry

     iteration # 14     ecut=    50.00 Ry     beta= 0.30
     Davidson diagonalization with overlap
     ethr =  1.63E-05,  avg # of iterations =  2.0

     total cpu time spent up to now is       16.1 secs

     total energy              =    -361.62091863 Ry
     estimated scf accuracy    <       0.01380951 Ry

     iteration # 15     ecut=    50.00 Ry     beta= 0.30
     Davidson diagonalization with overlap
     ethr =  1.63E-05,  avg # of iterations =  4.7

     total cpu time spent up to now is       17.3 secs

     total energy              =    -361.62307171 Ry
     estimated scf accuracy    <       0.00078122 Ry

     iteration # 16     ecut=    50.00 Ry     beta= 0.30
     Davidson diagonalization with overlap
     ethr =  2.17E-06,  avg # of iterations =  6.0

     total cpu time spent up to now is       18.8 secs

     total energy              =    -361.62495849 Ry
     estimated scf accuracy    <       0.00018108 Ry

     iteration # 17     ecut=    50.00 Ry     beta= 0.30
     Davidson diagonalization with overlap
     ethr =  5.03E-07,  avg # of iterations = 10.8

     total cpu time spent up to now is       21.3 secs

     total energy              =    -361.62642215 Ry
     estimated scf accuracy    <       0.01123506 Ry

     iteration # 18     ecut=    50.00 Ry     beta= 0.30
     Davidson diagonalization with overlap
     ethr =  5.03E-07,  avg # of iterations =  1.1

     total cpu time spent up to now is       22.0 secs

     total energy              =    -361.62322711 Ry
     estimated scf accuracy    <       0.01077805 Ry

     iteration # 19     ecut=    50.00 Ry     beta= 0.30
     Davidson diagonalization with overlap
     ethr =  5.03E-07,  avg # of iterations =  9.2

     total cpu time spent up to now is       24.2 secs

     total energy              =    -361.62302774 Ry
     estimated scf accuracy    <       0.00149559 Ry

     iteration # 20     ecut=    50.00 Ry     beta= 0.30
     Davidson diagonalization with overlap
     ethr =  5.03E-07,  avg # of iterations =  9.6

     total cpu time spent up to now is       26.4 secs

     total energy              =    -361.62349286 Ry
     estimated scf accuracy    <       0.00083514 Ry

     iteration # 21     ecut=    50.00 Ry     beta= 0.30
     Davidson diagonalization with overlap
     ethr =  5.03E-07,  avg # of iterations =  6.3

     total cpu time spent up to now is       28.0 secs

     total energy              =    -361.62366390 Ry
     estimated scf accuracy    <       0.00000088 Ry

     iteration # 22     ecut=    50.00 Ry     beta= 0.30
     Davidson diagonalization with overlap
     ethr =  2.44E-09,  avg # of iterations = 11.1

     total cpu time spent up to now is       30.7 secs

     total energy              =    -361.62365700 Ry
     estimated scf accuracy    <       0.00011083 Ry

     iteration # 23     ecut=    50.00 Ry     beta= 0.30
     Davidson diagonalization with overlap
     ethr =  2.44E-09,  avg # of iterations =  9.9

     total cpu time spent up to now is       33.0 secs

     total energy              =    -361.62364726 Ry
     estimated scf accuracy    <       0.00003174 Ry

     iteration # 24     ecut=    50.00 Ry     beta= 0.30
     Davidson diagonalization with overlap
     ethr =  2.44E-09,  avg # of iterations = 10.5

     total cpu time spent up to now is       35.4 secs

     End of self-consistent calculation

          k = 0.0000 0.0000 0.0000 (  1797 PWs)   bands (ev):

   -10.5034  -9.6436   2.0502   2.0673   2.0673   2.0949   2.3001   2.3001
     3.3544   3.3544   3.6181   3.6181   3.8726   6.9800   6.9800   7.9191
     7.9310   7.9310

          k = 0.0000 0.0000 0.1075 (  1809 PWs)   bands (ev):

   -10.4486  -9.7040   1.9171   2.0253   2.0734   2.0734   2.2737   2.2737
     3.3801   3.3801   3.6101   3.6101   4.2167   7.0454   7.0454   7.3778
     7.8695   7.8695

          k = 0.0000 0.0000 0.2151 (  1816 PWs)   bands (ev):

   -10.2970  -9.8670   1.7526   1.8690   2.0968   2.0968   2.2110   2.2110
     3.4454   3.4454   3.5794   3.5794   4.9621   6.6054   7.2233   7.2233
     7.6997   7.6997

          k = 0.0000 0.0000-0.3226 (  1822 PWs)   bands (ev):

   -10.0849 -10.0849   1.7423   1.7423   2.1444   2.1444   2.1444   2.1444
     3.5210   3.5210   3.5210   3.5210   5.7977   5.7977   7.4636   7.4636
     7.4636   7.4636

          k = 0.0000 0.1925 0.0000 (  1842 PWs)   bands (ev):

   -10.3494  -9.5883   1.8861   2.1471   2.1725   2.2011   2.3817   2.4261
     3.2905   3.3547   3.6337   3.6793   3.8869   6.0919   6.6089   6.8378
     7.7104   7.7433

          k = 0.0000 0.1925 0.1075 (  1829 PWs)   bands (ev):

   -10.2998  -9.6404   1.8382   1.9954   2.1569   2.1844   2.3442   2.3966
     3.3313   3.3793   3.6218   3.6580   4.2689   6.1696   6.6677   6.6888
     7.6509   7.6708

          k = 0.0000 0.1925 0.2151 (  1817 PWs)   bands (ev):

   -10.1632  -9.7821   1.7169   1.7607   2.1781   2.1893   2.2767   2.3257
     3.4232   3.4419   3.5828   3.6086   5.0065   6.1812   6.5273   6.9039
     7.3701   7.4703

          k = 0.0000 0.1925-0.3226 (  1826 PWs)   bands (ev):

    -9.9739  -9.9739   1.6630   1.6630   2.2125   2.2125   2.2480   2.2480
     3.5177   3.5177   3.5258   3.5258   5.6936   5.6936   6.9156   6.9156
     7.1906   7.1906

          k = 0.0000 0.3849 0.0000 (  1858 PWs)   bands (ev):

    -9.9989  -9.5040   1.7022   2.0959   2.2741   2.4278   2.7418   2.8053
     3.2745   3.4426   3.6581   3.6952   4.0657   4.7239   5.6589   5.8428
     7.1157   7.3278

          k = 0.0000 0.3849 0.1075 (  1839 PWs)   bands (ev):

    -9.9641  -9.5349   1.6537   1.9546   2.2961   2.3985   2.6534   2.6979
     3.3224   3.4559   3.6405   3.7354   4.2935   4.9010   5.6058   5.9563
     7.1681   7.2363

          k = 0.0000 0.3849 0.2151 (  1824 PWs)   bands (ev):

    -9.8698  -9.6214   1.5578   1.6859   2.3615   2.3776   2.4997   2.5897
     3.4402   3.4925   3.5966   3.6775   4.6134   5.0611   5.9096   6.2503
     6.9830   7.0841

          k = 0.0000 0.3849-0.3226 (  1838 PWs)   bands (ev):

    -9.7436  -9.7436   1.5382   1.5382   2.4109   2.4109   2.4650   2.4650
     3.5428   3.5428   3.5690   3.5690   4.8693   4.8693   6.6145   6.6145
     6.6261   6.6261

          k = 0.0000-0.5774 0.0000 (  1846 PWs)   bands (ev):

    -9.7712  -9.5056   1.7709   1.9728   2.3146   2.6070   2.7385   2.9494
     3.3977   3.5530   3.6711   3.7376   4.2483   4.3484   5.0126   5.4063
     6.6440   7.0985

          k = 0.0000-0.5774 0.1075 (  1846 PWs)   bands (ev):

    -9.7500  -9.5195   1.7038   1.8418   2.3448   2.5720   2.6954   2.8898
     3.4770   3.5564   3.6495   3.7376   4.1888   4.3132   5.3529   5.5470
     6.7621   6.9981

          k = 0.0000-0.5774 0.2151 (  1838 PWs)   bands (ev):

    -9.6943  -9.5608   1.5681   1.6128   2.4339   2.5457   2.6167   2.7429
     3.5667   3.5999   3.6127   3.7265   4.1533   4.2438   5.8959   6.0341
     6.7194   6.8786

          k = 0.0000-0.5774-0.3226 (  1828 PWs)   bands (ev):

    -9.6239  -9.6239   1.5063   1.5063   2.5612   2.5612   2.5744   2.5744
     3.5849   3.5849   3.6852   3.6852   4.1814   4.1814   6.3232   6.3232
     6.6383   6.6383

          k = 0.1667 0.2887 0.0000 (  1829 PWs)   bands (ev):

   -10.0954  -9.5191   1.8182   2.0459   2.2821   2.3414   2.6614   2.7139
     3.2381   3.3797   3.6512   3.7036   4.0428   5.2805   5.5525   6.1408
     7.2873   7.3210

          k = 0.1667 0.2887 0.1075 (  1832 PWs)   bands (ev):

   -10.0559  -9.5564   1.7645   1.9538   2.2663   2.3031   2.5514   2.6225
     3.2921   3.4256   3.6353   3.7242   4.3602   5.4332   5.5774   6.0994
     7.1908   7.3436

          k = 0.1667 0.2887 0.2151 (  1830 PWs)   bands (ev):

    -9.9484  -9.6594   1.6513   1.7232   2.2571   2.2861   2.4387   2.5312
     3.4141   3.4781   3.5956   3.6652   4.8739   5.4780   5.9480   6.2231
     6.9305   7.1941

          k = 0.1667 0.2887-0.3226 (  1832 PWs)   bands (ev):

    -9.8028  -9.8028   1.6042   1.6042   2.2763   2.2763   2.4445   2.4445
     3.5234   3.5234   3.5662   3.5662   5.2243   5.2243   6.5130   6.5130
     6.7226   6.7226

          k = 0.1667 0.4811 0.0000 (  1841 PWs)   bands (ev):

    -9.7802  -9.5002   1.8772   2.1317   2.3150   2.4967   2.8594   2.9793
     3.3475   3.3963   3.6789   3.8220   4.0072   4.6091   4.9262   5.2985
     6.6039   6.8098

          k = 0.1667 0.4811 0.1075 (  1834 PWs)   bands (ev):

    -9.7582  -9.5152   1.8194   2.0190   2.2878   2.4764   2.7659   2.8783
     3.3543   3.4991   3.6707   3.8639   4.0378   4.6781   5.0012   5.5320
     6.6020   6.8154

          k = 0.1667 0.4811 0.2151 (  1837 PWs)   bands (ev):

    -9.7000  -9.5593   1.6917   1.7748   2.3118   2.4424   2.6595   2.7253
     3.4468   3.5312   3.6819   3.8157   4.2135   4.5811   5.3669   6.0798
     6.3512   6.9167

          k = 0.1667 0.4811-0.3226 (  1838 PWs)   bands (ev):

    -9.6261  -9.6261   1.6436   1.6436   2.3870   2.3870   2.6360   2.6360
     3.5124   3.5124   3.7372   3.7372   4.4077   4.4077   5.8301   5.8301
     6.7146   6.7146

          k = 0.3333 0.5774 0.0000 (  1815 PWs)   bands (ev):

    -9.5848  -9.5848   1.9985   2.3373   2.3373   2.8108   3.0502   3.0502
     3.2830   3.4553   3.4612   3.4612   3.9887   4.4149   4.4149   5.9610
     5.9610   6.2329

          k = 0.3333 0.5774 0.1075 (  1839 PWs)   bands (ev):

    -9.5806  -9.5806   2.0265   2.2108   2.2108   2.6851   2.9266   2.9266
     3.3051   3.4457   3.6415   3.6415   4.1833   4.3678   4.3678   6.0857
     6.1677   6.1677

          k = 0.3333 0.5774 0.2151 (  1836 PWs)   bands (ev):

    -9.5722  -9.5722   1.9729   1.9729   2.1123   2.4590   2.8331   2.8331
     3.3422   3.4195   3.8569   3.8569   4.2792   4.2792   4.6320   5.6948
     6.5632   6.5632

          k = 0.3333 0.5774-0.3226 (  1848 PWs)   bands (ev):

    -9.5679  -9.5679   1.8646   1.8646   2.2576   2.2576   2.8079   2.8079
     3.3822   3.3822   3.9506   3.9506   4.2265   4.2265   5.1723   5.1723
     6.7560   6.7560

     highest occupied level (ev):     7.9310

!    total energy              =    -361.62365328 Ry
     estimated scf accuracy    <          8.4E-09 Ry

     The total energy is the sum of the following terms:
     one-electron contribution =    -146.61263278 Ry
     hartree contribution      =     115.55342105 Ry
     xc contribution           =    -109.70087087 Ry
     ewald contribution        =    -220.86357068 Ry

     convergence has been achieved in  24 iterations

     Forces acting on atoms (cartesian axes, Ry/au):

     atom    1 type  1   force =     0.00000000    0.00000000   -0.02096255
     atom    2 type  1   force =     0.00000000    0.00000000   -0.02096255
     atom    3 type  2   force =     0.00000000    0.00000000    0.02096255
     atom    4 type  2   force =    -0.00000000   -0.00000000    0.02096255
     The non-local contrib.  to forces
     atom    1 type  1   force =     0.00000000   -0.00000000   -0.12709263
     atom    2 type  1   force =    -0.00000000    0.00000000   -0.12709263
     atom    3 type  2   force =     0.00000000    0.00000000   -0.08893747
     atom    4 type  2   force =     0.00000000    0.00000000   -0.08893747
     The ionic contribution  to forces
     atom    1 type  1   force =    -0.00000000    0.00000000   -0.81551710
     atom    2 type  1   force =     0.00000000   -0.00000000   -0.81551710
     atom    3 type  2   force =    -0.00000000    0.00000000    0.81551710
     atom    4 type  2   force =     0.00000000   -0.00000000    0.81551710
     The local contribution  to forces
     atom    1 type  1   force =    -0.00000002    0.00000001    0.91145921
     atom    2 type  1   force =     0.00000006   -0.00000004    0.91145922
     atom    3 type  2   force =    -0.00000001    0.00000000   -0.70619411
     atom    4 type  2   force =     0.00000002   -0.00000001   -0.70619412
     The core correction contribution to forces
     atom    1 type  1   force =    -0.00000000    0.00000000    0.01017861
     atom    2 type  1   force =     0.00000001   -0.00000000    0.01017861
     atom    3 type  2   force =     0.00000000   -0.00000000    0.00061974
     atom    4 type  2   force =    -0.00000000    0.00000000    0.00061974
     The Hubbard contrib.    to forces
     atom    1 type  1   force =     0.00000000    0.00000000    0.00000000
     atom    2 type  1   force =     0.00000000    0.00000000    0.00000000
     atom    3 type  2   force =     0.00000000    0.00000000    0.00000000
     atom    4 type  2   force =     0.00000000    0.00000000    0.00000000
     The SCF correction term to forces
     atom    1 type  1   force =     0.00000000   -0.00000000    0.00000697
     atom    2 type  1   force =    -0.00000000    0.00000000    0.00000697
     atom    3 type  2   force =     0.00000000   -0.00000000   -0.00004510
     atom    4 type  2   force =    -0.00000000    0.00000000   -0.00004510

     Total force =     0.041925     Total SCF correction =     0.000065


     Computing stress (Cartesian axis) and pressure

          total   stress  (Ry/bohr**3)                   (kbar)     P=      113.52
   0.00051093   0.00000000   0.00000000           75.16        0.00        0.00
   0.00000000   0.00051093   0.00000000            0.00       75.16        0.00
   0.00000000   0.00000000   0.00129332            0.00        0.00      190.25


     Writing all to output data dir ./ZnO_ANN.save/

     init_run     :      1.92s CPU      1.34s WALL (       1 calls)
     electrons    :     90.66s CPU     33.73s WALL (       1 calls)
     forces       :      0.67s CPU      0.30s WALL (       1 calls)
     stress       :      2.17s CPU      1.06s WALL (       1 calls)

     Called by init_run:
     wfcinit      :      0.97s CPU      0.38s WALL (       1 calls)
     potinit      :      0.34s CPU      0.35s WALL (       1 calls)
     hinit0       :      0.50s CPU      0.51s WALL (       1 calls)

     Called by electrons:
     c_bands      :     76.72s CPU     28.17s WALL (      24 calls)
     sum_band     :     10.34s CPU      4.09s WALL (      24 calls)
     v_of_rho     :      0.78s CPU      0.35s WALL (      25 calls)
     newd         :      2.64s CPU      1.07s WALL (      25 calls)
     mix_rho      :      0.13s CPU      0.06s WALL (      24 calls)

     Called by c_bands:
     init_us_2    :      0.93s CPU      0.33s WALL (    1428 calls)
     init_us_2:cp :      0.91s CPU      0.33s WALL (    1428 calls)
     cegterg      :     74.66s CPU     27.37s WALL (     672 calls)

     Called by *egterg:
     cdiaghg      :     12.18s CPU      4.02s WALL (    4046 calls)
     h_psi        :     51.06s CPU     20.53s WALL (    4074 calls)
     s_psi        :      1.16s CPU      0.34s WALL (    4074 calls)
     g_psi        :      0.40s CPU      0.10s WALL (    3374 calls)

     Called by h_psi:
     h_psi:calbec :      1.68s CPU      0.61s WALL (    4074 calls)
     vloc_psi     :     47.82s CPU     19.42s WALL (    4074 calls)
     add_vuspsi   :      1.12s CPU      0.36s WALL (    4074 calls)

     General routines
     calbec       :      2.09s CPU      0.75s WALL (    4886 calls)
     fft          :      0.66s CPU      0.40s WALL (     348 calls)
     ffts         :      0.13s CPU      0.11s WALL (      49 calls)
     fftw         :     47.50s CPU     19.39s WALL (  111338 calls)
     interpolate  :      0.15s CPU      0.12s WALL (      25 calls)

     Parallel routines

     PWSCF        :   1m35.96s CPU     36.89s WALL


   This run was terminated on:  16:56:11  13Jun2025            

=------------------------------------------------------------------------------=
   JOB DONE.
=------------------------------------------------------------------------------=
Note: The following floating-point exceptions are signalling: IEEE_INVALID_FLAG
