Authorization required, but no authorization protocol specified

Authorization required, but no authorization protocol specified

Authorization required, but no authorization protocol specified

Authorization required, but no authorization protocol specified

Authorization required, but no authorization protocol specified

Authorization required, but no authorization protocol specified

Authorization required, but no authorization protocol specified

Authorization required, but no authorization protocol specified

Authorization required, but no authorization protocol specified

Authorization required, but no authorization protocol specified


     Program PWSCF v.7.2 starts on 13Jun2025 at 16:28:10 

     This program is part of the open-source Quantum ESPRESSO suite
     for quantum simulation of materials; please cite
         "P. Giannozzi et al., J. Phys.:Condens. Matter 21 395502 (2009);
         "P. Giannozzi et al., J. Phys.:Condens. Matter 29 465901 (2017);
         "P. Giannozzi et al., J. Chem. Phys. 152 154105 (2020);
          URL http://www.quantum-espresso.org", 
     in publications or presentations arising from this work. More details at
     http://www.quantum-espresso.org/quote

     Parallel version (MPI), running on     8 processors

     MPI processes distributed on     1 nodes
     120728 MiB available memory on the printing compute node when the environment starts

     Reading input from /home/jvc/QEspresso7.2/ZnO_database_python/SCFs.in/scf-5.99-1.53.in

     Current dimensions of program PWSCF are:
     Max number of different atomic species (ntypx) = 10
     Max number of k-points (npk) =  40000
     Max angular momentum in pseudopotentials (lmaxx) =  4
     file Zn.upf: wavefunction(s)  3D renormalized

     R & G space division:  proc/nbgrp/npool/nimage =       8
     Subspace diagonalization in iterative solution of the eigenvalue problem:
     a serial algorithm will be used


     Parallelization info
     --------------------
     sticks:   dense  smooth     PW     G-vecs:    dense   smooth      PW
     Min         122      62     18                 4816     1708     288
     Max         123      63     19                 4821     1715     295
     Sum         979     499    151                38549    13691    2345

     Using Slab Decomposition



     bravais-lattice index     =            4
     lattice parameter (alat)  =       5.9935  a.u.
     unit-cell volume          =     285.9475 (a.u.)^3
     number of atoms/cell      =            4
     number of atomic types    =            2
     number of electrons       =        36.00
     number of Kohn-Sham states=           18
     kinetic-energy cutoff     =      50.0000  Ry
     charge density cutoff     =     400.0000  Ry
     scf convergence threshold =      1.0E-08
     mixing beta               =       0.3000
     number of iterations used =            8  plain     mixing
     Exchange-correlation= PBE
                           (   1   4   3   4   0   0   0)

     celldm(1)=   5.993457  celldm(2)=   0.000000  celldm(3)=   1.533640
     celldm(4)=   0.000000  celldm(5)=   0.000000  celldm(6)=   0.000000

     crystal axes: (cart. coord. in units of alat)
               a(1) = (   1.000000   0.000000   0.000000 )  
               a(2) = (  -0.500000   0.866025   0.000000 )  
               a(3) = (   0.000000   0.000000   1.533640 )  

     reciprocal axes: (cart. coord. in units 2 pi/alat)
               b(1) = (  1.000000  0.577350 -0.000000 )  
               b(2) = (  0.000000  1.154701  0.000000 )  
               b(3) = (  0.000000 -0.000000  0.652043 )  


     PseudoPot. # 1 for Zn read from file:
     /home/jvc/QEspresso7.2/ZnO_database/pseudos/Zn.upf
     MD5 check sum: 7f56cabf9682ed8c977c2f7d0c5985c5
     Pseudo is Ultrasoft + core correction, Zval = 12.0
     Generated using &quot;atomic&quot; code by A. Dal Corso  v.6.2.2
     Using radial grid of 1201 points,  6 beta functions with: 
                l(1) =   0
                l(2) =   0
                l(3) =   1
                l(4) =   1
                l(5) =   2
                l(6) =   2
     Q(r) pseudized with 0 coefficients 


     PseudoPot. # 2 for O  read from file:
     /home/jvc/QEspresso7.2/ZnO_database/pseudos/O.upf
     MD5 check sum: 91400c9766925bcf19f520983a725ff0
     Pseudo is Ultrasoft + core correction, Zval =  6.0
     Generated using &quot;atomic&quot; code by A. Dal Corso  v.6.3MaX
     Using radial grid of 1095 points,  4 beta functions with: 
                l(1) =   0
                l(2) =   0
                l(3) =   1
                l(4) =   1
     Q(r) pseudized with 0 coefficients 


     atomic species   valence    mass     pseudopotential
        Zn            12.00    63.38000     Zn( 1.00)
        O              6.00    15.99900     O ( 1.00)

     12 Sym. Ops. (no inversion) found ( 6 have fractional translation)



   Cartesian axes

     site n.     atom                  positions (alat units)
         1           Zn  tau(   1) = (   0.5000000   0.2886751   0.7677919  )
         2           Zn  tau(   2) = (  -0.0000000   0.5773503   0.0009717  )
         3           O   tau(   3) = (   0.5000000   0.2886751   1.3491073  )
         4           O   tau(   4) = (  -0.0000000   0.5773503   0.5822871  )

     number of k points=    28
                       cart. coord. in units 2pi/alat
        k(    1) = (   0.0000000   0.0000000   0.0000000), wk =   0.0092593
        k(    2) = (   0.0000000   0.0000000   0.1086739), wk =   0.0185185
        k(    3) = (   0.0000000   0.0000000   0.2173478), wk =   0.0185185
        k(    4) = (   0.0000000   0.0000000  -0.3260217), wk =   0.0092593
        k(    5) = (   0.0000000   0.1924501   0.0000000), wk =   0.0555556
        k(    6) = (   0.0000000   0.1924501   0.1086739), wk =   0.1111111
        k(    7) = (   0.0000000   0.1924501   0.2173478), wk =   0.1111111
        k(    8) = (   0.0000000   0.1924501  -0.3260217), wk =   0.0555556
        k(    9) = (   0.0000000   0.3849002   0.0000000), wk =   0.0555556
        k(   10) = (   0.0000000   0.3849002   0.1086739), wk =   0.1111111
        k(   11) = (   0.0000000   0.3849002   0.2173478), wk =   0.1111111
        k(   12) = (   0.0000000   0.3849002  -0.3260217), wk =   0.0555556
        k(   13) = (   0.0000000  -0.5773503   0.0000000), wk =   0.0277778
        k(   14) = (   0.0000000  -0.5773503   0.1086739), wk =   0.0555556
        k(   15) = (   0.0000000  -0.5773503   0.2173478), wk =   0.0555556
        k(   16) = (   0.0000000  -0.5773503  -0.3260217), wk =   0.0277778
        k(   17) = (   0.1666667   0.2886751   0.0000000), wk =   0.0555556
        k(   18) = (   0.1666667   0.2886751   0.1086739), wk =   0.1111111
        k(   19) = (   0.1666667   0.2886751   0.2173478), wk =   0.1111111
        k(   20) = (   0.1666667   0.2886751  -0.3260217), wk =   0.0555556
        k(   21) = (   0.1666667   0.4811252   0.0000000), wk =   0.1111111
        k(   22) = (   0.1666667   0.4811252   0.1086739), wk =   0.2222222
        k(   23) = (   0.1666667   0.4811252   0.2173478), wk =   0.2222222
        k(   24) = (   0.1666667   0.4811252  -0.3260217), wk =   0.1111111
        k(   25) = (   0.3333333   0.5773503   0.0000000), wk =   0.0185185
        k(   26) = (   0.3333333   0.5773503   0.1086739), wk =   0.0370370
        k(   27) = (   0.3333333   0.5773503   0.2173478), wk =   0.0370370
        k(   28) = (   0.3333333   0.5773503  -0.3260217), wk =   0.0185185

     Dense  grid:    38549 G-vectors     FFT dimensions: (  40,  40,  60)

     Smooth grid:    13691 G-vectors     FFT dimensions: (  27,  27,  48)

     Estimated max dynamical RAM per process >      22.87 MB

     Estimated total dynamical RAM >     182.95 MB

     Check: negative core charge=   -0.000002

     Initial potential from superposition of free atoms

     starting charge      35.9925, renormalised to      36.0000
     Starting wfcs are   26 randomized atomic wfcs

     total cpu time spent up to now is        1.5 secs

     Self-consistent Calculation

     iteration #  1     ecut=    50.00 Ry     beta= 0.30
     Davidson diagonalization with overlap
     ethr =  1.00E-02,  avg # of iterations =  2.0

     total cpu time spent up to now is        2.3 secs

     total energy              =    -361.44784559 Ry
     estimated scf accuracy    <       0.67750188 Ry

     iteration #  2     ecut=    50.00 Ry     beta= 0.30
     Davidson diagonalization with overlap
     ethr =  1.88E-03,  avg # of iterations =  2.0

     total cpu time spent up to now is        3.2 secs

     total energy              =    -361.51615728 Ry
     estimated scf accuracy    <       0.11274642 Ry

     iteration #  3     ecut=    50.00 Ry     beta= 0.30
     Davidson diagonalization with overlap
     ethr =  3.13E-04,  avg # of iterations =  6.3

     total cpu time spent up to now is        4.8 secs

     total energy              =    -361.56494102 Ry
     estimated scf accuracy    <       0.07293624 Ry

     iteration #  4     ecut=    50.00 Ry     beta= 0.30
     Davidson diagonalization with overlap
     ethr =  2.03E-04,  avg # of iterations =  5.4

     total cpu time spent up to now is        6.2 secs

     total energy              =    -361.61508189 Ry
     estimated scf accuracy    <       0.03982885 Ry

     iteration #  5     ecut=    50.00 Ry     beta= 0.30
     Davidson diagonalization with overlap
     ethr =  1.11E-04,  avg # of iterations =  2.1

     total cpu time spent up to now is        7.0 secs

     total energy              =    -361.58711630 Ry
     estimated scf accuracy    <       0.07105360 Ry

     iteration #  6     ecut=    50.00 Ry     beta= 0.30
     Davidson diagonalization with overlap
     ethr =  1.11E-04,  avg # of iterations =  2.0

     total cpu time spent up to now is        7.9 secs

     total energy              =    -361.58055726 Ry
     estimated scf accuracy    <       0.01999863 Ry

     iteration #  7     ecut=    50.00 Ry     beta= 0.30
     Davidson diagonalization with overlap
     ethr =  5.56E-05,  avg # of iterations =  4.9

     total cpu time spent up to now is        9.2 secs

     total energy              =    -361.59307174 Ry
     estimated scf accuracy    <       0.00327302 Ry

     iteration #  8     ecut=    50.00 Ry     beta= 0.30
     Davidson diagonalization with overlap
     ethr =  9.09E-06,  avg # of iterations =  3.7

     total cpu time spent up to now is       10.3 secs

     total energy              =    -361.59195954 Ry
     estimated scf accuracy    <       0.00533447 Ry

     iteration #  9     ecut=    50.00 Ry     beta= 0.30
     Davidson diagonalization with overlap
     ethr =  9.09E-06,  avg # of iterations =  2.0

     total cpu time spent up to now is       11.1 secs

     total energy              =    -361.59110006 Ry
     estimated scf accuracy    <       0.00176619 Ry

     iteration # 10     ecut=    50.00 Ry     beta= 0.30
     Davidson diagonalization with overlap
     ethr =  4.91E-06,  avg # of iterations =  6.4

     total cpu time spent up to now is       12.7 secs

     total energy              =    -361.59250764 Ry
     estimated scf accuracy    <       0.00156672 Ry

     iteration # 11     ecut=    50.00 Ry     beta= 0.30
     Davidson diagonalization with overlap
     ethr =  4.35E-06,  avg # of iterations =  1.0

     total cpu time spent up to now is       13.4 secs

     total energy              =    -361.59239990 Ry
     estimated scf accuracy    <       0.00093352 Ry

     iteration # 12     ecut=    50.00 Ry     beta= 0.30
     Davidson diagonalization with overlap
     ethr =  2.59E-06,  avg # of iterations =  1.9

     total cpu time spent up to now is       14.2 secs

     total energy              =    -361.59235195 Ry
     estimated scf accuracy    <       0.00045583 Ry

     iteration # 13     ecut=    50.00 Ry     beta= 0.30
     Davidson diagonalization with overlap
     ethr =  1.27E-06,  avg # of iterations =  1.9

     total cpu time spent up to now is       15.0 secs

     total energy              =    -361.59228627 Ry
     estimated scf accuracy    <       0.00021502 Ry

     iteration # 14     ecut=    50.00 Ry     beta= 0.30
     Davidson diagonalization with overlap
     ethr =  5.97E-07,  avg # of iterations =  4.4

     total cpu time spent up to now is       16.2 secs

     total energy              =    -361.59237917 Ry
     estimated scf accuracy    <       0.00000142 Ry

     iteration # 15     ecut=    50.00 Ry     beta= 0.30
     Davidson diagonalization with overlap
     ethr =  3.94E-09,  avg # of iterations = 12.6

     total cpu time spent up to now is       19.1 secs

     total energy              =    -361.59239078 Ry
     estimated scf accuracy    <       0.00012506 Ry

     iteration # 16     ecut=    50.00 Ry     beta= 0.30
     Davidson diagonalization with overlap
     ethr =  3.94E-09,  avg # of iterations =  7.1

     total cpu time spent up to now is       20.8 secs

     total energy              =    -361.59239383 Ry
     estimated scf accuracy    <       0.00006121 Ry

     iteration # 17     ecut=    50.00 Ry     beta= 0.30
     Davidson diagonalization with overlap
     ethr =  3.94E-09,  avg # of iterations =  1.0

     total cpu time spent up to now is       21.6 secs

     total energy              =    -361.59239678 Ry
     estimated scf accuracy    <       0.00006253 Ry

     iteration # 18     ecut=    50.00 Ry     beta= 0.30
     Davidson diagonalization with overlap
     ethr =  3.94E-09,  avg # of iterations =  1.0

     total cpu time spent up to now is       22.3 secs

     total energy              =    -361.59237413 Ry
     estimated scf accuracy    <       0.00006914 Ry

     iteration # 19     ecut=    50.00 Ry     beta= 0.30
     Davidson diagonalization with overlap
     ethr =  3.94E-09,  avg # of iterations =  9.3

     total cpu time spent up to now is       24.4 secs

     total energy              =    -361.59237774 Ry
     estimated scf accuracy    <       0.00000902 Ry

     iteration # 20     ecut=    50.00 Ry     beta= 0.30
     Davidson diagonalization with overlap
     ethr =  3.94E-09,  avg # of iterations =  2.0

     total cpu time spent up to now is       25.2 secs

     total energy              =    -361.59238200 Ry
     estimated scf accuracy    <       0.00000608 Ry

     iteration # 21     ecut=    50.00 Ry     beta= 0.30
     Davidson diagonalization with overlap
     ethr =  3.94E-09,  avg # of iterations =  4.8

     total cpu time spent up to now is       26.5 secs

     total energy              =    -361.59237547 Ry
     estimated scf accuracy    <       0.00001957 Ry

     iteration # 22     ecut=    50.00 Ry     beta= 0.30
     Davidson diagonalization with overlap
     ethr =  3.94E-09,  avg # of iterations =  6.8

     total cpu time spent up to now is       28.2 secs

     total energy              =    -361.59237570 Ry
     estimated scf accuracy    <       0.00000192 Ry

     iteration # 23     ecut=    50.00 Ry     beta= 0.30
     Davidson diagonalization with overlap
     ethr =  3.94E-09,  avg # of iterations =  8.8

     total cpu time spent up to now is       30.2 secs

     total energy              =    -361.59237248 Ry
     estimated scf accuracy    <       0.00001278 Ry

     iteration # 24     ecut=    50.00 Ry     beta= 0.30
     Davidson diagonalization with overlap
     ethr =  3.94E-09,  avg # of iterations =  8.5

     total cpu time spent up to now is       32.3 secs

     total energy              =    -361.59237869 Ry
     estimated scf accuracy    <       0.00000306 Ry

     iteration # 25     ecut=    50.00 Ry     beta= 0.30
     Davidson diagonalization with overlap
     ethr =  3.94E-09,  avg # of iterations =  2.3

     total cpu time spent up to now is       33.2 secs

     total energy              =    -361.59237652 Ry
     estimated scf accuracy    <       0.00000527 Ry

     iteration # 26     ecut=    50.00 Ry     beta= 0.30
     Davidson diagonalization with overlap
     ethr =  3.94E-09,  avg # of iterations =  3.7

     total cpu time spent up to now is       34.2 secs

     total energy              =    -361.59237642 Ry
     estimated scf accuracy    <       0.00000103 Ry

     iteration # 27     ecut=    50.00 Ry     beta= 0.30
     Davidson diagonalization with overlap
     ethr =  2.86E-09,  avg # of iterations =  4.6

     total cpu time spent up to now is       35.4 secs

     total energy              =    -361.59237686 Ry
     estimated scf accuracy    <       0.00000001 Ry

     iteration # 28     ecut=    50.00 Ry     beta= 0.30
     Davidson diagonalization with overlap
     ethr =  3.11E-11,  avg # of iterations =  7.6

     total cpu time spent up to now is       37.0 secs

     total energy              =    -361.59237688 Ry
     estimated scf accuracy    <       0.00000006 Ry

     iteration # 29     ecut=    50.00 Ry     beta= 0.30
     Davidson diagonalization with overlap
     ethr =  3.11E-11,  avg # of iterations =  5.1

     total cpu time spent up to now is       38.3 secs

     End of self-consistent calculation

          k = 0.0000 0.0000 0.0000 (  1725 PWs)   bands (ev):

    -9.9721  -8.9611   2.6451   2.8315   2.8315   2.8665   3.0972   3.0972
     4.3433   4.3433   4.6613   4.6613   4.9470   8.0286   8.0286   9.0989
     9.1061   9.1061

          k = 0.0000 0.0000 0.1087 (  1725 PWs)   bands (ev):

    -9.9080  -9.0323   2.5262   2.7784   2.8377   2.8377   3.0662   3.0662
     4.3753   4.3753   4.6532   4.6532   5.3017   8.1023   8.1023   8.5775
     9.0365   9.0365

          k = 0.0000 0.0000 0.2173 (  1713 PWs)   bands (ev):

    -9.7302  -9.2245   2.3839   2.5795   2.8627   2.8627   2.9927   2.9927
     4.4559   4.4559   4.6187   4.6187   6.0903   7.8043   8.3035   8.3035
     8.8439   8.8439

          k = 0.0000 0.0000-0.3260 (  1688 PWs)   bands (ev):

    -9.4810  -9.4810   2.4075   2.4075   2.9162   2.9162   2.9162   2.9162
     4.5487   4.5487   4.5487   4.5487   6.9726   6.9726   8.5760   8.5760
     8.5760   8.5760

          k = 0.0000 0.1925 0.0000 (  1706 PWs)   bands (ev):

    -9.7970  -8.9009   2.6006   2.8560   2.9194   2.9578   3.1380   3.2356
     4.2677   4.3447   4.6823   4.6921   4.9832   7.1149   7.6225   8.0167
     8.8708   8.9028

          k = 0.0000 0.1925 0.1087 (  1708 PWs)   bands (ev):

    -9.7387  -8.9622   2.5340   2.6553   2.9293   2.9545   3.1184   3.2008
     4.3172   4.3747   4.6684   4.6976   5.3508   7.2030   7.7128   7.8352
     8.8177   8.8212

          k = 0.0000 0.1925 0.2173 (  1705 PWs)   bands (ev):

    -9.5779  -9.1291   2.3621   2.4343   2.9458   2.9640   3.0523   3.1180
     4.4289   4.4519   4.6227   4.6496   6.1335   7.3305   7.5953   7.9559
     8.5163   8.5955

          k = 0.0000 0.1925-0.3260 (  1710 PWs)   bands (ev):

    -9.3551  -9.3551   2.3144   2.3144   2.9823   2.9823   3.0292   3.0292
     4.5446   4.5446   4.5526   4.5526   6.8603   6.8603   8.0059   8.0059
     8.2800   8.2800

          k = 0.0000 0.3849 0.0000 (  1708 PWs)   bands (ev):

    -9.3958  -8.8119   2.3668   2.8014   3.0583   3.1801   3.5854   3.5888
     4.2360   4.4492   4.6577   4.7127   5.1574   5.7363   6.7637   6.7793
     8.2267   8.4477

          k = 0.0000 0.3849 0.1087 (  1708 PWs)   bands (ev):

    -9.3543  -8.8478   2.3073   2.6204   3.0817   3.1557   3.4460   3.5336
     4.3011   4.4657   4.6908   4.7634   5.3454   5.9278   6.6927   6.9093
     8.2935   8.3462

          k = 0.0000 0.3849 0.2173 (  1703 PWs)   bands (ev):

    -9.2421  -8.9487   2.1871   2.3113   3.1421   3.1526   3.2860   3.4084
     4.4455   4.5106   4.6374   4.7237   5.6797   6.1501   6.9636   7.2433
     8.0644   8.2190

          k = 0.0000 0.3849-0.3260 (  1704 PWs)   bands (ev):

    -9.0926  -9.0926   2.1533   2.1533   3.1847   3.1847   3.2674   3.2674
     4.5725   4.5725   4.5993   4.5993   5.9543   5.9543   7.6659   7.6659
     7.7189   7.7189

          k = 0.0000-0.5774 0.0000 (  1694 PWs)   bands (ev):

    -9.1321  -8.8195   2.4425   2.5962   3.1025   3.3423   3.5815   3.8234
     4.3922   4.5814   4.7274   4.7963   5.2925   5.3411   5.9993   6.2887
     7.7342   8.1936

          k = 0.0000-0.5774 0.1087 (  1706 PWs)   bands (ev):

    -9.1064  -8.8351   2.3587   2.4535   3.1351   3.3107   3.5215   3.7518
     4.4838   4.5855   4.6994   4.7965   5.2667   5.2814   6.3686   6.4536
     7.8616   8.0827

          k = 0.0000-0.5774 0.2173 (  1714 PWs)   bands (ev):

    -9.0393  -8.8820   2.1878   2.2069   3.2327   3.2954   3.4125   3.5801
     4.5981   4.6270   4.6536   4.7816   5.2172   5.2546   6.8533   7.0982
     7.7744   7.9938

          k = 0.0000-0.5774-0.3260 (  1732 PWs)   bands (ev):

    -8.9556  -8.9556   2.1009   2.1009   3.3303   3.3303   3.3885   3.3885
     4.6197   4.6197   4.7286   4.7286   5.2253   5.2253   7.3335   7.3335
     7.7437   7.7437

          k = 0.1667 0.2887 0.0000 (  1717 PWs)   bands (ev):

    -9.5068  -8.8271   2.5017   2.7591   3.0692   3.1105   3.4454   3.4926
     4.2062   4.3710   4.6870   4.7029   5.1469   6.2598   6.5756   7.2226
     8.4134   8.4461

          k = 0.1667 0.2887 0.1087 (  1713 PWs)   bands (ev):

    -9.4600  -8.8706   2.4383   2.6256   3.0462   3.0682   3.3235   3.4470
     4.2706   4.4284   4.6848   4.7562   5.4332   6.4145   6.6411   7.1453
     8.3064   8.4810

          k = 0.1667 0.2887 0.2173 (  1700 PWs)   bands (ev):

    -9.3325  -8.9913   2.3005   2.3531   3.0277   3.0546   3.2311   3.3421
     4.4161   4.4945   4.6375   4.7096   5.9738   6.5987   6.9649   7.2330
     8.0176   8.3320

          k = 0.1667 0.2887-0.3260 (  1702 PWs)   bands (ev):

    -9.1603  -9.1603   2.2321   2.2321   3.0440   3.0440   3.2443   3.2443
     4.5493   4.5493   4.5973   4.5973   6.3401   6.3401   7.5607   7.5607
     7.8126   7.8126

          k = 0.1667 0.4811 0.0000 (  1706 PWs)   bands (ev):

    -9.1432  -8.8128   2.5549   2.8125   3.0679   3.2559   3.6902   3.8381
     4.3296   4.3801   4.7326   4.8214   5.0489   5.5958   5.9013   6.3056
     7.6740   7.8994

          k = 0.1667 0.4811 0.1087 (  1705 PWs)   bands (ev):

    -9.1165  -8.8298   2.4798   2.6728   3.0463   3.2310   3.5868   3.7267
     4.3399   4.5163   4.7201   4.9138   5.0478   5.7179   5.9461   6.5411
     7.6689   7.9104

          k = 0.1667 0.4811 0.2173 (  1707 PWs)   bands (ev):

    -9.0464  -8.8801   2.3198   2.3946   3.0712   3.1925   3.4745   3.5584
     4.4502   4.5553   4.7307   4.8807   5.2420   5.6415   6.3297   7.1154
     7.4055   8.0260

          k = 0.1667 0.4811-0.3260 (  1704 PWs)   bands (ev):

    -8.9584  -8.9584   2.2538   2.2538   3.1403   3.1403   3.4566   3.4566
     4.5304   4.5304   4.7919   4.7919   5.4601   5.4601   6.8315   6.8315
     7.8115   7.8115

          k = 0.3333 0.5774 0.0000 (  1701 PWs)   bands (ev):

    -8.9154  -8.9154   2.7286   3.0597   3.0597   3.4867   3.8725   3.8725
     4.2581   4.4376   4.4376   4.4723   4.9518   5.4982   5.4982   6.9963
     6.9963   7.2648

          k = 0.3333 0.5774 0.1087 (  1713 PWs)   bands (ev):

    -8.9096  -8.9096   2.7556   2.9040   2.9040   3.3796   3.7510   3.7510
     4.2816   4.4601   4.6470   4.6470   5.1361   5.4459   5.4459   7.1072
     7.2158   7.2158

          k = 0.3333 0.5774 0.2173 (  1695 PWs)   bands (ev):

    -8.8978  -8.8978   2.6216   2.6216   2.8387   3.1718   3.6559   3.6559
     4.3274   4.4265   4.9165   4.9165   5.3408   5.3408   5.5840   6.6916
     7.6405   7.6405

          k = 0.3333 0.5774-0.3260 (  1692 PWs)   bands (ev):

    -8.8919  -8.8919   2.4954   2.4954   2.9793   2.9793   3.6297   3.6297
     4.3790   4.3790   5.0477   5.0477   5.2646   5.2646   6.1421   6.1421
     7.8496   7.8496

     highest occupied level (ev):     9.1061

!    total energy              =    -361.59237688 Ry
     estimated scf accuracy    <          6.2E-09 Ry

     The total energy is the sum of the following terms:
     one-electron contribution =    -138.28710136 Ry
     hartree contribution      =     112.69628990 Ry
     xc contribution           =    -109.86937647 Ry
     ewald contribution        =    -226.13218896 Ry

     convergence has been achieved in  29 iterations

     Forces acting on atoms (cartesian axes, Ry/au):

     atom    1 type  1   force =     0.00000000    0.00000000   -0.03711265
     atom    2 type  1   force =     0.00000000    0.00000000   -0.03711265
     atom    3 type  2   force =     0.00000000   -0.00000000    0.03711265
     atom    4 type  2   force =     0.00000000   -0.00000000    0.03711265
     The non-local contrib.  to forces
     atom    1 type  1   force =     0.00000000    0.00000000   -0.16474280
     atom    2 type  1   force =     0.00000000    0.00000000   -0.16474280
     atom    3 type  2   force =    -0.00000000   -0.00000000   -0.10902975
     atom    4 type  2   force =     0.00000000    0.00000000   -0.10902975
     The ionic contribution  to forces
     atom    1 type  1   force =    -0.00000000    0.00000000   -1.09241780
     atom    2 type  1   force =     0.00000000   -0.00000000   -1.09241780
     atom    3 type  2   force =    -0.00000000    0.00000000    1.09241780
     atom    4 type  2   force =     0.00000000   -0.00000000    1.09241780
     The local contribution  to forces
     atom    1 type  1   force =    -0.00000002    0.00000001    1.20592180
     atom    2 type  1   force =     0.00000006   -0.00000004    1.20592180
     atom    3 type  2   force =    -0.00000001    0.00000000   -0.94698222
     atom    4 type  2   force =     0.00000002   -0.00000001   -0.94698221
     The core correction contribution to forces
     atom    1 type  1   force =    -0.00000000    0.00000000    0.01413784
     atom    2 type  1   force =     0.00000001   -0.00000000    0.01413784
     atom    3 type  2   force =     0.00000000   -0.00000000    0.00070202
     atom    4 type  2   force =    -0.00000000    0.00000000    0.00070202
     The Hubbard contrib.    to forces
     atom    1 type  1   force =     0.00000000    0.00000000    0.00000000
     atom    2 type  1   force =     0.00000000    0.00000000    0.00000000
     atom    3 type  2   force =     0.00000000    0.00000000    0.00000000
     atom    4 type  2   force =     0.00000000    0.00000000    0.00000000
     The SCF correction term to forces
     atom    1 type  1   force =     0.00000000   -0.00000000   -0.00001717
     atom    2 type  1   force =    -0.00000000    0.00000000   -0.00001717
     atom    3 type  2   force =     0.00000000   -0.00000000   -0.00000067
     atom    4 type  2   force =    -0.00000000    0.00000000   -0.00000067

     Total force =     0.074225     Total SCF correction =     0.000024


     Computing stress (Cartesian axis) and pressure

          total   stress  (Ry/bohr**3)                   (kbar)     P=      268.32
   0.00139726   0.00000000   0.00000000          205.54        0.00        0.00
   0.00000000   0.00139726   0.00000000            0.00      205.54        0.00
   0.00000000   0.00000000   0.00267752            0.00        0.00      393.88


     Writing all to output data dir ./ZnO_ANN.save/

     init_run     :      1.69s CPU      1.14s WALL (       1 calls)
     electrons    :     97.66s CPU     36.88s WALL (       1 calls)
     forces       :      0.59s CPU      0.28s WALL (       1 calls)
     stress       :      2.08s CPU      0.99s WALL (       1 calls)

     Called by init_run:
     wfcinit      :      0.93s CPU      0.37s WALL (       1 calls)
     potinit      :      0.20s CPU      0.21s WALL (       1 calls)
     hinit0       :      0.45s CPU      0.46s WALL (       1 calls)

     Called by electrons:
     c_bands      :     81.47s CPU     30.50s WALL (      29 calls)
     sum_band     :     12.17s CPU      4.73s WALL (      29 calls)
     v_of_rho     :      0.93s CPU      0.40s WALL (      30 calls)
     newd         :      2.87s CPU      1.17s WALL (      30 calls)
     mix_rho      :      0.15s CPU      0.07s WALL (      29 calls)

     Called by c_bands:
     init_us_2    :      1.05s CPU      0.37s WALL (    1708 calls)
     init_us_2:cp :      1.03s CPU      0.36s WALL (    1708 calls)
     cegterg      :     79.17s CPU     29.60s WALL (     812 calls)

     Called by *egterg:
     cdiaghg      :     12.91s CPU      4.30s WALL (    4483 calls)
     h_psi        :     55.00s CPU     22.35s WALL (    4511 calls)
     s_psi        :      1.17s CPU      0.36s WALL (    4511 calls)
     g_psi        :      0.39s CPU      0.10s WALL (    3671 calls)

     Called by h_psi:
     h_psi:calbec :      1.77s CPU      0.66s WALL (    4511 calls)
     vloc_psi     :     51.66s CPU     21.17s WALL (    4511 calls)
     add_vuspsi   :      1.14s CPU      0.38s WALL (    4511 calls)

     General routines
     calbec       :      2.23s CPU      0.82s WALL (    5463 calls)
     fft          :      0.76s CPU      0.46s WALL (     413 calls)
     ffts         :      0.13s CPU      0.11s WALL (      59 calls)
     fftw         :     52.13s CPU     21.36s WALL (  122964 calls)
     interpolate  :      0.15s CPU      0.12s WALL (      30 calls)

     Parallel routines

     PWSCF        :   1m42.54s CPU     39.74s WALL


   This run was terminated on:  16:28:50  13Jun2025            

=------------------------------------------------------------------------------=
   JOB DONE.
=------------------------------------------------------------------------------=
Note: The following floating-point exceptions are signalling: IEEE_INVALID_FLAG
