Authorization required, but no authorization protocol specified

Authorization required, but no authorization protocol specified

Authorization required, but no authorization protocol specified

Authorization required, but no authorization protocol specified

Authorization required, but no authorization protocol specified

Authorization required, but no authorization protocol specified

Authorization required, but no authorization protocol specified

Authorization required, but no authorization protocol specified

Authorization required, but no authorization protocol specified

Authorization required, but no authorization protocol specified


     Program PWSCF v.7.2 starts on 13Jun2025 at 16:42:14 

     This program is part of the open-source Quantum ESPRESSO suite
     for quantum simulation of materials; please cite
         "P. Giannozzi et al., J. Phys.:Condens. Matter 21 395502 (2009);
         "P. Giannozzi et al., J. Phys.:Condens. Matter 29 465901 (2017);
         "P. Giannozzi et al., J. Chem. Phys. 152 154105 (2020);
          URL http://www.quantum-espresso.org", 
     in publications or presentations arising from this work. More details at
     http://www.quantum-espresso.org/quote

     Parallel version (MPI), running on     8 processors

     MPI processes distributed on     1 nodes
     120730 MiB available memory on the printing compute node when the environment starts

     Reading input from /home/jvc/QEspresso7.2/ZnO_database_python/SCFs.in/scf-6.06-1.57.in

     Current dimensions of program PWSCF are:
     Max number of different atomic species (ntypx) = 10
     Max number of k-points (npk) =  40000
     Max angular momentum in pseudopotentials (lmaxx) =  4
     file Zn.upf: wavefunction(s)  3D renormalized

     R & G space division:  proc/nbgrp/npool/nimage =       8
     Subspace diagonalization in iterative solution of the eigenvalue problem:
     a serial algorithm will be used


     Parallelization info
     --------------------
     sticks:   dense  smooth     PW     G-vecs:    dense   smooth      PW
     Min         126      63     18                 5076     1804     300
     Max         127      65     19                 5081     1805     305
     Sum        1015     511    151                40627    14437    2429

     Using Slab Decomposition



     bravais-lattice index     =            4
     lattice parameter (alat)  =       6.0552  a.u.
     unit-cell volume          =     301.0908 (a.u.)^3
     number of atoms/cell      =            4
     number of atomic types    =            2
     number of electrons       =        36.00
     number of Kohn-Sham states=           18
     kinetic-energy cutoff     =      50.0000  Ry
     charge density cutoff     =     400.0000  Ry
     scf convergence threshold =      1.0E-08
     mixing beta               =       0.3000
     number of iterations used =            8  plain     mixing
     Exchange-correlation= PBE
                           (   1   4   3   4   0   0   0)

     celldm(1)=   6.055245  celldm(2)=   0.000000  celldm(3)=   1.565928
     celldm(4)=   0.000000  celldm(5)=   0.000000  celldm(6)=   0.000000

     crystal axes: (cart. coord. in units of alat)
               a(1) = (   1.000000   0.000000   0.000000 )  
               a(2) = (  -0.500000   0.866025   0.000000 )  
               a(3) = (   0.000000   0.000000   1.565928 )  

     reciprocal axes: (cart. coord. in units 2 pi/alat)
               b(1) = (  1.000000  0.577350 -0.000000 )  
               b(2) = (  0.000000  1.154701  0.000000 )  
               b(3) = (  0.000000 -0.000000  0.638599 )  


     PseudoPot. # 1 for Zn read from file:
     /home/jvc/QEspresso7.2/ZnO_database/pseudos/Zn.upf
     MD5 check sum: 7f56cabf9682ed8c977c2f7d0c5985c5
     Pseudo is Ultrasoft + core correction, Zval = 12.0
     Generated using &quot;atomic&quot; code by A. Dal Corso  v.6.2.2
     Using radial grid of 1201 points,  6 beta functions with: 
                l(1) =   0
                l(2) =   0
                l(3) =   1
                l(4) =   1
                l(5) =   2
                l(6) =   2
     Q(r) pseudized with 0 coefficients 


     PseudoPot. # 2 for O  read from file:
     /home/jvc/QEspresso7.2/ZnO_database/pseudos/O.upf
     MD5 check sum: 91400c9766925bcf19f520983a725ff0
     Pseudo is Ultrasoft + core correction, Zval =  6.0
     Generated using &quot;atomic&quot; code by A. Dal Corso  v.6.3MaX
     Using radial grid of 1095 points,  4 beta functions with: 
                l(1) =   0
                l(2) =   0
                l(3) =   1
                l(4) =   1
     Q(r) pseudized with 0 coefficients 


     atomic species   valence    mass     pseudopotential
        Zn            12.00    63.38000     Zn( 1.00)
        O              6.00    15.99900     O ( 1.00)

     12 Sym. Ops. (no inversion) found ( 6 have fractional translation)



   Cartesian axes

     site n.     atom                  positions (alat units)
         1           Zn  tau(   1) = (   0.5000000   0.2886751   0.7839560  )
         2           Zn  tau(   2) = (  -0.0000000   0.5773503   0.0009921  )
         3           O   tau(   3) = (   0.5000000   0.2886751   1.3775096  )
         4           O   tau(   4) = (  -0.0000000   0.5773503   0.5945458  )

     number of k points=    28
                       cart. coord. in units 2pi/alat
        k(    1) = (   0.0000000   0.0000000   0.0000000), wk =   0.0092593
        k(    2) = (   0.0000000   0.0000000   0.1064332), wk =   0.0185185
        k(    3) = (   0.0000000   0.0000000   0.2128664), wk =   0.0185185
        k(    4) = (   0.0000000   0.0000000  -0.3192996), wk =   0.0092593
        k(    5) = (   0.0000000   0.1924501   0.0000000), wk =   0.0555556
        k(    6) = (   0.0000000   0.1924501   0.1064332), wk =   0.1111111
        k(    7) = (   0.0000000   0.1924501   0.2128664), wk =   0.1111111
        k(    8) = (   0.0000000   0.1924501  -0.3192996), wk =   0.0555556
        k(    9) = (   0.0000000   0.3849002   0.0000000), wk =   0.0555556
        k(   10) = (   0.0000000   0.3849002   0.1064332), wk =   0.1111111
        k(   11) = (   0.0000000   0.3849002   0.2128664), wk =   0.1111111
        k(   12) = (   0.0000000   0.3849002  -0.3192996), wk =   0.0555556
        k(   13) = (   0.0000000  -0.5773503   0.0000000), wk =   0.0277778
        k(   14) = (   0.0000000  -0.5773503   0.1064332), wk =   0.0555556
        k(   15) = (   0.0000000  -0.5773503   0.2128664), wk =   0.0555556
        k(   16) = (   0.0000000  -0.5773503  -0.3192996), wk =   0.0277778
        k(   17) = (   0.1666667   0.2886751   0.0000000), wk =   0.0555556
        k(   18) = (   0.1666667   0.2886751   0.1064332), wk =   0.1111111
        k(   19) = (   0.1666667   0.2886751   0.2128664), wk =   0.1111111
        k(   20) = (   0.1666667   0.2886751  -0.3192996), wk =   0.0555556
        k(   21) = (   0.1666667   0.4811252   0.0000000), wk =   0.1111111
        k(   22) = (   0.1666667   0.4811252   0.1064332), wk =   0.2222222
        k(   23) = (   0.1666667   0.4811252   0.2128664), wk =   0.2222222
        k(   24) = (   0.1666667   0.4811252  -0.3192996), wk =   0.1111111
        k(   25) = (   0.3333333   0.5773503   0.0000000), wk =   0.0185185
        k(   26) = (   0.3333333   0.5773503   0.1064332), wk =   0.0370370
        k(   27) = (   0.3333333   0.5773503   0.2128664), wk =   0.0370370
        k(   28) = (   0.3333333   0.5773503  -0.3192996), wk =   0.0185185

     Dense  grid:    40627 G-vectors     FFT dimensions: (  40,  40,  64)

     Smooth grid:    14437 G-vectors     FFT dimensions: (  27,  27,  48)

     Estimated max dynamical RAM per process >      23.86 MB

     Estimated total dynamical RAM >     190.91 MB

     Check: negative core charge=   -0.000002

     Initial potential from superposition of free atoms

     starting charge      35.9925, renormalised to      36.0000
     Starting wfcs are   26 randomized atomic wfcs

     total cpu time spent up to now is        1.5 secs

     Self-consistent Calculation

     iteration #  1     ecut=    50.00 Ry     beta= 0.30
     Davidson diagonalization with overlap
     ethr =  1.00E-02,  avg # of iterations =  2.0

     total cpu time spent up to now is        2.3 secs

     total energy              =    -361.47071651 Ry
     estimated scf accuracy    <       0.67837289 Ry

     iteration #  2     ecut=    50.00 Ry     beta= 0.30
     Davidson diagonalization with overlap
     ethr =  1.88E-03,  avg # of iterations =  2.0

     total cpu time spent up to now is        3.2 secs

     total energy              =    -361.54861735 Ry
     estimated scf accuracy    <       0.10389508 Ry

     iteration #  3     ecut=    50.00 Ry     beta= 0.30
     Davidson diagonalization with overlap
     ethr =  2.89E-04,  avg # of iterations =  5.9

     total cpu time spent up to now is        4.8 secs

     total energy              =    -361.58808839 Ry
     estimated scf accuracy    <       0.06802074 Ry

     iteration #  4     ecut=    50.00 Ry     beta= 0.30
     Davidson diagonalization with overlap
     ethr =  1.89E-04,  avg # of iterations =  7.1

     total cpu time spent up to now is        6.5 secs

     total energy              =    -361.64676635 Ry
     estimated scf accuracy    <       0.14441902 Ry

     iteration #  5     ecut=    50.00 Ry     beta= 0.30
     Davidson diagonalization with overlap
     ethr =  1.89E-04,  avg # of iterations =  1.0

     total cpu time spent up to now is        7.2 secs

     total energy              =    -361.58641382 Ry
     estimated scf accuracy    <       0.11541927 Ry

     iteration #  6     ecut=    50.00 Ry     beta= 0.30
     Davidson diagonalization with overlap
     ethr =  1.89E-04,  avg # of iterations =  4.6

     total cpu time spent up to now is        8.5 secs

     total energy              =    -361.61862751 Ry
     estimated scf accuracy    <       0.00338216 Ry

     iteration #  7     ecut=    50.00 Ry     beta= 0.30
     Davidson diagonalization with overlap
     ethr =  9.39E-06,  avg # of iterations =  4.2

     total cpu time spent up to now is        9.6 secs

     total energy              =    -361.61916970 Ry
     estimated scf accuracy    <       0.00277059 Ry

     iteration #  8     ecut=    50.00 Ry     beta= 0.30
     Davidson diagonalization with overlap
     ethr =  7.70E-06,  avg # of iterations =  1.5

     total cpu time spent up to now is       10.4 secs

     total energy              =    -361.62034654 Ry
     estimated scf accuracy    <       0.00155420 Ry

     iteration #  9     ecut=    50.00 Ry     beta= 0.30
     Davidson diagonalization with overlap
     ethr =  4.32E-06,  avg # of iterations =  2.8

     total cpu time spent up to now is       11.2 secs

     total energy              =    -361.61721908 Ry
     estimated scf accuracy    <       0.00405118 Ry

     iteration # 10     ecut=    50.00 Ry     beta= 0.30
     Davidson diagonalization with overlap
     ethr =  4.32E-06,  avg # of iterations =  9.0

     total cpu time spent up to now is       13.3 secs

     total energy              =    -361.62001066 Ry
     estimated scf accuracy    <       0.00851283 Ry

     iteration # 11     ecut=    50.00 Ry     beta= 0.30
     Davidson diagonalization with overlap
     ethr =  4.32E-06,  avg # of iterations =  1.4

     total cpu time spent up to now is       14.1 secs

     total energy              =    -361.61940932 Ry
     estimated scf accuracy    <       0.00589033 Ry

     iteration # 12     ecut=    50.00 Ry     beta= 0.30
     Davidson diagonalization with overlap
     ethr =  4.32E-06,  avg # of iterations =  2.0

     total cpu time spent up to now is       15.0 secs

     total energy              =    -361.61961492 Ry
     estimated scf accuracy    <       0.00312538 Ry

     iteration # 13     ecut=    50.00 Ry     beta= 0.30
     Davidson diagonalization with overlap
     ethr =  4.32E-06,  avg # of iterations =  1.0

     total cpu time spent up to now is       15.7 secs

     total energy              =    -361.61905251 Ry
     estimated scf accuracy    <       0.00289266 Ry

     iteration # 14     ecut=    50.00 Ry     beta= 0.30
     Davidson diagonalization with overlap
     ethr =  4.32E-06,  avg # of iterations =  1.4

     total cpu time spent up to now is       16.5 secs

     total energy              =    -361.61848682 Ry
     estimated scf accuracy    <       0.00162871 Ry

     iteration # 15     ecut=    50.00 Ry     beta= 0.30
     Davidson diagonalization with overlap
     ethr =  4.32E-06,  avg # of iterations =  3.8

     total cpu time spent up to now is       17.6 secs

     total energy              =    -361.61899154 Ry
     estimated scf accuracy    <       0.00000233 Ry

     iteration # 16     ecut=    50.00 Ry     beta= 0.30
     Davidson diagonalization with overlap
     ethr =  6.49E-09,  avg # of iterations = 11.4

     total cpu time spent up to now is       20.2 secs

     total energy              =    -361.61904961 Ry
     estimated scf accuracy    <       0.00000204 Ry

     iteration # 17     ecut=    50.00 Ry     beta= 0.30
     Davidson diagonalization with overlap
     ethr =  5.67E-09,  avg # of iterations =  1.1

     total cpu time spent up to now is       21.0 secs

     total energy              =    -361.61905033 Ry
     estimated scf accuracy    <       0.00000176 Ry

     iteration # 18     ecut=    50.00 Ry     beta= 0.30
     Davidson diagonalization with overlap
     ethr =  4.88E-09,  avg # of iterations =  2.1

     total cpu time spent up to now is       21.8 secs

     total energy              =    -361.61904962 Ry
     estimated scf accuracy    <       0.00000321 Ry

     iteration # 19     ecut=    50.00 Ry     beta= 0.30
     Davidson diagonalization with overlap
     ethr =  4.88E-09,  avg # of iterations =  1.0

     total cpu time spent up to now is       22.6 secs

     total energy              =    -361.61904959 Ry
     estimated scf accuracy    <       0.00000182 Ry

     iteration # 20     ecut=    50.00 Ry     beta= 0.30
     Davidson diagonalization with overlap
     ethr =  4.88E-09,  avg # of iterations =  1.0

     total cpu time spent up to now is       23.3 secs

     total energy              =    -361.61904927 Ry
     estimated scf accuracy    <       0.00000169 Ry

     iteration # 21     ecut=    50.00 Ry     beta= 0.30
     Davidson diagonalization with overlap
     ethr =  4.68E-09,  avg # of iterations =  1.0

     total cpu time spent up to now is       24.1 secs

     total energy              =    -361.61904864 Ry
     estimated scf accuracy    <       0.00000092 Ry

     iteration # 22     ecut=    50.00 Ry     beta= 0.30
     Davidson diagonalization with overlap
     ethr =  2.56E-09,  avg # of iterations =  6.7

     total cpu time spent up to now is       25.7 secs

     total energy              =    -361.61904911 Ry
     estimated scf accuracy    <       0.00000148 Ry

     iteration # 23     ecut=    50.00 Ry     beta= 0.30
     Davidson diagonalization with overlap
     ethr =  2.56E-09,  avg # of iterations =  2.0

     total cpu time spent up to now is       26.5 secs

     total energy              =    -361.61904881 Ry
     estimated scf accuracy    <       0.00000048 Ry

     iteration # 24     ecut=    50.00 Ry     beta= 0.30
     Davidson diagonalization with overlap
     ethr =  1.32E-09,  avg # of iterations =  7.5

     total cpu time spent up to now is       28.3 secs

     total energy              =    -361.61904913 Ry
     estimated scf accuracy    <       0.00000163 Ry

     iteration # 25     ecut=    50.00 Ry     beta= 0.30
     Davidson diagonalization with overlap
     ethr =  1.32E-09,  avg # of iterations =  2.5

     total cpu time spent up to now is       29.2 secs

     total energy              =    -361.61904914 Ry
     estimated scf accuracy    <       0.00000057 Ry

     iteration # 26     ecut=    50.00 Ry     beta= 0.30
     Davidson diagonalization with overlap
     ethr =  1.32E-09,  avg # of iterations =  2.8

     total cpu time spent up to now is       30.1 secs

     total energy              =    -361.61904917 Ry
     estimated scf accuracy    <       0.00000021 Ry

     iteration # 27     ecut=    50.00 Ry     beta= 0.30
     Davidson diagonalization with overlap
     ethr =  5.92E-10,  avg # of iterations =  4.6

     total cpu time spent up to now is       31.2 secs

     total energy              =    -361.61904923 Ry
     estimated scf accuracy    <       0.00000002 Ry

     iteration # 28     ecut=    50.00 Ry     beta= 0.30
     Davidson diagonalization with overlap
     ethr =  4.51E-11,  avg # of iterations =  6.8

     total cpu time spent up to now is       32.8 secs

     End of self-consistent calculation

          k = 0.0000 0.0000 0.0000 (  1797 PWs)   bands (ev):

   -10.3535  -9.4763   2.1838   2.2726   2.2726   2.3095   2.5063   2.5063
     3.6350   3.6350   3.9031   3.9031   4.1753   7.3150   7.3150   8.2254
     8.2644   8.2644

          k = 0.0000 0.0000 0.1064 (  1791 PWs)   bands (ev):

   -10.2979  -9.5382   2.0711   2.2384   2.2795   2.2795   2.4805   2.4805
     3.6609   3.6609   3.8946   3.8946   4.5051   7.3800   7.3800   7.6876
     8.2028   8.2028

          k = 0.0000 0.0000 0.2129 (  1798 PWs)   bands (ev):

   -10.1437  -9.7051   1.9331   2.0770   2.3040   2.3040   2.4186   2.4186
     3.7262   3.7262   3.8625   3.8625   5.2413   6.9048   7.5570   7.5570
     8.0326   8.0326

          k = 0.0000 0.0000-0.3193 (  1822 PWs)   bands (ev):

    -9.9276  -9.9276   1.9400   1.9400   2.3522   2.3522   2.3522   2.3522
     3.8023   3.8023   3.8023   3.8023   6.0834   6.0834   7.7965   7.7965
     7.7965   7.7965

          k = 0.0000 0.1925 0.0000 (  1798 PWs)   bands (ev):

   -10.1916  -9.4149   2.0783   2.3576   2.3676   2.3945   2.5610   2.6376
     3.5664   3.6350   3.9195   3.9679   4.1817   6.4035   6.9349   7.1667
     8.0143   8.0671

          k = 0.0000 0.1925 0.1064 (  1792 PWs)   bands (ev):

   -10.1412  -9.4683   2.0291   2.1741   2.3677   2.3973   2.5438   2.6085
     3.6074   3.6594   3.9065   3.9444   4.5513   6.4795   6.9959   7.0143
     7.9483   7.9943

          k = 0.0000 0.1925 0.2129 (  1783 PWs)   bands (ev):

   -10.0022  -9.6134   1.9037   1.9539   2.3924   2.4012   2.4865   2.5383
     3.7008   3.7224   3.8658   3.8919   5.2899   6.4996   6.8320   7.2283
     7.6583   7.7936

          k = 0.0000 0.1925-0.3193 (  1790 PWs)   bands (ev):

    -9.8094  -9.8094   1.8554   1.8554   2.4255   2.4255   2.4608   2.4608
     3.7992   3.7992   3.8061   3.8061   5.9976   5.9976   7.2052   7.2052
     7.5142   7.5142

          k = 0.0000 0.3849 0.0000 (  1798 PWs)   bands (ev):

    -9.8234  -9.3183   1.8777   2.2814   2.4931   2.6488   2.9644   3.0124
     3.5358   3.7255   3.9443   3.9736   4.3618   4.9893   5.9602   6.1479
     7.4095   7.6300

          k = 0.0000 0.3849 0.1064 (  1801 PWs)   bands (ev):

    -9.7880  -9.3501   1.8299   2.1362   2.5156   2.6214   2.8730   2.9205
     3.5898   3.7390   3.9261   4.0206   4.5816   5.1594   5.9032   6.2607
     7.4537   7.5384

          k = 0.0000 0.3849 0.2129 (  1797 PWs)   bands (ev):

    -9.6921  -9.4387   1.7365   1.8674   2.5821   2.6027   2.7256   2.8124
     3.7136   3.7758   3.8814   3.9623   4.9085   5.3484   6.1680   6.5534
     7.2849   7.3532

          k = 0.0000 0.3849-0.3193 (  1802 PWs)   bands (ev):

    -9.5636  -9.5636   1.7195   1.7195   2.6372   2.6372   2.6870   2.6870
     3.8269   3.8269   3.8484   3.8484   5.1666   5.1666   6.8695   6.8695
     6.9283   6.9283

          k = 0.0000-0.5774 0.0000 (  1810 PWs)   bands (ev):

    -9.5849  -9.3146   1.9542   2.1276   2.5369   2.8338   2.9763   3.1794
     3.6746   3.8412   3.9586   4.0308   4.5373   4.5805   5.2769   5.6978
     6.9279   7.3880

          k = 0.0000-0.5774 0.1064 (  1818 PWs)   bands (ev):

    -9.5635  -9.3290   1.8862   2.0029   2.5677   2.7995   2.9330   3.1189
     3.7550   3.8446   3.9375   4.0305   4.4762   4.5537   5.6117   5.8375
     7.0380   7.2875

          k = 0.0000-0.5774 0.2129 (  1794 PWs)   bands (ev):

    -9.5070  -9.3712   1.7485   1.7840   2.6586   2.7749   2.8525   2.9711
     3.8554   3.8828   3.9014   4.0183   4.4339   4.4992   6.1854   6.2873
     7.0086   7.1411

          k = 0.0000-0.5774-0.3193 (  1796 PWs)   bands (ev):

    -9.4355  -9.4355   1.6837   1.6837   2.7936   2.7936   2.8008   2.8008
     3.8734   3.8734   3.9733   3.9733   4.4504   4.4504   6.6122   6.6122
     6.8928   6.8928

          k = 0.1667 0.2887 0.0000 (  1801 PWs)   bands (ev):

    -9.9247  -9.3365   2.0027   2.2392   2.4991   2.5524   2.8823   2.8940
     3.5094   3.6586   3.9362   3.9912   4.3342   5.5588   5.8640   6.4457
     7.5905   7.6209

          k = 0.1667 0.2887 0.1064 (  1797 PWs)   bands (ev):

    -9.8846  -9.3747   1.9497   2.1393   2.4837   2.5142   2.7595   2.8441
     3.5643   3.7049   3.9203   4.0123   4.6433   5.7027   5.8903   6.4042
     7.4939   7.6341

          k = 0.1667 0.2887 0.2129 (  1798 PWs)   bands (ev):

    -9.7753  -9.4803   1.8382   1.9074   2.4738   2.4983   2.6619   2.7544
     3.6897   3.7594   3.8790   3.9505   5.1729   5.7926   6.1984   6.5248
     7.2336   7.4662

          k = 0.1667 0.2887-0.3193 (  1796 PWs)   bands (ev):

    -9.6268  -9.6268   1.7911   1.7911   2.4905   2.4905   2.6696   2.6696
     3.8057   3.8057   3.8467   3.8467   5.5352   5.5352   6.7934   6.7934
     6.9980   6.9980

          k = 0.1667 0.4811 0.0000 (  1799 PWs)   bands (ev):

    -9.5946  -9.3090   2.0635   2.3174   2.5230   2.7214   3.0876   3.2035
     3.6146   3.6743   3.9674   4.1048   4.2913   4.8933   5.1887   5.5711
     6.8818   7.0963

          k = 0.1667 0.4811 0.1064 (  1798 PWs)   bands (ev):

    -9.5722  -9.3245   2.0052   2.2015   2.5030   2.6979   2.9975   3.1045
     3.6266   3.7809   3.9593   4.1613   4.3062   4.9607   5.2712   5.7911
     6.8749   7.0989

          k = 0.1667 0.4811 0.2129 (  1800 PWs)   bands (ev):

    -9.5132  -9.3697   1.8783   1.9605   2.5278   2.6601   2.8944   2.9563
     3.7249   3.8164   3.9699   4.1108   4.4866   4.8633   5.6427   6.3251
     6.6292   7.1813

          k = 0.1667 0.4811-0.3193 (  1798 PWs)   bands (ev):

    -9.4380  -9.4380   1.8310   1.8310   2.6020   2.6020   2.8716   2.8716
     3.7960   3.7960   4.0265   4.0265   4.6874   4.6874   6.1038   6.1038
     6.9684   6.9684

          k = 0.3333 0.5774 0.0000 (  1779 PWs)   bands (ev):

    -9.3926  -9.3926   2.1957   2.5602   2.5602   2.9711   3.2864   3.2864
     3.5520   3.7189   3.7189   3.7316   4.2829   4.7042   4.7042   6.2365
     6.2365   6.4809

          k = 0.3333 0.5774 0.1064 (  1815 PWs)   bands (ev):

    -9.3884  -9.3884   2.2232   2.4283   2.4283   2.8584   3.1677   3.1677
     3.5741   3.7212   3.9088   3.9088   4.4643   4.6554   4.6554   6.3339
     6.4351   6.4351

          k = 0.3333 0.5774 0.2129 (  1797 PWs)   bands (ev):

    -9.3801  -9.3801   2.1852   2.1852   2.3084   2.6457   3.0791   3.0791
     3.6135   3.6942   4.1452   4.1452   4.5581   4.5581   4.8962   5.9449
     6.8185   6.8185

          k = 0.3333 0.5774-0.3193 (  1818 PWs)   bands (ev):

    -9.3759  -9.3759   2.0757   2.0757   2.4508   2.4508   3.0550   3.0550
     3.6555   3.6555   4.2561   4.2561   4.4922   4.4922   5.4269   5.4269
     7.0067   7.0067

     highest occupied level (ev):     8.2644

!    total energy              =    -361.61904924 Ry
     estimated scf accuracy    <          9.6E-09 Ry

     The total energy is the sum of the following terms:
     one-electron contribution =    -144.14282383 Ry
     hartree contribution      =     114.67518359 Ry
     xc contribution           =    -109.74458448 Ry
     ewald contribution        =    -222.40682451 Ry

     convergence has been achieved in  28 iterations

     Forces acting on atoms (cartesian axes, Ry/au):

     atom    1 type  1   force =     0.00000000    0.00000000   -0.01654197
     atom    2 type  1   force =     0.00000000    0.00000000   -0.01654197
     atom    3 type  2   force =     0.00000000    0.00000000    0.01654197
     atom    4 type  2   force =     0.00000000    0.00000000    0.01654197
     The non-local contrib.  to forces
     atom    1 type  1   force =     0.00000000   -0.00000000   -0.09690810
     atom    2 type  1   force =    -0.00000000    0.00000000   -0.09690810
     atom    3 type  2   force =     0.00000000    0.00000000   -0.06513503
     atom    4 type  2   force =     0.00000000    0.00000000   -0.06513503
     The ionic contribution  to forces
     atom    1 type  1   force =    -0.00000000    0.00000000   -0.59990699
     atom    2 type  1   force =     0.00000000   -0.00000000   -0.59990699
     atom    3 type  2   force =    -0.00000000    0.00000000    0.59990699
     atom    4 type  2   force =     0.00000000   -0.00000000    0.59990699
     The local contribution  to forces
     atom    1 type  1   force =    -0.00000002    0.00000001    0.67232565
     atom    2 type  1   force =     0.00000006   -0.00000004    0.67232566
     atom    3 type  2   force =    -0.00000001    0.00000000   -0.51864862
     atom    4 type  2   force =     0.00000002   -0.00000001   -0.51864864
     The core correction contribution to forces
     atom    1 type  1   force =    -0.00000000    0.00000000    0.00793041
     atom    2 type  1   force =     0.00000001   -0.00000000    0.00793041
     atom    3 type  2   force =     0.00000000   -0.00000000    0.00044238
     atom    4 type  2   force =    -0.00000000    0.00000000    0.00044238
     The Hubbard contrib.    to forces
     atom    1 type  1   force =     0.00000000    0.00000000    0.00000000
     atom    2 type  1   force =     0.00000000    0.00000000    0.00000000
     atom    3 type  2   force =     0.00000000    0.00000000    0.00000000
     atom    4 type  2   force =     0.00000000    0.00000000    0.00000000
     The SCF correction term to forces
     atom    1 type  1   force =    -0.00000000    0.00000000    0.00002709
     atom    2 type  1   force =     0.00000000   -0.00000000    0.00002709
     atom    3 type  2   force =    -0.00000000    0.00000000   -0.00001370
     atom    4 type  2   force =     0.00000000   -0.00000000   -0.00001370

     Total force =     0.033084     Total SCF correction =     0.000043


     Computing stress (Cartesian axis) and pressure

          total   stress  (Ry/bohr**3)                   (kbar)     P=      149.96
   0.00081393   0.00000000   0.00000000          119.73        0.00        0.00
   0.00000000   0.00081393   0.00000000            0.00      119.73        0.00
   0.00000000   0.00000000   0.00143034            0.00        0.00      210.41


     Writing all to output data dir ./ZnO_ANN.save/

     init_run     :      1.72s CPU      1.14s WALL (       1 calls)
     electrons    :     82.94s CPU     31.31s WALL (       1 calls)
     forces       :      0.59s CPU      0.29s WALL (       1 calls)
     stress       :      2.12s CPU      1.03s WALL (       1 calls)

     Called by init_run:
     wfcinit      :      0.97s CPU      0.37s WALL (       1 calls)
     potinit      :      0.21s CPU      0.22s WALL (       1 calls)
     hinit0       :      0.43s CPU      0.44s WALL (       1 calls)

     Called by electrons:
     c_bands      :     67.10s CPU     25.01s WALL (      28 calls)
     sum_band     :     11.77s CPU      4.66s WALL (      28 calls)
     v_of_rho     :      0.91s CPU      0.39s WALL (      29 calls)
     newd         :      2.92s CPU      1.19s WALL (      29 calls)
     mix_rho      :      0.17s CPU      0.07s WALL (      28 calls)

     Called by c_bands:
     init_us_2    :      1.08s CPU      0.38s WALL (    1652 calls)
     init_us_2:cp :      1.06s CPU      0.37s WALL (    1652 calls)
     cegterg      :     64.62s CPU     24.09s WALL (     784 calls)

     Called by *egterg:
     cdiaghg      :     10.18s CPU      3.37s WALL (    3591 calls)
     h_psi        :     45.10s CPU     18.39s WALL (    3619 calls)
     s_psi        :      1.00s CPU      0.30s WALL (    3619 calls)
     g_psi        :      0.31s CPU      0.08s WALL (    2807 calls)

     Called by h_psi:
     h_psi:calbec :      1.53s CPU      0.55s WALL (    3619 calls)
     vloc_psi     :     42.21s CPU     17.40s WALL (    3619 calls)
     add_vuspsi   :      0.99s CPU      0.32s WALL (    3619 calls)

     General routines
     calbec       :      2.00s CPU      0.72s WALL (    4543 calls)
     fft          :      0.74s CPU      0.43s WALL (     400 calls)
     ffts         :      0.14s CPU      0.11s WALL (      57 calls)
     fftw         :     43.16s CPU     17.86s WALL (  104150 calls)
     interpolate  :      0.16s CPU      0.12s WALL (      29 calls)

     Parallel routines

     PWSCF        :   1m27.92s CPU     34.24s WALL


   This run was terminated on:  16:42:48  13Jun2025            

=------------------------------------------------------------------------------=
   JOB DONE.
=------------------------------------------------------------------------------=
Note: The following floating-point exceptions are signalling: IEEE_INVALID_FLAG
