Authorization required, but no authorization protocol specified

Authorization required, but no authorization protocol specified

Authorization required, but no authorization protocol specified

Authorization required, but no authorization protocol specified

Authorization required, but no authorization protocol specified

Authorization required, but no authorization protocol specified

Authorization required, but no authorization protocol specified

Authorization required, but no authorization protocol specified

Authorization required, but no authorization protocol specified

Authorization required, but no authorization protocol specified


     Program PWSCF v.7.2 starts on 13Jun2025 at 17:43: 3 

     This program is part of the open-source Quantum ESPRESSO suite
     for quantum simulation of materials; please cite
         "P. Giannozzi et al., J. Phys.:Condens. Matter 21 395502 (2009);
         "P. Giannozzi et al., J. Phys.:Condens. Matter 29 465901 (2017);
         "P. Giannozzi et al., J. Chem. Phys. 152 154105 (2020);
          URL http://www.quantum-espresso.org", 
     in publications or presentations arising from this work. More details at
     http://www.quantum-espresso.org/quote

     Parallel version (MPI), running on     8 processors

     MPI processes distributed on     1 nodes
     120722 MiB available memory on the printing compute node when the environment starts

     Reading input from /home/jvc/QEspresso7.2/ZnO_database_python/SCFs.in/scf-6.30-1.58.in

     Current dimensions of program PWSCF are:
     Max number of different atomic species (ntypx) = 10
     Max number of k-points (npk) =  40000
     Max angular momentum in pseudopotentials (lmaxx) =  4
     file Zn.upf: wavefunction(s)  3D renormalized

     R & G space division:  proc/nbgrp/npool/nimage =       8
     Subspace diagonalization in iterative solution of the eigenvalue problem:
     a serial algorithm will be used


     Parallelization info
     --------------------
     sticks:   dense  smooth     PW     G-vecs:    dense   smooth      PW
     Min         137      68     20                 5781     2040     344
     Max         138      69     21                 5783     2047     349
     Sum        1099     547    163                46257    16347    2767

     Using Slab Decomposition



     bravais-lattice index     =            4
     lattice parameter (alat)  =       6.3024  a.u.
     unit-cell volume          =     342.9842 (a.u.)^3
     number of atoms/cell      =            4
     number of atomic types    =            2
     number of electrons       =        36.00
     number of Kohn-Sham states=           18
     kinetic-energy cutoff     =      50.0000  Ry
     charge density cutoff     =     400.0000  Ry
     scf convergence threshold =      1.0E-08
     mixing beta               =       0.3000
     number of iterations used =            8  plain     mixing
     Exchange-correlation= PBE
                           (   1   4   3   4   0   0   0)

     celldm(1)=   6.302398  celldm(2)=   0.000000  celldm(3)=   1.582071
     celldm(4)=   0.000000  celldm(5)=   0.000000  celldm(6)=   0.000000

     crystal axes: (cart. coord. in units of alat)
               a(1) = (   1.000000   0.000000   0.000000 )  
               a(2) = (  -0.500000   0.866025   0.000000 )  
               a(3) = (   0.000000   0.000000   1.582071 )  

     reciprocal axes: (cart. coord. in units 2 pi/alat)
               b(1) = (  1.000000  0.577350 -0.000000 )  
               b(2) = (  0.000000  1.154701  0.000000 )  
               b(3) = (  0.000000 -0.000000  0.632083 )  


     PseudoPot. # 1 for Zn read from file:
     /home/jvc/QEspresso7.2/ZnO_database/pseudos/Zn.upf
     MD5 check sum: 7f56cabf9682ed8c977c2f7d0c5985c5
     Pseudo is Ultrasoft + core correction, Zval = 12.0
     Generated using &quot;atomic&quot; code by A. Dal Corso  v.6.2.2
     Using radial grid of 1201 points,  6 beta functions with: 
                l(1) =   0
                l(2) =   0
                l(3) =   1
                l(4) =   1
                l(5) =   2
                l(6) =   2
     Q(r) pseudized with 0 coefficients 


     PseudoPot. # 2 for O  read from file:
     /home/jvc/QEspresso7.2/ZnO_database/pseudos/O.upf
     MD5 check sum: 91400c9766925bcf19f520983a725ff0
     Pseudo is Ultrasoft + core correction, Zval =  6.0
     Generated using &quot;atomic&quot; code by A. Dal Corso  v.6.3MaX
     Using radial grid of 1095 points,  4 beta functions with: 
                l(1) =   0
                l(2) =   0
                l(3) =   1
                l(4) =   1
     Q(r) pseudized with 0 coefficients 


     atomic species   valence    mass     pseudopotential
        Zn            12.00    63.38000     Zn( 1.00)
        O              6.00    15.99900     O ( 1.00)

     12 Sym. Ops. (no inversion) found ( 6 have fractional translation)



   Cartesian axes

     site n.     atom                  positions (alat units)
         1           Zn  tau(   1) = (   0.5000000   0.2886751   0.7920380  )
         2           Zn  tau(   2) = (  -0.0000000   0.5773503   0.0010024  )
         3           O   tau(   3) = (   0.5000000   0.2886751   1.3917107  )
         4           O   tau(   4) = (  -0.0000000   0.5773503   0.6006751  )

     number of k points=    28
                       cart. coord. in units 2pi/alat
        k(    1) = (   0.0000000   0.0000000   0.0000000), wk =   0.0092593
        k(    2) = (   0.0000000   0.0000000   0.1053471), wk =   0.0185185
        k(    3) = (   0.0000000   0.0000000   0.2106943), wk =   0.0185185
        k(    4) = (   0.0000000   0.0000000  -0.3160414), wk =   0.0092593
        k(    5) = (   0.0000000   0.1924501   0.0000000), wk =   0.0555556
        k(    6) = (   0.0000000   0.1924501   0.1053471), wk =   0.1111111
        k(    7) = (   0.0000000   0.1924501   0.2106943), wk =   0.1111111
        k(    8) = (   0.0000000   0.1924501  -0.3160414), wk =   0.0555556
        k(    9) = (   0.0000000   0.3849002   0.0000000), wk =   0.0555556
        k(   10) = (   0.0000000   0.3849002   0.1053471), wk =   0.1111111
        k(   11) = (   0.0000000   0.3849002   0.2106943), wk =   0.1111111
        k(   12) = (   0.0000000   0.3849002  -0.3160414), wk =   0.0555556
        k(   13) = (   0.0000000  -0.5773503   0.0000000), wk =   0.0277778
        k(   14) = (   0.0000000  -0.5773503   0.1053471), wk =   0.0555556
        k(   15) = (   0.0000000  -0.5773503   0.2106943), wk =   0.0555556
        k(   16) = (   0.0000000  -0.5773503  -0.3160414), wk =   0.0277778
        k(   17) = (   0.1666667   0.2886751   0.0000000), wk =   0.0555556
        k(   18) = (   0.1666667   0.2886751   0.1053471), wk =   0.1111111
        k(   19) = (   0.1666667   0.2886751   0.2106943), wk =   0.1111111
        k(   20) = (   0.1666667   0.2886751  -0.3160414), wk =   0.0555556
        k(   21) = (   0.1666667   0.4811252   0.0000000), wk =   0.1111111
        k(   22) = (   0.1666667   0.4811252   0.1053471), wk =   0.2222222
        k(   23) = (   0.1666667   0.4811252   0.2106943), wk =   0.2222222
        k(   24) = (   0.1666667   0.4811252  -0.3160414), wk =   0.1111111
        k(   25) = (   0.3333333   0.5773503   0.0000000), wk =   0.0185185
        k(   26) = (   0.3333333   0.5773503   0.1053471), wk =   0.0370370
        k(   27) = (   0.3333333   0.5773503   0.2106943), wk =   0.0370370
        k(   28) = (   0.3333333   0.5773503  -0.3160414), wk =   0.0185185

     Dense  grid:    46257 G-vectors     FFT dimensions: (  45,  45,  64)

     Smooth grid:    16347 G-vectors     FFT dimensions: (  30,  30,  48)

     Estimated max dynamical RAM per process >      26.85 MB

     Estimated total dynamical RAM >     214.84 MB

     Check: negative core charge=   -0.000002

     Initial potential from superposition of free atoms

     starting charge      35.9925, renormalised to      36.0000
     Starting wfcs are   26 randomized atomic wfcs

     total cpu time spent up to now is        1.5 secs

     Self-consistent Calculation

     iteration #  1     ecut=    50.00 Ry     beta= 0.30
     Davidson diagonalization with overlap
     ethr =  1.00E-02,  avg # of iterations =  1.8

     total cpu time spent up to now is        2.4 secs

     total energy              =    -361.47212161 Ry
     estimated scf accuracy    <       0.70791898 Ry

     iteration #  2     ecut=    50.00 Ry     beta= 0.30
     Davidson diagonalization with overlap
     ethr =  1.97E-03,  avg # of iterations =  2.0

     total cpu time spent up to now is        3.4 secs

     total energy              =    -361.57792447 Ry
     estimated scf accuracy    <       0.08540088 Ry

     iteration #  3     ecut=    50.00 Ry     beta= 0.30
     Davidson diagonalization with overlap
     ethr =  2.37E-04,  avg # of iterations =  6.5

     total cpu time spent up to now is        5.1 secs

     total energy              =    -361.60517585 Ry
     estimated scf accuracy    <       0.06441823 Ry

     iteration #  4     ecut=    50.00 Ry     beta= 0.30
     Davidson diagonalization with overlap
     ethr =  1.79E-04,  avg # of iterations =  8.7

     total cpu time spent up to now is        7.1 secs

     total energy              =    -361.65567643 Ry
     estimated scf accuracy    <       0.32302057 Ry

     iteration #  5     ecut=    50.00 Ry     beta= 0.30
     Davidson diagonalization with overlap
     ethr =  1.79E-04,  avg # of iterations =  2.0

     total cpu time spent up to now is        8.0 secs

     total energy              =    -361.67502736 Ry
     estimated scf accuracy    <       0.19873908 Ry

     iteration #  6     ecut=    50.00 Ry     beta= 0.30
     Davidson diagonalization with overlap
     ethr =  1.79E-04,  avg # of iterations =  1.0

     total cpu time spent up to now is        8.9 secs

     total energy              =    -361.51736388 Ry
     estimated scf accuracy    <       0.21251283 Ry

     iteration #  7     ecut=    50.00 Ry     beta= 0.30
     Davidson diagonalization with overlap
     ethr =  1.79E-04,  avg # of iterations =  8.8

     total cpu time spent up to now is       10.9 secs

     total energy              =    -361.62033130 Ry
     estimated scf accuracy    <       0.36827309 Ry

     iteration #  8     ecut=    50.00 Ry     beta= 0.30
     Davidson diagonalization with overlap
     ethr =  1.79E-04,  avg # of iterations =  4.9

     total cpu time spent up to now is       12.1 secs

     total energy              =    -361.64279276 Ry
     estimated scf accuracy    <       0.07635905 Ry

     iteration #  9     ecut=    50.00 Ry     beta= 0.30
     Davidson diagonalization with overlap
     ethr =  1.79E-04,  avg # of iterations =  1.4

     total cpu time spent up to now is       13.0 secs

     total energy              =    -361.64419521 Ry
     estimated scf accuracy    <       0.06961350 Ry

     iteration # 10     ecut=    50.00 Ry     beta= 0.30
     Davidson diagonalization with overlap
     ethr =  1.79E-04,  avg # of iterations =  1.4

     total cpu time spent up to now is       13.8 secs

     total energy              =    -361.63201570 Ry
     estimated scf accuracy    <       0.06259757 Ry

     iteration # 11     ecut=    50.00 Ry     beta= 0.30
     Davidson diagonalization with overlap
     ethr =  1.74E-04,  avg # of iterations =  1.3

     total cpu time spent up to now is       14.6 secs

     total energy              =    -361.63243635 Ry
     estimated scf accuracy    <       0.03595188 Ry

     iteration # 12     ecut=    50.00 Ry     beta= 0.30
     Davidson diagonalization with overlap
     ethr =  9.99E-05,  avg # of iterations =  2.1

     total cpu time spent up to now is       15.5 secs

     total energy              =    -361.63106193 Ry
     estimated scf accuracy    <       0.02262764 Ry

     iteration # 13     ecut=    50.00 Ry     beta= 0.30
     Davidson diagonalization with overlap
     ethr =  6.29E-05,  avg # of iterations =  2.8

     total cpu time spent up to now is       16.5 secs

     total energy              =    -361.63072987 Ry
     estimated scf accuracy    <       0.00935118 Ry

     iteration # 14     ecut=    50.00 Ry     beta= 0.30
     Davidson diagonalization with overlap
     ethr =  2.60E-05,  avg # of iterations =  5.1

     total cpu time spent up to now is       17.7 secs

     total energy              =    -361.63495384 Ry
     estimated scf accuracy    <       0.00006267 Ry

     iteration # 15     ecut=    50.00 Ry     beta= 0.30
     Davidson diagonalization with overlap
     ethr =  1.74E-07,  avg # of iterations =  8.4

     total cpu time spent up to now is       19.6 secs

     total energy              =    -361.63517701 Ry
     estimated scf accuracy    <       0.00016396 Ry

     iteration # 16     ecut=    50.00 Ry     beta= 0.30
     Davidson diagonalization with overlap
     ethr =  1.74E-07,  avg # of iterations =  1.2

     total cpu time spent up to now is       20.5 secs

     total energy              =    -361.63520684 Ry
     estimated scf accuracy    <       0.00015697 Ry

     iteration # 17     ecut=    50.00 Ry     beta= 0.30
     Davidson diagonalization with overlap
     ethr =  1.74E-07,  avg # of iterations =  9.5

     total cpu time spent up to now is       22.7 secs

     total energy              =    -361.63532585 Ry
     estimated scf accuracy    <       0.00080313 Ry

     iteration # 18     ecut=    50.00 Ry     beta= 0.30
     Davidson diagonalization with overlap
     ethr =  1.74E-07,  avg # of iterations =  1.7

     total cpu time spent up to now is       23.6 secs

     total energy              =    -361.63579519 Ry
     estimated scf accuracy    <       0.00061008 Ry

     iteration # 19     ecut=    50.00 Ry     beta= 0.30
     Davidson diagonalization with overlap
     ethr =  1.74E-07,  avg # of iterations =  8.5

     total cpu time spent up to now is       25.6 secs

     total energy              =    -361.63556825 Ry
     estimated scf accuracy    <       0.00280574 Ry

     iteration # 20     ecut=    50.00 Ry     beta= 0.30
     Davidson diagonalization with overlap
     ethr =  1.74E-07,  avg # of iterations =  4.2

     total cpu time spent up to now is       26.9 secs

     total energy              =    -361.63534225 Ry
     estimated scf accuracy    <       0.00168835 Ry

     iteration # 21     ecut=    50.00 Ry     beta= 0.30
     Davidson diagonalization with overlap
     ethr =  1.74E-07,  avg # of iterations =  6.0

     total cpu time spent up to now is       28.4 secs

     total energy              =    -361.63506682 Ry
     estimated scf accuracy    <       0.00076980 Ry

     iteration # 22     ecut=    50.00 Ry     beta= 0.30
     Davidson diagonalization with overlap
     ethr =  1.74E-07,  avg # of iterations =  8.9

     total cpu time spent up to now is       30.5 secs

     total energy              =    -361.63520973 Ry
     estimated scf accuracy    <       0.00000178 Ry

     iteration # 23     ecut=    50.00 Ry     beta= 0.30
     Davidson diagonalization with overlap
     ethr =  4.95E-09,  avg # of iterations = 11.5

     total cpu time spent up to now is       33.1 secs

     total energy              =    -361.63520951 Ry
     estimated scf accuracy    <       0.00006773 Ry

     iteration # 24     ecut=    50.00 Ry     beta= 0.30
     Davidson diagonalization with overlap
     ethr =  4.95E-09,  avg # of iterations =  7.7

     total cpu time spent up to now is       35.1 secs

     total energy              =    -361.63520842 Ry
     estimated scf accuracy    <       0.00001673 Ry

     iteration # 25     ecut=    50.00 Ry     beta= 0.30
     Davidson diagonalization with overlap
     ethr =  4.95E-09,  avg # of iterations =  5.6

     total cpu time spent up to now is       36.5 secs

     total energy              =    -361.63520938 Ry
     estimated scf accuracy    <       0.00000311 Ry

     iteration # 26     ecut=    50.00 Ry     beta= 0.30
     Davidson diagonalization with overlap
     ethr =  4.95E-09,  avg # of iterations =  1.1

     total cpu time spent up to now is       37.3 secs

     total energy              =    -361.63520792 Ry
     estimated scf accuracy    <       0.00000259 Ry

     iteration # 27     ecut=    50.00 Ry     beta= 0.30
     Davidson diagonalization with overlap
     ethr =  4.95E-09,  avg # of iterations =  5.5

     total cpu time spent up to now is       38.8 secs

     total energy              =    -361.63520889 Ry
     estimated scf accuracy    <       0.00000066 Ry

     iteration # 28     ecut=    50.00 Ry     beta= 0.30
     Davidson diagonalization with overlap
     ethr =  1.84E-09,  avg # of iterations =  2.1

     total cpu time spent up to now is       39.7 secs

     total energy              =    -361.63520878 Ry
     estimated scf accuracy    <       0.00000022 Ry

     iteration # 29     ecut=    50.00 Ry     beta= 0.30
     Davidson diagonalization with overlap
     ethr =  6.22E-10,  avg # of iterations =  6.3

     total cpu time spent up to now is       41.4 secs

     total energy              =    -361.63520895 Ry
     estimated scf accuracy    <       0.00000031 Ry

     iteration # 30     ecut=    50.00 Ry     beta= 0.30
     Davidson diagonalization with overlap
     ethr =  6.22E-10,  avg # of iterations =  1.1

     total cpu time spent up to now is       42.2 secs

     total energy              =    -361.63520898 Ry
     estimated scf accuracy    <       0.00000014 Ry

     iteration # 31     ecut=    50.00 Ry     beta= 0.30
     Davidson diagonalization with overlap
     ethr =  3.94E-10,  avg # of iterations =  1.0

     total cpu time spent up to now is       43.0 secs

     total energy              =    -361.63520889 Ry
     estimated scf accuracy    <       0.00000018 Ry

     iteration # 32     ecut=    50.00 Ry     beta= 0.30
     Davidson diagonalization with overlap
     ethr =  3.94E-10,  avg # of iterations =  4.5

     total cpu time spent up to now is       44.3 secs

     total energy              =    -361.63520900 Ry
     estimated scf accuracy    <       0.00000002 Ry

     iteration # 33     ecut=    50.00 Ry     beta= 0.30
     Davidson diagonalization with overlap
     ethr =  6.34E-11,  avg # of iterations =  7.8

     total cpu time spent up to now is       46.2 secs

     total energy              =    -361.63520895 Ry
     estimated scf accuracy    <       0.00000036 Ry

     iteration # 34     ecut=    50.00 Ry     beta= 0.30
     Davidson diagonalization with overlap
     ethr =  6.34E-11,  avg # of iterations =  5.8

     total cpu time spent up to now is       47.8 secs

     total energy              =    -361.63520894 Ry
     estimated scf accuracy    <       0.00000008 Ry

     iteration # 35     ecut=    50.00 Ry     beta= 0.30
     Davidson diagonalization with overlap
     ethr =  6.34E-11,  avg # of iterations =  5.0

     total cpu time spent up to now is       49.1 secs

     End of self-consistent calculation

          k = 0.0000 0.0000 0.0000 (  2033 PWs)   bands (ev):

   -11.2640 -10.6109   0.9327   0.9327   0.9574   1.1158   1.1158   1.2048
     1.9159   1.9159   2.1076   2.1076   2.3443   5.5428   5.5428   6.2797
     6.3083   6.3083

          k = 0.0000 0.0000 0.1053 (  2021 PWs)   bands (ev):

   -11.2221 -10.6565   0.9146   0.9387   0.9387   1.0333   1.0963   1.0963
     1.9341   1.9341   2.1006   2.1006   2.6927   5.5955   5.5955   5.7096
     6.2586   6.2586

          k = 0.0000 0.0000 0.2107 (  2050 PWs)   bands (ev):

   -11.1063 -10.7798   0.8209   0.8266   0.9591   0.9591   1.0491   1.0491
     1.9797   1.9797   2.0765   2.0765   3.3905   4.9414   5.7385   5.7385
     6.1216   6.1216

          k = 0.0000 0.0000-0.3160 (  2062 PWs)   bands (ev):

   -10.9449 -10.9449   0.7634   0.7634   0.9976   0.9976   0.9976   0.9976
     2.0334   2.0334   2.0334   2.0334   4.1667   4.1667   5.9316   5.9316
     5.9316   5.9316

          k = 0.0000 0.1925 0.0000 (  2050 PWs)   bands (ev):

   -11.1385 -10.5615   0.8181   1.0022   1.0235   1.1166   1.2240   1.3832
     1.8673   1.9156   2.1184   2.2463   2.3195   4.6864   5.2105   5.2230
     6.1022   6.1417

          k = 0.0000 0.1925 0.1053 (  2039 PWs)   bands (ev):

   -11.1008 -10.6010   0.7895   0.9803   1.0112   1.0670   1.2021   1.2350
     1.8966   1.9328   2.1088   2.1534   2.7634   4.7361   5.0673   5.2872
     6.0347   6.0823

          k = 0.0000 0.1925 0.2107 (  2037 PWs)   bands (ev):

   -10.9971 -10.7083   0.7239   0.7996   1.0393   1.0429   1.1301   1.1484
     1.9627   1.9769   2.0789   2.1025   3.4419   4.5700   5.0736   5.4601
     5.7843   5.9188

          k = 0.0000 0.1925-0.3160 (  2044 PWs)   bands (ev):

   -10.8536 -10.8536   0.7007   0.7007   1.0716   1.0716   1.0875   1.0875
     2.0313   2.0313   2.0381   2.0381   4.0763   4.0763   5.4084   5.4084
     5.6918   5.6918

          k = 0.0000 0.3849 0.0000 (  2034 PWs)   bands (ev):

   -10.8564 -10.4823   0.7141   1.0245   1.1128   1.3034   1.4852   1.6215
     1.8699   1.9830   2.1365   2.2985   2.6086   3.3370   4.1337   4.5712
     5.5865   5.7786

          k = 0.0000 0.3849 0.1053 (  2043 PWs)   bands (ev):

   -10.8304 -10.5062   0.6827   0.9441   1.1315   1.2769   1.4527   1.4813
     1.8952   1.9920   2.1233   2.2390   2.8518   3.4857   4.1181   4.6601
     5.6161   5.7024

          k = 0.0000 0.3849 0.2107 (  2051 PWs)   bands (ev):

   -10.7599 -10.5724   0.6242   0.7545   1.1868   1.2466   1.3353   1.3706
     1.9790   2.0170   2.0915   2.1641   3.1271   3.5458   4.4674   4.8942
     5.4924   5.5157

          k = 0.0000 0.3849-0.3160 (  2042 PWs)   bands (ev):

   -10.6651 -10.6651   0.6276   0.6276   1.2649   1.2649   1.2722   1.2722
     2.0530   2.0530   2.0761   2.0761   3.3574   3.3574   5.0917   5.0917
     5.1990   5.1990

          k = 0.0000-0.5774 0.0000 (  2040 PWs)   bands (ev):

   -10.6766 -10.4752   0.7691   1.0315   1.1475   1.4956   1.5222   1.6458
     1.9596   2.0662   2.1477   2.2083   2.7079   3.0261   3.6876   4.2140
     5.1522   5.5819

          k = 0.0000-0.5774 0.1053 (  2048 PWs)   bands (ev):

   -10.6612 -10.4865   0.7273   0.9233   1.1730   1.4755   1.4838   1.6032
     2.0194   2.0687   2.1338   2.2080   2.6687   2.9606   3.9796   4.3202
     5.2519   5.4978

          k = 0.0000-0.5774 0.2107 (  2050 PWs)   bands (ev):

   -10.6203 -10.5193   0.6457   0.7284   1.2475   1.4394   1.4403   1.4938
     2.0757   2.1082   2.1115   2.2012   2.6584   2.8329   4.5778   4.5929
     5.2654   5.3396

          k = 0.0000-0.5774-0.3160 (  2044 PWs)   bands (ev):

   -10.5677 -10.5677   0.6230   0.6230   1.3619   1.3619   1.4244   1.4244
     2.0884   2.0884   2.1733   2.1733   2.7207   2.7207   4.9385   4.9385
     5.1145   5.1145

          k = 0.1667 0.2887 0.0000 (  2033 PWs)   bands (ev):

   -10.9334 -10.4977   0.8017   0.9646   1.1211   1.1946   1.4250   1.6121
     1.8261   1.9375   2.1305   2.2971   2.5348   3.9446   4.0931   4.7069
     5.7296   5.7688

          k = 0.1667 0.2887 0.1053 (  2042 PWs)   bands (ev):

   -10.9038 -10.5262   0.7648   0.9287   1.1125   1.1681   1.3961   1.4167
     1.8663   1.9687   2.1188   2.2261   2.8906   4.0651   4.0923   4.7099
     5.6492   5.7726

          k = 0.1667 0.2887 0.2107 (  2062 PWs)   bands (ev):

   -10.8230 -10.6048   0.6917   0.7847   1.1121   1.1446   1.2664   1.3265
     1.9576   2.0051   2.0893   2.1537   3.3478   3.9184   4.5487   4.8459
     5.4328   5.6207

          k = 0.1667 0.2887-0.3160 (  2048 PWs)   bands (ev):

   -10.7134 -10.7134   0.6769   0.6769   1.1336   1.1336   1.2588   1.2588
     2.0380   2.0380   2.0722   2.0722   3.6727   3.6727   5.0646   5.0646
     5.2280   5.2280

          k = 0.1667 0.4811 0.0000 (  2057 PWs)   bands (ev):

   -10.6830 -10.4714   0.8561   1.0817   1.2152   1.3681   1.6169   1.6844
     1.9135   1.9653   2.1582   2.3316   2.6232   3.2038   3.6512   3.9596
     5.1355   5.3024

          k = 0.1667 0.4811 0.1053 (  2055 PWs)   bands (ev):

   -10.6670 -10.4835   0.8271   1.0254   1.1689   1.3536   1.5487   1.6063
     1.9195   2.0248   2.1550   2.3242   2.6581   3.2142   3.7504   4.1731
     5.1272   5.3089

          k = 0.1667 0.4811 0.2107 (  2056 PWs)   bands (ev):

   -10.6243 -10.5182   0.7548   0.8508   1.1792   1.3238   1.4558   1.4838
     1.9889   2.0485   2.1668   2.2758   2.7806   3.1027   4.0651   4.6600
     4.9017   5.3868

          k = 0.1667 0.4811-0.3160 (  2048 PWs)   bands (ev):

   -10.5693 -10.5693   0.7374   0.7374   1.2592   1.2592   1.4234   1.4234
     2.0366   2.0366   2.2127   2.2127   2.9406   2.9406   4.4611   4.4611
     5.2027   5.2027

          k = 0.3333 0.5774 0.0000 (  2067 PWs)   bands (ev):

   -10.5314 -10.5314   0.9093   1.2482   1.2482   1.6867   1.7990   1.7990
     1.8743   1.9820   2.0721   2.0721   2.7626   2.9381   2.9381   4.5534
     4.5534   4.7913

          k = 0.3333 0.5774 0.1053 (  2079 PWs)   bands (ev):

   -10.5290 -10.5290   0.9371   1.1671   1.1671   1.5681   1.7004   1.7004
     1.8873   1.9758   2.1891   2.1891   2.8933   2.8933   2.9460   4.6620
     4.7366   4.7366

          k = 0.3333 0.5774 0.2107 (  2055 PWs)   bands (ev):

   -10.5242 -10.5242   1.0037   1.0037   1.0215   1.3548   1.6198   1.6198
     1.9091   1.9586   2.3221   2.3221   2.8202   2.8202   3.3594   4.3165
     5.0814   5.0814

          k = 0.3333 0.5774-0.3160 (  2046 PWs)   bands (ev):

   -10.5218 -10.5218   0.9257   0.9257   1.1625   1.1625   1.5975   1.5975
     1.9345   1.9345   2.3732   2.3732   2.7876   2.7876   3.8490   3.8490
     5.2474   5.2474

     highest occupied level (ev):     6.3083

!    total energy              =    -361.63520895 Ry
     estimated scf accuracy    <          2.2E-09 Ry

     The total energy is the sum of the following terms:
     one-electron contribution =    -159.10755373 Ry
     hartree contribution      =     119.94079054 Ry
     xc contribution           =    -109.46869539 Ry
     ewald contribution        =    -212.99975037 Ry

     convergence has been achieved in  35 iterations

     Forces acting on atoms (cartesian axes, Ry/au):

     atom    1 type  1   force =    -0.00000000    0.00000000   -0.00513289
     atom    2 type  1   force =     0.00000000    0.00000000   -0.00513289
     atom    3 type  2   force =     0.00000000    0.00000000    0.00513289
     atom    4 type  2   force =     0.00000000    0.00000000    0.00513289
     The non-local contrib.  to forces
     atom    1 type  1   force =     0.00000000   -0.00000000   -0.06146290
     atom    2 type  1   force =     0.00000000    0.00000000   -0.06146290
     atom    3 type  2   force =     0.00000000    0.00000000   -0.04313860
     atom    4 type  2   force =    -0.00000000    0.00000000   -0.04313860
     The ionic contribution  to forces
     atom    1 type  1   force =    -0.00000000    0.00000000   -0.34432388
     atom    2 type  1   force =     0.00000000   -0.00000000   -0.34432388
     atom    3 type  2   force =    -0.00000000    0.00000000    0.34432388
     atom    4 type  2   force =     0.00000000   -0.00000000    0.34432388
     The local contribution  to forces
     atom    1 type  1   force =    -0.00000002    0.00000001    0.39620343
     atom    2 type  1   force =     0.00000007   -0.00000004    0.39620343
     atom    3 type  2   force =    -0.00000001    0.00000000   -0.29637665
     atom    4 type  2   force =     0.00000002   -0.00000001   -0.29637665
     The core correction contribution to forces
     atom    1 type  1   force =    -0.00000000    0.00000000    0.00444849
     atom    2 type  1   force =     0.00000001   -0.00000000    0.00444849
     atom    3 type  2   force =     0.00000000   -0.00000000    0.00032395
     atom    4 type  2   force =    -0.00000000    0.00000000    0.00032395
     The Hubbard contrib.    to forces
     atom    1 type  1   force =     0.00000000    0.00000000    0.00000000
     atom    2 type  1   force =     0.00000000    0.00000000    0.00000000
     atom    3 type  2   force =     0.00000000    0.00000000    0.00000000
     atom    4 type  2   force =     0.00000000    0.00000000    0.00000000
     The SCF correction term to forces
     atom    1 type  1   force =    -0.00000000    0.00000000   -0.00000004
     atom    2 type  1   force =     0.00000000   -0.00000000   -0.00000004
     atom    3 type  2   force =    -0.00000000    0.00000000   -0.00000169
     atom    4 type  2   force =     0.00000000   -0.00000000   -0.00000169

     Total force =     0.010266     Total SCF correction =     0.000002


     Computing stress (Cartesian axis) and pressure

          total   stress  (Ry/bohr**3)                   (kbar)     P=      -48.47
  -0.00041391  -0.00000000   0.00000000          -60.89       -0.00        0.00
  -0.00000000  -0.00041391   0.00000000           -0.00      -60.89        0.00
   0.00000000   0.00000000  -0.00016062            0.00        0.00      -23.63


     Writing all to output data dir ./ZnO_ANN.save/

     init_run     :      1.84s CPU      1.19s WALL (       1 calls)
     electrons    :    127.41s CPU     47.63s WALL (       1 calls)
     forces       :      0.69s CPU      0.33s WALL (       1 calls)
     stress       :      2.40s CPU      1.20s WALL (       1 calls)

     Called by init_run:
     wfcinit      :      1.06s CPU      0.40s WALL (       1 calls)
     potinit      :      0.27s CPU      0.27s WALL (       1 calls)
     hinit0       :      0.39s CPU      0.39s WALL (       1 calls)

     Called by electrons:
     c_bands      :    104.99s CPU     38.81s WALL (      35 calls)
     sum_band     :     16.53s CPU      6.41s WALL (      35 calls)
     v_of_rho     :      1.36s CPU      0.60s WALL (      36 calls)
     newd         :      4.20s CPU      1.71s WALL (      36 calls)
     mix_rho      :      0.22s CPU      0.10s WALL (      35 calls)

     Called by c_bands:
     init_us_2    :      1.45s CPU      0.51s WALL (    2044 calls)
     init_us_2:cp :      1.42s CPU      0.51s WALL (    2044 calls)
     cegterg      :    101.68s CPU     37.54s WALL (     980 calls)

     Called by *egterg:
     cdiaghg      :     16.26s CPU      5.33s WALL (    5549 calls)
     h_psi        :     69.46s CPU     28.16s WALL (    5577 calls)
     s_psi        :      1.57s CPU      0.46s WALL (    5577 calls)
     g_psi        :      0.53s CPU      0.14s WALL (    4569 calls)

     Called by h_psi:
     h_psi:calbec :      2.39s CPU      0.86s WALL (    5577 calls)
     vloc_psi     :     64.92s CPU     26.62s WALL (    5577 calls)
     add_vuspsi   :      1.55s CPU      0.50s WALL (    5577 calls)

     General routines
     calbec       :      3.04s CPU      1.08s WALL (    6697 calls)
     fft          :      0.91s CPU      0.47s WALL (     491 calls)
     ffts         :      0.18s CPU      0.15s WALL (      71 calls)
     fftw         :     64.47s CPU     26.47s WALL (  147510 calls)
     interpolate  :      0.22s CPU      0.17s WALL (      36 calls)

     Parallel routines

     PWSCF        :   2m12.86s CPU     50.83s WALL


   This run was terminated on:  17:43:54  13Jun2025            

=------------------------------------------------------------------------------=
   JOB DONE.
=------------------------------------------------------------------------------=
Note: The following floating-point exceptions are signalling: IEEE_INVALID_FLAG
