Authorization required, but no authorization protocol specified

Authorization required, but no authorization protocol specified

Authorization required, but no authorization protocol specified

Authorization required, but no authorization protocol specified

Authorization required, but no authorization protocol specified

Authorization required, but no authorization protocol specified

Authorization required, but no authorization protocol specified

Authorization required, but no authorization protocol specified

Authorization required, but no authorization protocol specified

Authorization required, but no authorization protocol specified


     Program PWSCF v.7.2 starts on 13Jun2025 at 17:30:31 

     This program is part of the open-source Quantum ESPRESSO suite
     for quantum simulation of materials; please cite
         "P. Giannozzi et al., J. Phys.:Condens. Matter 21 395502 (2009);
         "P. Giannozzi et al., J. Phys.:Condens. Matter 29 465901 (2017);
         "P. Giannozzi et al., J. Chem. Phys. 152 154105 (2020);
          URL http://www.quantum-espresso.org", 
     in publications or presentations arising from this work. More details at
     http://www.quantum-espresso.org/quote

     Parallel version (MPI), running on     8 processors

     MPI processes distributed on     1 nodes
     120705 MiB available memory on the printing compute node when the environment starts

     Reading input from /home/jvc/QEspresso7.2/ZnO_database_python/SCFs.in/scf-6.24-1.65.in

     Current dimensions of program PWSCF are:
     Max number of different atomic species (ntypx) = 10
     Max number of k-points (npk) =  40000
     Max angular momentum in pseudopotentials (lmaxx) =  4
     file Zn.upf: wavefunction(s)  3D renormalized

     R & G space division:  proc/nbgrp/npool/nimage =       8
     Subspace diagonalization in iterative solution of the eigenvalue problem:
     a serial algorithm will be used


     Parallelization info
     --------------------
     sticks:   dense  smooth     PW     G-vecs:    dense   smooth      PW
     Min         133      66     20                 5853     2063     346
     Max         134      67     21                 5860     2065     351
     Sum        1069     535    163                46853    16517    2779

     Using Slab Decomposition



     bravais-lattice index     =            4
     lattice parameter (alat)  =       6.2406  a.u.
     unit-cell volume          =     346.5866 (a.u.)^3
     number of atoms/cell      =            4
     number of atomic types    =            2
     number of electrons       =        36.00
     number of Kohn-Sham states=           18
     kinetic-energy cutoff     =      50.0000  Ry
     charge density cutoff     =     400.0000  Ry
     scf convergence threshold =      1.0E-08
     mixing beta               =       0.3000
     number of iterations used =            8  plain     mixing
     Exchange-correlation= PBE
                           (   1   4   3   4   0   0   0)

     celldm(1)=   6.240610  celldm(2)=   0.000000  celldm(3)=   1.646646
     celldm(4)=   0.000000  celldm(5)=   0.000000  celldm(6)=   0.000000

     crystal axes: (cart. coord. in units of alat)
               a(1) = (   1.000000   0.000000   0.000000 )  
               a(2) = (  -0.500000   0.866025   0.000000 )  
               a(3) = (   0.000000   0.000000   1.646646 )  

     reciprocal axes: (cart. coord. in units 2 pi/alat)
               b(1) = (  1.000000  0.577350 -0.000000 )  
               b(2) = (  0.000000  1.154701  0.000000 )  
               b(3) = (  0.000000 -0.000000  0.607295 )  


     PseudoPot. # 1 for Zn read from file:
     /home/jvc/QEspresso7.2/ZnO_database/pseudos/Zn.upf
     MD5 check sum: 7f56cabf9682ed8c977c2f7d0c5985c5
     Pseudo is Ultrasoft + core correction, Zval = 12.0
     Generated using &quot;atomic&quot; code by A. Dal Corso  v.6.2.2
     Using radial grid of 1201 points,  6 beta functions with: 
                l(1) =   0
                l(2) =   0
                l(3) =   1
                l(4) =   1
                l(5) =   2
                l(6) =   2
     Q(r) pseudized with 0 coefficients 


     PseudoPot. # 2 for O  read from file:
     /home/jvc/QEspresso7.2/ZnO_database/pseudos/O.upf
     MD5 check sum: 91400c9766925bcf19f520983a725ff0
     Pseudo is Ultrasoft + core correction, Zval =  6.0
     Generated using &quot;atomic&quot; code by A. Dal Corso  v.6.3MaX
     Using radial grid of 1095 points,  4 beta functions with: 
                l(1) =   0
                l(2) =   0
                l(3) =   1
                l(4) =   1
     Q(r) pseudized with 0 coefficients 


     atomic species   valence    mass     pseudopotential
        Zn            12.00    63.38000     Zn( 1.00)
        O              6.00    15.99900     O ( 1.00)

     12 Sym. Ops. (no inversion) found ( 6 have fractional translation)



   Cartesian axes

     site n.     atom                  positions (alat units)
         1           Zn  tau(   1) = (   0.5000000   0.2886751   0.8243661  )
         2           Zn  tau(   2) = (  -0.0000000   0.5773503   0.0010433  )
         3           O   tau(   3) = (   0.5000000   0.2886751   1.4485152  )
         4           O   tau(   4) = (  -0.0000000   0.5773503   0.6251925  )

     number of k points=    28
                       cart. coord. in units 2pi/alat
        k(    1) = (   0.0000000   0.0000000   0.0000000), wk =   0.0092593
        k(    2) = (   0.0000000   0.0000000   0.1012159), wk =   0.0185185
        k(    3) = (   0.0000000   0.0000000   0.2024317), wk =   0.0185185
        k(    4) = (   0.0000000   0.0000000  -0.3036476), wk =   0.0092593
        k(    5) = (   0.0000000   0.1924501   0.0000000), wk =   0.0555556
        k(    6) = (   0.0000000   0.1924501   0.1012159), wk =   0.1111111
        k(    7) = (   0.0000000   0.1924501   0.2024317), wk =   0.1111111
        k(    8) = (   0.0000000   0.1924501  -0.3036476), wk =   0.0555556
        k(    9) = (   0.0000000   0.3849002   0.0000000), wk =   0.0555556
        k(   10) = (   0.0000000   0.3849002   0.1012159), wk =   0.1111111
        k(   11) = (   0.0000000   0.3849002   0.2024317), wk =   0.1111111
        k(   12) = (   0.0000000   0.3849002  -0.3036476), wk =   0.0555556
        k(   13) = (   0.0000000  -0.5773503   0.0000000), wk =   0.0277778
        k(   14) = (   0.0000000  -0.5773503   0.1012159), wk =   0.0555556
        k(   15) = (   0.0000000  -0.5773503   0.2024317), wk =   0.0555556
        k(   16) = (   0.0000000  -0.5773503  -0.3036476), wk =   0.0277778
        k(   17) = (   0.1666667   0.2886751   0.0000000), wk =   0.0555556
        k(   18) = (   0.1666667   0.2886751   0.1012159), wk =   0.1111111
        k(   19) = (   0.1666667   0.2886751   0.2024317), wk =   0.1111111
        k(   20) = (   0.1666667   0.2886751  -0.3036476), wk =   0.0555556
        k(   21) = (   0.1666667   0.4811252   0.0000000), wk =   0.1111111
        k(   22) = (   0.1666667   0.4811252   0.1012159), wk =   0.2222222
        k(   23) = (   0.1666667   0.4811252   0.2024317), wk =   0.2222222
        k(   24) = (   0.1666667   0.4811252  -0.3036476), wk =   0.1111111
        k(   25) = (   0.3333333   0.5773503   0.0000000), wk =   0.0185185
        k(   26) = (   0.3333333   0.5773503   0.1012159), wk =   0.0370370
        k(   27) = (   0.3333333   0.5773503   0.2024317), wk =   0.0370370
        k(   28) = (   0.3333333   0.5773503  -0.3036476), wk =   0.0185185

     Dense  grid:    46853 G-vectors     FFT dimensions: (  40,  40,  72)

     Smooth grid:    16517 G-vectors     FFT dimensions: (  30,  30,  48)

     Estimated max dynamical RAM per process >      27.02 MB

     Estimated total dynamical RAM >     216.15 MB

     Check: negative core charge=   -0.000002

     Initial potential from superposition of free atoms

     starting charge      35.9925, renormalised to      36.0000
     Starting wfcs are   26 randomized atomic wfcs

     total cpu time spent up to now is        1.6 secs

     Self-consistent Calculation

     iteration #  1     ecut=    50.00 Ry     beta= 0.30
     Davidson diagonalization with overlap
     ethr =  1.00E-02,  avg # of iterations =  1.8

     total cpu time spent up to now is        2.5 secs

     total energy              =    -361.47003082 Ry
     estimated scf accuracy    <       0.71024564 Ry

     iteration #  2     ecut=    50.00 Ry     beta= 0.30
     Davidson diagonalization with overlap
     ethr =  1.97E-03,  avg # of iterations =  2.0

     total cpu time spent up to now is        3.5 secs

     total energy              =    -361.57802287 Ry
     estimated scf accuracy    <       0.08415220 Ry

     iteration #  3     ecut=    50.00 Ry     beta= 0.30
     Davidson diagonalization with overlap
     ethr =  2.34E-04,  avg # of iterations =  6.4

     total cpu time spent up to now is        5.2 secs

     total energy              =    -361.60534453 Ry
     estimated scf accuracy    <       0.06179425 Ry

     iteration #  4     ecut=    50.00 Ry     beta= 0.30
     Davidson diagonalization with overlap
     ethr =  1.72E-04,  avg # of iterations =  8.3

     total cpu time spent up to now is        7.2 secs

     total energy              =    -361.64474505 Ry
     estimated scf accuracy    <       0.25403017 Ry

     iteration #  5     ecut=    50.00 Ry     beta= 0.30
     Davidson diagonalization with overlap
     ethr =  1.72E-04,  avg # of iterations =  2.0

     total cpu time spent up to now is        8.1 secs

     total energy              =    -361.52825502 Ry
     estimated scf accuracy    <       0.14447207 Ry

     iteration #  6     ecut=    50.00 Ry     beta= 0.30
     Davidson diagonalization with overlap
     ethr =  1.72E-04,  avg # of iterations =  9.8

     total cpu time spent up to now is       10.3 secs

     total energy              =    -361.55468165 Ry
     estimated scf accuracy    <       0.95472841 Ry

     iteration #  7     ecut=    50.00 Ry     beta= 0.30
     Davidson diagonalization with overlap
     ethr =  1.72E-04,  avg # of iterations =  7.5

     total cpu time spent up to now is       12.1 secs

     total energy              =    -361.63157205 Ry
     estimated scf accuracy    <       0.07195840 Ry

     iteration #  8     ecut=    50.00 Ry     beta= 0.30
     Davidson diagonalization with overlap
     ethr =  1.72E-04,  avg # of iterations =  1.6

     total cpu time spent up to now is       13.0 secs

     total energy              =    -361.63304017 Ry
     estimated scf accuracy    <       0.03545790 Ry

     iteration #  9     ecut=    50.00 Ry     beta= 0.30
     Davidson diagonalization with overlap
     ethr =  9.85E-05,  avg # of iterations =  1.5

     total cpu time spent up to now is       13.8 secs

     total energy              =    -361.61961883 Ry
     estimated scf accuracy    <       0.02874190 Ry

     iteration # 10     ecut=    50.00 Ry     beta= 0.30
     Davidson diagonalization with overlap
     ethr =  7.98E-05,  avg # of iterations =  5.5

     total cpu time spent up to now is       15.3 secs

     total energy              =    -361.63403357 Ry
     estimated scf accuracy    <       0.00740879 Ry

     iteration # 11     ecut=    50.00 Ry     beta= 0.30
     Davidson diagonalization with overlap
     ethr =  2.06E-05,  avg # of iterations =  1.8

     total cpu time spent up to now is       16.1 secs

     total energy              =    -361.63431700 Ry
     estimated scf accuracy    <       0.00346017 Ry

     iteration # 12     ecut=    50.00 Ry     beta= 0.30
     Davidson diagonalization with overlap
     ethr =  9.61E-06,  avg # of iterations =  1.4

     total cpu time spent up to now is       17.0 secs

     total energy              =    -361.63364687 Ry
     estimated scf accuracy    <       0.00294782 Ry

     iteration # 13     ecut=    50.00 Ry     beta= 0.30
     Davidson diagonalization with overlap
     ethr =  8.19E-06,  avg # of iterations =  2.4

     total cpu time spent up to now is       17.9 secs

     total energy              =    -361.63409692 Ry
     estimated scf accuracy    <       0.00110035 Ry

     iteration # 14     ecut=    50.00 Ry     beta= 0.30
     Davidson diagonalization with overlap
     ethr =  3.06E-06,  avg # of iterations =  3.4

     total cpu time spent up to now is       18.9 secs

     total energy              =    -361.63453847 Ry
     estimated scf accuracy    <       0.00073623 Ry

     iteration # 15     ecut=    50.00 Ry     beta= 0.30
     Davidson diagonalization with overlap
     ethr =  2.05E-06,  avg # of iterations =  2.0

     total cpu time spent up to now is       19.8 secs

     total energy              =    -361.63376748 Ry
     estimated scf accuracy    <       0.00126746 Ry

     iteration # 16     ecut=    50.00 Ry     beta= 0.30
     Davidson diagonalization with overlap
     ethr =  2.05E-06,  avg # of iterations =  5.5

     total cpu time spent up to now is       21.3 secs

     total energy              =    -361.63441583 Ry
     estimated scf accuracy    <       0.00031494 Ry

     iteration # 17     ecut=    50.00 Ry     beta= 0.30
     Davidson diagonalization with overlap
     ethr =  8.75E-07,  avg # of iterations =  2.2

     total cpu time spent up to now is       22.2 secs

     total energy              =    -361.63443444 Ry
     estimated scf accuracy    <       0.00065291 Ry

     iteration # 18     ecut=    50.00 Ry     beta= 0.30
     Davidson diagonalization with overlap
     ethr =  8.75E-07,  avg # of iterations =  1.1

     total cpu time spent up to now is       23.0 secs

     total energy              =    -361.63437151 Ry
     estimated scf accuracy    <       0.00066769 Ry

     iteration # 19     ecut=    50.00 Ry     beta= 0.30
     Davidson diagonalization with overlap
     ethr =  8.75E-07,  avg # of iterations =  1.0

     total cpu time spent up to now is       23.8 secs

     total energy              =    -361.63431354 Ry
     estimated scf accuracy    <       0.00057016 Ry

     iteration # 20     ecut=    50.00 Ry     beta= 0.30
     Davidson diagonalization with overlap
     ethr =  8.75E-07,  avg # of iterations =  1.0

     total cpu time spent up to now is       24.6 secs

     total energy              =    -361.63424039 Ry
     estimated scf accuracy    <       0.00043303 Ry

     iteration # 21     ecut=    50.00 Ry     beta= 0.30
     Davidson diagonalization with overlap
     ethr =  8.75E-07,  avg # of iterations =  1.2

     total cpu time spent up to now is       25.4 secs

     total energy              =    -361.63425880 Ry
     estimated scf accuracy    <       0.00025817 Ry

     iteration # 22     ecut=    50.00 Ry     beta= 0.30
     Davidson diagonalization with overlap
     ethr =  7.17E-07,  avg # of iterations =  1.0

     total cpu time spent up to now is       26.2 secs

     total energy              =    -361.63429673 Ry
     estimated scf accuracy    <       0.00025713 Ry

     iteration # 23     ecut=    50.00 Ry     beta= 0.30
     Davidson diagonalization with overlap
     ethr =  7.14E-07,  avg # of iterations =  1.0

     total cpu time spent up to now is       27.0 secs

     total energy              =    -361.63420749 Ry
     estimated scf accuracy    <       0.00030549 Ry

     iteration # 24     ecut=    50.00 Ry     beta= 0.30
     Davidson diagonalization with overlap
     ethr =  7.14E-07,  avg # of iterations =  1.4

     total cpu time spent up to now is       27.9 secs

     total energy              =    -361.63415314 Ry
     estimated scf accuracy    <       0.00012177 Ry

     iteration # 25     ecut=    50.00 Ry     beta= 0.30
     Davidson diagonalization with overlap
     ethr =  3.38E-07,  avg # of iterations =  5.5

     total cpu time spent up to now is       29.3 secs

     total energy              =    -361.63421715 Ry
     estimated scf accuracy    <       0.00005689 Ry

     iteration # 26     ecut=    50.00 Ry     beta= 0.30
     Davidson diagonalization with overlap
     ethr =  1.58E-07,  avg # of iterations =  2.0

     total cpu time spent up to now is       30.2 secs

     total energy              =    -361.63421312 Ry
     estimated scf accuracy    <       0.00001357 Ry

     iteration # 27     ecut=    50.00 Ry     beta= 0.30
     Davidson diagonalization with overlap
     ethr =  3.77E-08,  avg # of iterations =  6.7

     total cpu time spent up to now is       31.9 secs

     total energy              =    -361.63422364 Ry
     estimated scf accuracy    <       0.00001969 Ry

     iteration # 28     ecut=    50.00 Ry     beta= 0.30
     Davidson diagonalization with overlap
     ethr =  3.77E-08,  avg # of iterations =  2.1

     total cpu time spent up to now is       32.8 secs

     total energy              =    -361.63422283 Ry
     estimated scf accuracy    <       0.00000673 Ry

     iteration # 29     ecut=    50.00 Ry     beta= 0.30
     Davidson diagonalization with overlap
     ethr =  1.87E-08,  avg # of iterations =  4.1

     total cpu time spent up to now is       34.0 secs

     total energy              =    -361.63422511 Ry
     estimated scf accuracy    <       0.00000004 Ry

     iteration # 30     ecut=    50.00 Ry     beta= 0.30
     Davidson diagonalization with overlap
     c_bands:  2 eigenvalues not converged
     ethr =  1.25E-10,  avg # of iterations = 10.3

     total cpu time spent up to now is       36.2 secs

     total energy              =    -361.63422538 Ry
     estimated scf accuracy    <       0.00000012 Ry

     iteration # 31     ecut=    50.00 Ry     beta= 0.30
     Davidson diagonalization with overlap
     ethr =  1.25E-10,  avg # of iterations =  4.7

     total cpu time spent up to now is       37.5 secs

     End of self-consistent calculation

          k = 0.0000 0.0000 0.0000 (  2045 PWs)   bands (ev):

   -11.3349 -10.7521   0.8054   0.8054   0.8497   0.9657   0.9657   1.0445
     1.7953   1.7953   1.9588   1.9588   2.2440   5.5349   5.5349   6.0848
     6.1992   6.1992

          k = 0.0000 0.0000 0.1012 (  2027 PWs)   bands (ev):

   -11.2977 -10.7930   0.8120   0.8120   0.8153   0.9145   0.9503   0.9503
     1.8100   1.8100   1.9521   1.9521   2.5452   5.5125   5.5802   5.5802
     6.1556   6.1556

          k = 0.0000 0.0000 0.2024 (  2033 PWs)   bands (ev):

   -11.1947 -10.9034   0.7412   0.7486   0.8325   0.8325   0.9119   0.9119
     1.8472   1.8472   1.9293   1.9293   3.1903   4.7279   5.7034   5.7034
     6.0357   6.0357

          k = 0.0000 0.0000-0.3036 (  2052 PWs)   bands (ev):

   -11.0509 -11.0509   0.6963   0.6963   0.8676   0.8676   0.8676   0.8676
     1.8915   1.8915   1.8915   1.8915   3.9461   3.9461   5.8703   5.8703
     5.8703   5.8703

          k = 0.0000 0.1925 0.0000 (  2060 PWs)   bands (ev):

   -11.2069 -10.6923   0.6947   0.8796   0.9036   0.9844   1.0745   1.2245
     1.7446   1.7937   1.9674   2.0933   2.2237   4.6368   5.0873   5.2210
     5.9266   6.0209

          k = 0.0000 0.1925 0.1012 (  2051 PWs)   bands (ev):

   -11.1735 -10.7278   0.6745   0.8593   0.8887   0.9547   1.0568   1.1090
     1.7689   1.8078   1.9584   2.0079   2.6130   4.6619   4.9608   5.2761
     5.8431   5.9686

          k = 0.0000 0.1925 0.2024 (  2048 PWs)   bands (ev):

   -11.0814 -10.8241   0.6304   0.7114   0.9160   0.9382   1.0124   1.0134
     1.8258   1.8439   1.9310   1.9531   3.2578   4.4280   4.9850   5.4254
     5.5953   5.8248

          k = 0.0000 0.1925-0.3036 (  2038 PWs)   bands (ev):

   -10.9538 -10.9538   0.6225   0.6225   0.9600   0.9600   0.9621   0.9621
     1.8898   1.8898   1.8927   1.8927   3.9016   3.9016   5.2654   5.2654
     5.6265   5.6265

          k = 0.0000 0.3849 0.0000 (  2066 PWs)   bands (ev):

   -10.9216 -10.5890   0.5932   0.8872   1.0000   1.2149   1.3321   1.4952
     1.7245   1.8577   1.9849   2.1704   2.5046   3.2038   3.9979   4.5798
     5.4367   5.6363

          k = 0.0000 0.3849 0.1012 (  2064 PWs)   bands (ev):

   -10.8989 -10.6107   0.5714   0.8213   1.0179   1.1950   1.3048   1.3769
     1.7536   1.8651   1.9744   2.0973   2.7367   3.3254   3.9897   4.6557
     5.4368   5.5686

          k = 0.0000 0.3849 0.2024 (  2075 PWs)   bands (ev):

   -10.8369 -10.6704   0.5345   0.6657   1.0696   1.1684   1.2342   1.2437
     1.8326   1.8859   1.9478   2.0142   3.0080   3.3951   4.2849   4.8576
     5.2923   5.3824

          k = 0.0000 0.3849-0.3036 (  2060 PWs)   bands (ev):

   -10.7531 -10.7531   0.5513   0.5513   1.1474   1.1474   1.1813   1.1813
     1.9158   1.9158   1.9258   1.9258   3.2285   3.2285   4.8629   4.8629
     5.1238   5.1238

          k = 0.0000-0.5774 0.0000 (  2068 PWs)   bands (ev):

   -10.7437 -10.5657   0.6617   0.8793   1.0391   1.3913   1.4827   1.4848
     1.8364   1.9392   2.0013   2.0707   2.5277   2.8418   3.5932   4.2302
     5.0034   5.4285

          k = 0.0000-0.5774 0.1012 (  2074 PWs)   bands (ev):

   -10.7305 -10.5762   0.6290   0.7976   1.0630   1.3798   1.4413   1.4480
     1.8882   1.9411   1.9918   2.0695   2.5003   2.7821   3.8471   4.3200
     5.0758   5.3534

          k = 0.0000-0.5774 0.2024 (  2082 PWs)   bands (ev):

   -10.6952 -10.6060   0.5670   0.6438   1.1321   1.3530   1.3613   1.3866
     1.9468   1.9720   1.9730   2.0612   2.4946   2.6610   4.3870   4.5544
     5.1207   5.1463

          k = 0.0000-0.5774-0.3036 (  2072 PWs)   bands (ev):

   -10.6492 -10.6492   0.5546   0.5546   1.2361   1.2361   1.3599   1.3599
     1.9573   1.9573   2.0324   2.0324   2.5531   2.5531   4.8568   4.8568
     4.8883   4.8883

          k = 0.1667 0.2887 0.0000 (  2075 PWs)   bands (ev):

   -10.9991 -10.6112   0.6836   0.8441   1.0106   1.0627   1.2790   1.4585
     1.6992   1.8133   1.9785   2.1758   2.4204   3.8624   3.9963   4.6504
     5.5840   5.6189

          k = 0.1667 0.2887 0.1012 (  2071 PWs)   bands (ev):

   -10.9730 -10.6369   0.6567   0.8146   1.0047   1.0417   1.2561   1.3052
     1.7347   1.8383   1.9684   2.0866   2.7575   3.9545   3.9872   4.6674
     5.5124   5.5932

          k = 0.1667 0.2887 0.2024 (  2069 PWs)   bands (ev):

   -10.9018 -10.7076   0.6058   0.6999   1.0049   1.0224   1.1686   1.2007
     1.8179   1.8706   1.9427   2.0055   3.2151   3.7994   4.3776   4.7938
     5.3205   5.4025

          k = 0.1667 0.2887-0.3036 (  2074 PWs)   bands (ev):

   -10.8045 -10.8045   0.6046   0.6046   1.0185   1.0185   1.1504   1.1504
     1.8977   1.8977   1.9246   1.9246   3.5513   3.5513   4.8879   4.8879
     5.1022   5.1022

          k = 0.1667 0.4811 0.0000 (  2075 PWs)   bands (ev):

   -10.7501 -10.5624   0.7461   0.9791   1.0813   1.2929   1.4784   1.5351
     1.7715   1.8424   2.0173   2.2055   2.4984   3.0638   3.5762   3.8796
     4.9825   5.1485

          k = 0.1667 0.4811 0.1012 (  2081 PWs)   bands (ev):

   -10.7362 -10.5736   0.7277   0.9223   1.0608   1.2774   1.4364   1.4532
     1.7833   1.8918   2.0160   2.1901   2.5299   3.0610   3.6903   4.0509
     4.9576   5.1523

          k = 0.1667 0.4811 0.2024 (  2075 PWs)   bands (ev):

   -10.6993 -10.6053   0.6818   0.7784   1.0767   1.2374   1.3464   1.3632
     1.8526   1.9168   2.0265   2.1342   2.6433   2.9534   3.9915   4.4678
     4.7603   5.1795

          k = 0.1667 0.4811-0.3036 (  2080 PWs)   bands (ev):

   -10.6510 -10.6510   0.6793   0.6793   1.1537   1.1537   1.3228   1.3228
     1.9044   1.9044   2.0685   2.0685   2.7966   2.7966   4.3484   4.3484
     4.9835   4.9835

          k = 0.3333 0.5774 0.0000 (  2067 PWs)   bands (ev):

   -10.6070 -10.6070   0.7899   1.1827   1.1827   1.4718   1.7030   1.7030
     1.7408   1.8369   1.9313   1.9313   2.7681   2.7747   2.7747   4.4378
     4.4378   4.5787

          k = 0.3333 0.5774 0.1012 (  2073 PWs)   bands (ev):

   -10.6054 -10.6054   0.8165   1.1134   1.1134   1.3807   1.6139   1.6139
     1.7531   1.8316   2.0462   2.0462   2.7331   2.7331   2.9176   4.4603
     4.5902   4.5902

          k = 0.3333 0.5774 0.2024 (  2073 PWs)   bands (ev):

   -10.6021 -10.6021   0.8963   0.9748   0.9748   1.2006   1.5426   1.5426
     1.7740   1.8169   2.1805   2.1805   2.6585   2.6585   3.2765   4.1439
     4.8815   4.8815

          k = 0.3333 0.5774-0.3036 (  2082 PWs)   bands (ev):

   -10.6004 -10.6004   0.9086   0.9086   1.0276   1.0276   1.5232   1.5232
     1.7962   1.7962   2.2347   2.2347   2.6221   2.6221   3.7175   3.7175
     5.0230   5.0230

     highest occupied level (ev):     6.1992

!    total energy              =    -361.63422540 Ry
     estimated scf accuracy    <          1.1E-09 Ry

     The total energy is the sum of the following terms:
     one-electron contribution =    -160.16547579 Ry
     hartree contribution      =     120.29740406 Ry
     xc contribution           =    -109.44758906 Ry
     ewald contribution        =    -212.31856462 Ry

     convergence has been achieved in  31 iterations

     Forces acting on atoms (cartesian axes, Ry/au):

     atom    1 type  1   force =     0.00000000    0.00000000    0.00375337
     atom    2 type  1   force =     0.00000000    0.00000000    0.00375337
     atom    3 type  2   force =     0.00000000    0.00000000   -0.00375337
     atom    4 type  2   force =     0.00000000    0.00000000   -0.00375337
     The non-local contrib.  to forces
     atom    1 type  1   force =     0.00000000    0.00000000    0.04987977
     atom    2 type  1   force =    -0.00000000    0.00000000    0.04987977
     atom    3 type  2   force =     0.00000000    0.00000000    0.05539584
     atom    4 type  2   force =    -0.00000000   -0.00000000    0.05539584
     The ionic contribution  to forces
     atom    1 type  1   force =    -0.00000000    0.00000000    0.45588198
     atom    2 type  1   force =     0.00000000   -0.00000000    0.45588198
     atom    3 type  2   force =    -0.00000000    0.00000000   -0.45588198
     atom    4 type  2   force =     0.00000000   -0.00000000   -0.45588198
     The local contribution  to forces
     atom    1 type  1   force =    -0.00000002    0.00000001   -0.49861262
     atom    2 type  1   force =     0.00000006   -0.00000004   -0.49861261
     atom    3 type  2   force =    -0.00000001    0.00000000    0.39717326
     atom    4 type  2   force =     0.00000002   -0.00000001    0.39717325
     The core correction contribution to forces
     atom    1 type  1   force =    -0.00000000    0.00000000   -0.00339515
     atom    2 type  1   force =     0.00000001   -0.00000000   -0.00339515
     atom    3 type  2   force =     0.00000000   -0.00000000   -0.00047076
     atom    4 type  2   force =    -0.00000000    0.00000000   -0.00047076
     The Hubbard contrib.    to forces
     atom    1 type  1   force =     0.00000000    0.00000000    0.00000000
     atom    2 type  1   force =     0.00000000    0.00000000    0.00000000
     atom    3 type  2   force =     0.00000000    0.00000000    0.00000000
     atom    4 type  2   force =     0.00000000    0.00000000    0.00000000
     The SCF correction term to forces
     atom    1 type  1   force =     0.00000000   -0.00000000    0.00000414
     atom    2 type  1   force =    -0.00000000    0.00000000    0.00000414
     atom    3 type  2   force =     0.00000000   -0.00000000    0.00003504
     atom    4 type  2   force =    -0.00000000    0.00000000    0.00003504

     Total force =     0.007507     Total SCF correction =     0.000050


     Computing stress (Cartesian axis) and pressure

          total   stress  (Ry/bohr**3)                   (kbar)     P=      -59.37
  -0.00032829   0.00000000  -0.00000000          -48.29        0.00       -0.00
   0.00000000  -0.00032829  -0.00000000            0.00      -48.29       -0.00
  -0.00000000  -0.00000000  -0.00055429           -0.00       -0.00      -81.54


     Writing all to output data dir ./ZnO_ANN.save/

     init_run     :      1.95s CPU      1.30s WALL (       1 calls)
     electrons    :     95.73s CPU     35.92s WALL (       1 calls)
     forces       :      0.69s CPU      0.33s WALL (       1 calls)
     stress       :      2.80s CPU      1.53s WALL (       1 calls)

     Called by init_run:
     wfcinit      :      1.04s CPU      0.40s WALL (       1 calls)
     potinit      :      0.27s CPU      0.27s WALL (       1 calls)
     hinit0       :      0.50s CPU      0.51s WALL (       1 calls)

     Called by electrons:
     c_bands      :     76.25s CPU     28.21s WALL (      31 calls)
     sum_band     :     14.38s CPU      5.61s WALL (      31 calls)
     v_of_rho     :      1.07s CPU      0.49s WALL (      32 calls)
     newd         :      3.75s CPU      1.52s WALL (      32 calls)
     mix_rho      :      0.20s CPU      0.09s WALL (      31 calls)

     Called by c_bands:
     init_us_2    :      1.41s CPU      0.49s WALL (    1820 calls)
     init_us_2:cp :      1.39s CPU      0.48s WALL (    1820 calls)
     cegterg      :     73.20s CPU     27.03s WALL (     868 calls)

     Called by *egterg:
     cdiaghg      :     11.15s CPU      3.64s WALL (    3897 calls)
     h_psi        :     51.09s CPU     20.74s WALL (    3925 calls)
     s_psi        :      1.19s CPU      0.34s WALL (    3925 calls)
     g_psi        :      0.39s CPU      0.10s WALL (    3029 calls)

     Called by h_psi:
     h_psi:calbec :      1.76s CPU      0.64s WALL (    3925 calls)
     vloc_psi     :     47.69s CPU     19.59s WALL (    3925 calls)
     add_vuspsi   :      1.20s CPU      0.38s WALL (    3925 calls)

     General routines
     calbec       :      2.34s CPU      0.83s WALL (    4933 calls)
     fft          :      0.93s CPU      0.55s WALL (     439 calls)
     ffts         :      0.18s CPU      0.15s WALL (      63 calls)
     fftw         :     48.56s CPU     20.02s WALL (  111206 calls)
     interpolate  :      0.21s CPU      0.16s WALL (      32 calls)

     Parallel routines

     PWSCF        :   1m41.71s CPU     39.56s WALL


   This run was terminated on:  17:31:10  13Jun2025            

=------------------------------------------------------------------------------=
   JOB DONE.
=------------------------------------------------------------------------------=
Note: The following floating-point exceptions are signalling: IEEE_INVALID_FLAG
