Authorization required, but no authorization protocol specified

Authorization required, but no authorization protocol specified

Authorization required, but no authorization protocol specified

Authorization required, but no authorization protocol specified

Authorization required, but no authorization protocol specified

Authorization required, but no authorization protocol specified

Authorization required, but no authorization protocol specified

Authorization required, but no authorization protocol specified

Authorization required, but no authorization protocol specified

Authorization required, but no authorization protocol specified


     Program PWSCF v.7.2 starts on 13Jun2025 at 18: 0:31 

     This program is part of the open-source Quantum ESPRESSO suite
     for quantum simulation of materials; please cite
         "P. Giannozzi et al., J. Phys.:Condens. Matter 21 395502 (2009);
         "P. Giannozzi et al., J. Phys.:Condens. Matter 29 465901 (2017);
         "P. Giannozzi et al., J. Chem. Phys. 152 154105 (2020);
          URL http://www.quantum-espresso.org", 
     in publications or presentations arising from this work. More details at
     http://www.quantum-espresso.org/quote

     Parallel version (MPI), running on     8 processors

     MPI processes distributed on     1 nodes
     120708 MiB available memory on the printing compute node when the environment starts

     Reading input from /home/jvc/QEspresso7.2/ZnO_database_python/SCFs.in/scf-6.36-1.60.in

     Current dimensions of program PWSCF are:
     Max number of different atomic species (ntypx) = 10
     Max number of k-points (npk) =  40000
     Max angular momentum in pseudopotentials (lmaxx) =  4
     file Zn.upf: wavefunction(s)  3D renormalized

     R & G space division:  proc/nbgrp/npool/nimage =       8
     Subspace diagonalization in iterative solution of the eigenvalue problem:
     a serial algorithm will be used


     Parallelization info
     --------------------
     sticks:   dense  smooth     PW     G-vecs:    dense   smooth      PW
     Min         140      69     20                 6022     2123     352
     Max         142      70     21                 6024     2128     359
     Sum        1123     559    163                48179    17019    2839

     Using Slab Decomposition



     bravais-lattice index     =            4
     lattice parameter (alat)  =       6.3642  a.u.
     unit-cell volume          =     356.7750 (a.u.)^3
     number of atoms/cell      =            4
     number of atomic types    =            2
     number of electrons       =        36.00
     number of Kohn-Sham states=           18
     kinetic-energy cutoff     =      50.0000  Ry
     charge density cutoff     =     400.0000  Ry
     scf convergence threshold =      1.0E-08
     mixing beta               =       0.3000
     number of iterations used =            8  plain     mixing
     Exchange-correlation= PBE
                           (   1   4   3   4   0   0   0)

     celldm(1)=   6.364186  celldm(2)=   0.000000  celldm(3)=   1.598215
     celldm(4)=   0.000000  celldm(5)=   0.000000  celldm(6)=   0.000000

     crystal axes: (cart. coord. in units of alat)
               a(1) = (   1.000000   0.000000   0.000000 )  
               a(2) = (  -0.500000   0.866025   0.000000 )  
               a(3) = (   0.000000   0.000000   1.598215 )  

     reciprocal axes: (cart. coord. in units 2 pi/alat)
               b(1) = (  1.000000  0.577350 -0.000000 )  
               b(2) = (  0.000000  1.154701  0.000000 )  
               b(3) = (  0.000000 -0.000000  0.625698 )  


     PseudoPot. # 1 for Zn read from file:
     /home/jvc/QEspresso7.2/ZnO_database/pseudos/Zn.upf
     MD5 check sum: 7f56cabf9682ed8c977c2f7d0c5985c5
     Pseudo is Ultrasoft + core correction, Zval = 12.0
     Generated using &quot;atomic&quot; code by A. Dal Corso  v.6.2.2
     Using radial grid of 1201 points,  6 beta functions with: 
                l(1) =   0
                l(2) =   0
                l(3) =   1
                l(4) =   1
                l(5) =   2
                l(6) =   2
     Q(r) pseudized with 0 coefficients 


     PseudoPot. # 2 for O  read from file:
     /home/jvc/QEspresso7.2/ZnO_database/pseudos/O.upf
     MD5 check sum: 91400c9766925bcf19f520983a725ff0
     Pseudo is Ultrasoft + core correction, Zval =  6.0
     Generated using &quot;atomic&quot; code by A. Dal Corso  v.6.3MaX
     Using radial grid of 1095 points,  4 beta functions with: 
                l(1) =   0
                l(2) =   0
                l(3) =   1
                l(4) =   1
     Q(r) pseudized with 0 coefficients 


     atomic species   valence    mass     pseudopotential
        Zn            12.00    63.38000     Zn( 1.00)
        O              6.00    15.99900     O ( 1.00)

     12 Sym. Ops. (no inversion) found ( 6 have fractional translation)



   Cartesian axes

     site n.     atom                  positions (alat units)
         1           Zn  tau(   1) = (   0.5000000   0.2886751   0.8001200  )
         2           Zn  tau(   2) = (  -0.0000000   0.5773503   0.0010126  )
         3           O   tau(   3) = (   0.5000000   0.2886751   1.4059118  )
         4           O   tau(   4) = (  -0.0000000   0.5773503   0.6068045  )

     number of k points=    28
                       cart. coord. in units 2pi/alat
        k(    1) = (   0.0000000   0.0000000   0.0000000), wk =   0.0092593
        k(    2) = (   0.0000000   0.0000000   0.1042830), wk =   0.0185185
        k(    3) = (   0.0000000   0.0000000   0.2085660), wk =   0.0185185
        k(    4) = (   0.0000000   0.0000000  -0.3128491), wk =   0.0092593
        k(    5) = (   0.0000000   0.1924501   0.0000000), wk =   0.0555556
        k(    6) = (   0.0000000   0.1924501   0.1042830), wk =   0.1111111
        k(    7) = (   0.0000000   0.1924501   0.2085660), wk =   0.1111111
        k(    8) = (   0.0000000   0.1924501  -0.3128491), wk =   0.0555556
        k(    9) = (   0.0000000   0.3849002   0.0000000), wk =   0.0555556
        k(   10) = (   0.0000000   0.3849002   0.1042830), wk =   0.1111111
        k(   11) = (   0.0000000   0.3849002   0.2085660), wk =   0.1111111
        k(   12) = (   0.0000000   0.3849002  -0.3128491), wk =   0.0555556
        k(   13) = (   0.0000000  -0.5773503   0.0000000), wk =   0.0277778
        k(   14) = (   0.0000000  -0.5773503   0.1042830), wk =   0.0555556
        k(   15) = (   0.0000000  -0.5773503   0.2085660), wk =   0.0555556
        k(   16) = (   0.0000000  -0.5773503  -0.3128491), wk =   0.0277778
        k(   17) = (   0.1666667   0.2886751   0.0000000), wk =   0.0555556
        k(   18) = (   0.1666667   0.2886751   0.1042830), wk =   0.1111111
        k(   19) = (   0.1666667   0.2886751   0.2085660), wk =   0.1111111
        k(   20) = (   0.1666667   0.2886751  -0.3128491), wk =   0.0555556
        k(   21) = (   0.1666667   0.4811252   0.0000000), wk =   0.1111111
        k(   22) = (   0.1666667   0.4811252   0.1042830), wk =   0.2222222
        k(   23) = (   0.1666667   0.4811252   0.2085660), wk =   0.2222222
        k(   24) = (   0.1666667   0.4811252  -0.3128491), wk =   0.1111111
        k(   25) = (   0.3333333   0.5773503   0.0000000), wk =   0.0185185
        k(   26) = (   0.3333333   0.5773503   0.1042830), wk =   0.0370370
        k(   27) = (   0.3333333   0.5773503   0.2085660), wk =   0.0370370
        k(   28) = (   0.3333333   0.5773503  -0.3128491), wk =   0.0185185

     Dense  grid:    48179 G-vectors     FFT dimensions: (  45,  45,  72)

     Smooth grid:    17019 G-vectors     FFT dimensions: (  30,  30,  48)

     Estimated max dynamical RAM per process >      27.92 MB

     Estimated total dynamical RAM >     223.36 MB

     Check: negative core charge=   -0.000002

     Initial potential from superposition of free atoms

     starting charge      35.9925, renormalised to      36.0000
     Starting wfcs are   26 randomized atomic wfcs

     total cpu time spent up to now is        1.6 secs

     Self-consistent Calculation

     iteration #  1     ecut=    50.00 Ry     beta= 0.30
     Davidson diagonalization with overlap
     ethr =  1.00E-02,  avg # of iterations =  1.6

     total cpu time spent up to now is        2.4 secs

     total energy              =    -361.46206957 Ry
     estimated scf accuracy    <       0.72253781 Ry

     iteration #  2     ecut=    50.00 Ry     beta= 0.30
     Davidson diagonalization with overlap
     ethr =  2.01E-03,  avg # of iterations =  2.1

     total cpu time spent up to now is        3.5 secs

     total energy              =    -361.57517627 Ry
     estimated scf accuracy    <       0.08205797 Ry

     iteration #  3     ecut=    50.00 Ry     beta= 0.30
     Davidson diagonalization with overlap
     ethr =  2.28E-04,  avg # of iterations =  6.4

     total cpu time spent up to now is        5.2 secs

     total energy              =    -361.59966777 Ry
     estimated scf accuracy    <       0.06474004 Ry

     iteration #  4     ecut=    50.00 Ry     beta= 0.30
     Davidson diagonalization with overlap
     ethr =  1.80E-04,  avg # of iterations =  8.6

     total cpu time spent up to now is        7.2 secs

     total energy              =    -361.64291124 Ry
     estimated scf accuracy    <       0.27872039 Ry

     iteration #  5     ecut=    50.00 Ry     beta= 0.30
     Davidson diagonalization with overlap
     ethr =  1.80E-04,  avg # of iterations =  2.0

     total cpu time spent up to now is        8.1 secs

     total energy              =    -361.56950061 Ry
     estimated scf accuracy    <       0.16402015 Ry

     iteration #  6     ecut=    50.00 Ry     beta= 0.30
     Davidson diagonalization with overlap
     ethr =  1.80E-04,  avg # of iterations =  6.2

     total cpu time spent up to now is       10.3 secs

     total energy              =    -361.63840845 Ry
     estimated scf accuracy    <       0.01762681 Ry

     iteration #  7     ecut=    50.00 Ry     beta= 0.30
     Davidson diagonalization with overlap
     ethr =  4.90E-05,  avg # of iterations =  2.6

     total cpu time spent up to now is       11.2 secs

     total energy              =    -361.63813188 Ry
     estimated scf accuracy    <       0.02615047 Ry

     iteration #  8     ecut=    50.00 Ry     beta= 0.30
     Davidson diagonalization with overlap
     ethr =  4.90E-05,  avg # of iterations =  1.0

     total cpu time spent up to now is       12.0 secs

     total energy              =    -361.63192426 Ry
     estimated scf accuracy    <       0.02664523 Ry

     iteration #  9     ecut=    50.00 Ry     beta= 0.30
     Davidson diagonalization with overlap
     ethr =  4.90E-05,  avg # of iterations =  1.1

     total cpu time spent up to now is       12.9 secs

     total energy              =    -361.62776985 Ry
     estimated scf accuracy    <       0.01496113 Ry

     iteration # 10     ecut=    50.00 Ry     beta= 0.30
     Davidson diagonalization with overlap
     ethr =  4.16E-05,  avg # of iterations =  2.2

     total cpu time spent up to now is       13.8 secs

     total energy              =    -361.63068989 Ry
     estimated scf accuracy    <       0.00321808 Ry

     iteration # 11     ecut=    50.00 Ry     beta= 0.30
     Davidson diagonalization with overlap
     ethr =  8.94E-06,  avg # of iterations =  2.5

     total cpu time spent up to now is       14.8 secs

     total energy              =    -361.63154911 Ry
     estimated scf accuracy    <       0.00420845 Ry

     iteration # 12     ecut=    50.00 Ry     beta= 0.30
     Davidson diagonalization with overlap
     ethr =  8.94E-06,  avg # of iterations =  1.0

     total cpu time spent up to now is       15.6 secs

     total energy              =    -361.63228987 Ry
     estimated scf accuracy    <       0.00533234 Ry

     iteration # 13     ecut=    50.00 Ry     beta= 0.30
     Davidson diagonalization with overlap
     ethr =  8.94E-06,  avg # of iterations =  1.2

     total cpu time spent up to now is       16.4 secs

     total energy              =    -361.63069950 Ry
     estimated scf accuracy    <       0.00723193 Ry

     iteration # 14     ecut=    50.00 Ry     beta= 0.30
     Davidson diagonalization with overlap
     ethr =  8.94E-06,  avg # of iterations =  1.0

     total cpu time spent up to now is       17.3 secs

     total energy              =    -361.62821761 Ry
     estimated scf accuracy    <       0.00428398 Ry

     iteration # 15     ecut=    50.00 Ry     beta= 0.30
     Davidson diagonalization with overlap
     ethr =  8.94E-06,  avg # of iterations =  6.1

     total cpu time spent up to now is       18.9 secs

     total energy              =    -361.63053282 Ry
     estimated scf accuracy    <       0.00237706 Ry

     iteration # 16     ecut=    50.00 Ry     beta= 0.30
     Davidson diagonalization with overlap
     ethr =  6.60E-06,  avg # of iterations =  1.0

     total cpu time spent up to now is       19.7 secs

     total energy              =    -361.62952036 Ry
     estimated scf accuracy    <       0.00158515 Ry

     iteration # 17     ecut=    50.00 Ry     beta= 0.30
     Davidson diagonalization with overlap
     ethr =  4.40E-06,  avg # of iterations =  5.7

     total cpu time spent up to now is       21.3 secs

     total energy              =    -361.63059929 Ry
     estimated scf accuracy    <       0.00104058 Ry

     iteration # 18     ecut=    50.00 Ry     beta= 0.30
     Davidson diagonalization with overlap
     ethr =  2.89E-06,  avg # of iterations =  1.0

     total cpu time spent up to now is       22.1 secs

     total energy              =    -361.62989234 Ry
     estimated scf accuracy    <       0.00108762 Ry

     iteration # 19     ecut=    50.00 Ry     beta= 0.30
     Davidson diagonalization with overlap
     ethr =  2.89E-06,  avg # of iterations =  4.3

     total cpu time spent up to now is       23.4 secs

     total energy              =    -361.63023971 Ry
     estimated scf accuracy    <       0.00021023 Ry

     iteration # 20     ecut=    50.00 Ry     beta= 0.30
     Davidson diagonalization with overlap
     ethr =  5.84E-07,  avg # of iterations =  3.6

     total cpu time spent up to now is       24.4 secs

     total energy              =    -361.63024901 Ry
     estimated scf accuracy    <       0.00008886 Ry

     iteration # 21     ecut=    50.00 Ry     beta= 0.30
     Davidson diagonalization with overlap
     ethr =  2.47E-07,  avg # of iterations =  4.4

     total cpu time spent up to now is       25.6 secs

     total energy              =    -361.63027773 Ry
     estimated scf accuracy    <       0.00000246 Ry

     iteration # 22     ecut=    50.00 Ry     beta= 0.30
     Davidson diagonalization with overlap
     ethr =  6.84E-09,  avg # of iterations =  6.5

     total cpu time spent up to now is       27.2 secs

     total energy              =    -361.63028178 Ry
     estimated scf accuracy    <       0.00000170 Ry

     iteration # 23     ecut=    50.00 Ry     beta= 0.30
     Davidson diagonalization with overlap
     ethr =  4.71E-09,  avg # of iterations =  4.9

     total cpu time spent up to now is       28.4 secs

     total energy              =    -361.63028045 Ry
     estimated scf accuracy    <       0.00000677 Ry

     iteration # 24     ecut=    50.00 Ry     beta= 0.30
     Davidson diagonalization with overlap
     ethr =  4.71E-09,  avg # of iterations =  2.0

     total cpu time spent up to now is       29.3 secs

     total energy              =    -361.63027900 Ry
     estimated scf accuracy    <       0.00000364 Ry

     iteration # 25     ecut=    50.00 Ry     beta= 0.30
     Davidson diagonalization with overlap
     ethr =  4.71E-09,  avg # of iterations =  5.8

     total cpu time spent up to now is       30.8 secs

     total energy              =    -361.63028071 Ry
     estimated scf accuracy    <       0.00000012 Ry

     iteration # 26     ecut=    50.00 Ry     beta= 0.30
     Davidson diagonalization with overlap
     c_bands:  1 eigenvalues not converged
     ethr =  3.26E-10,  avg # of iterations = 10.5

     total cpu time spent up to now is       33.2 secs

     total energy              =    -361.63027995 Ry
     estimated scf accuracy    <       0.00000493 Ry

     iteration # 27     ecut=    50.00 Ry     beta= 0.30
     Davidson diagonalization with overlap
     ethr =  3.26E-10,  avg # of iterations =  9.4

     total cpu time spent up to now is       35.4 secs

     total energy              =    -361.63028015 Ry
     estimated scf accuracy    <       0.00000061 Ry

     iteration # 28     ecut=    50.00 Ry     beta= 0.30
     Davidson diagonalization with overlap
     ethr =  3.26E-10,  avg # of iterations =  4.9

     total cpu time spent up to now is       36.8 secs

     total energy              =    -361.63028017 Ry
     estimated scf accuracy    <       0.00000009 Ry

     iteration # 29     ecut=    50.00 Ry     beta= 0.30
     Davidson diagonalization with overlap
     ethr =  2.48E-10,  avg # of iterations =  4.1

     total cpu time spent up to now is       37.9 secs

     End of self-consistent calculation

          k = 0.0000 0.0000 0.0000 (  2129 PWs)   bands (ev):

   -11.5224 -10.9373   0.5361   0.5361   0.5621   0.7012   0.7012   0.9093
     1.4241   1.4241   1.5935   1.5935   1.8420   5.0804   5.0804   5.7402
     5.7796   5.7796

          k = 0.0000 0.0000 0.1043 (  2129 PWs)   bands (ev):

   -11.4848 -10.9781   0.5276   0.5418   0.5418   0.6844   0.6844   0.7208
     1.4400   1.4400   1.5871   1.5871   2.1949   5.1285   5.1285   5.1607
     5.7341   5.7341

          k = 0.0000 0.0000 0.2086 (  2117 PWs)   bands (ev):

   -11.3808 -11.0883   0.4560   0.5014   0.5614   0.5614   0.6430   0.6430
     1.4798   1.4798   1.5653   1.5653   2.8765   4.3958   5.2590   5.2590
     5.6088   5.6088

          k = 0.0000 0.0000-0.3128 (  2098 PWs)   bands (ev):

   -11.2361 -11.2361   0.4220   0.4220   0.5969   0.5969   0.5969   0.5969
     1.5271   1.5271   1.5271   1.5271   3.6329   3.6329   5.4352   5.4352
     5.4352   5.4352

          k = 0.0000 0.1925 0.0000 (  2129 PWs)   bands (ev):

   -11.4058 -10.8893   0.4420   0.6025   0.6231   0.7145   0.8031   1.0426
     1.3803   1.4240   1.6029   1.7491   1.8291   4.2310   4.6822   4.7783
     5.5750   5.6193

          k = 0.0000 0.1925 0.1043 (  2137 PWs)   bands (ev):

   -11.3721 -10.9246   0.4196   0.5973   0.6109   0.6785   0.7838   0.8672
     1.4060   1.4388   1.5938   1.6408   2.2781   4.2629   4.5557   4.8367
     5.5045   5.5647

          k = 0.0000 0.1925 0.2086 (  2120 PWs)   bands (ev):

   -11.2791 -11.0207   0.3705   0.4612   0.6374   0.6484   0.7328   0.7362
     1.4641   1.4774   1.5671   1.5895   2.9327   4.0423   4.6038   4.9945
     5.2645   5.4144

          k = 0.0000 0.1925-0.3128 (  2096 PWs)   bands (ev):

   -11.1507 -11.1507   0.3625   0.3625   0.6744   0.6744   0.6817   0.6817
     1.5253   1.5253   1.5313   1.5313   3.5493   3.5493   4.9159   4.9159
     5.2063   5.2063

          k = 0.0000 0.3849 0.0000 (  2132 PWs)   bands (ev):

   -11.1451 -10.8107   0.3648   0.6413   0.7071   0.9060   1.0448   1.1916
     1.3864   1.4849   1.6187   1.7922   2.1867   2.8911   3.6398   4.1657
     5.0890   5.2718

          k = 0.0000 0.3849 0.1043 (  2130 PWs)   bands (ev):

   -11.1220 -10.8322   0.3395   0.5789   0.7248   0.8834   1.0164   1.0695
     1.4059   1.4929   1.6075   1.7254   2.3953   3.0241   3.6414   4.2459
     5.1094   5.2014

          k = 0.0000 0.3849 0.2086 (  2123 PWs)   bands (ev):

   -11.0593 -10.8917   0.2945   0.4217   0.7765   0.8530   0.9293   0.9435
     1.4796   1.5148   1.5797   1.6490   2.6450   3.0509   4.0001   4.4585
     5.0017   5.0075

          k = 0.0000 0.3849-0.3128 (  2126 PWs)   bands (ev):

   -10.9747 -10.9747   0.3052   0.3052   0.8547   0.8547   0.8654   0.8654
     1.5460   1.5460   1.5670   1.5670   2.8646   2.8646   4.5933   4.5933
     4.7375   4.7375

          k = 0.0000-0.5774 0.0000 (  2132 PWs)   bands (ev):

   -10.9805 -10.8002   0.4147   0.6853   0.7401   1.0634   1.1421   1.1892
     1.4726   1.5607   1.6301   1.6886   2.2036   2.5892   3.2703   3.8346
     4.6703   5.0849

          k = 0.0000-0.5774 0.1043 (  2148 PWs)   bands (ev):

   -10.9669 -10.8107   0.3813   0.5884   0.7638   1.0503   1.1045   1.1521
     1.5240   1.5626   1.6184   1.6885   2.1708   2.5162   3.5425   3.9293
     4.7612   5.0070

          k = 0.0000-0.5774 0.2086 (  2124 PWs)   bands (ev):

   -10.9307 -10.8404   0.3181   0.4108   0.8330   1.0299   1.0541   1.0561
     1.5689   1.5972   1.6044   1.6828   2.1700   2.3723   4.1065   4.1754
     4.7921   4.8362

          k = 0.0000-0.5774-0.3128 (  2132 PWs)   bands (ev):

   -10.8839 -10.8839   0.3083   0.3083   0.9374   0.9374   1.0279   1.0279
     1.5798   1.5798   1.6584   1.6584   2.2443   2.2443   4.4909   4.4909
     4.6165   4.6165

          k = 0.1667 0.2887 0.0000 (  2137 PWs)   bands (ev):

   -11.2161 -10.8264   0.4431   0.5798   0.7169   0.7901   0.9918   1.2033
     1.3423   1.4444   1.6135   1.7939   2.0948   3.5164   3.6052   4.2595
     5.2202   5.2626

          k = 0.1667 0.2887 0.1043 (  2122 PWs)   bands (ev):

   -11.1897 -10.8521   0.4129   0.5581   0.7102   0.7686   0.9667   1.0195
     1.3783   1.4715   1.6031   1.7135   2.4257   3.5650   3.6603   4.2720
     5.1459   5.2589

          k = 0.1667 0.2887 0.2086 (  2114 PWs)   bands (ev):

   -11.1176 -10.9225   0.3548   0.4496   0.7119   0.7445   0.8598   0.9054
     1.4604   1.5034   1.5773   1.6395   2.8538   3.4099   4.0925   4.4037
     4.9459   5.1047

          k = 0.1667 0.2887-0.3128 (  2120 PWs)   bands (ev):

   -11.0197 -11.0197   0.3503   0.3503   0.7329   0.7329   0.8455   0.8455
     1.5321   1.5321   1.5631   1.5631   3.1677   3.1677   4.5891   4.5891
     4.7452   4.7452

          k = 0.1667 0.4811 0.0000 (  2127 PWs)   bands (ev):

   -10.9861 -10.7970   0.4921   0.7003   0.8309   0.9725   1.1767   1.2281
     1.4223   1.4751   1.6422   1.8100   2.1960   2.7432   3.2490   3.5443
     4.6590   4.8095

          k = 0.1667 0.4811 0.1043 (  2132 PWs)   bands (ev):

   -10.9720 -10.8080   0.4729   0.6624   0.7804   0.9600   1.1214   1.1587
     1.4287   1.5227   1.6403   1.7979   2.2172   2.7375   3.3545   3.7422
     4.6444   4.8192

          k = 0.1667 0.4811 0.2086 (  2135 PWs)   bands (ev):

   -10.9343 -10.8395   0.4212   0.5197   0.7812   0.9314   1.0358   1.0497
     1.4908   1.5441   1.6520   1.7521   2.3165   2.6215   3.6503   4.1987
     4.4305   4.8867

          k = 0.1667 0.4811-0.3128 (  2142 PWs)   bands (ev):

   -10.8853 -10.8853   0.4151   0.4151   0.8600   0.8600   1.0028   1.0028
     1.5337   1.5337   1.6940   1.6940   2.4633   2.4633   4.0194   4.0194
     4.7083   4.7083

          k = 0.3333 0.5774 0.0000 (  2127 PWs)   bands (ev):

   -10.8486 -10.8486   0.5267   0.8614   0.8614   1.2454   1.3448   1.3448
     1.3956   1.4807   1.6041   1.6041   2.4101   2.4737   2.4737   4.1031
     4.1031   4.3138

          k = 0.3333 0.5774 0.1043 (  2136 PWs)   bands (ev):

   -10.8467 -10.8467   0.5535   0.7948   0.7948   1.1450   1.2668   1.2668
     1.4026   1.4752   1.6934   1.6934   2.4275   2.4275   2.5766   4.1920
     4.2754   4.2754

          k = 0.3333 0.5774 0.2086 (  2157 PWs)   bands (ev):

   -10.8429 -10.8429   0.6347   0.6579   0.6579   0.9512   1.1967   1.1967
     1.4189   1.4601   1.7986   1.7986   2.3545   2.3545   2.9614   3.8654
     4.5984   4.5984

          k = 0.3333 0.5774-0.3128 (  2136 PWs)   bands (ev):

   -10.8410 -10.8410   0.5916   0.5916   0.7702   0.7702   1.1768   1.1768
     1.4397   1.4397   1.8389   1.8389   2.3238   2.3238   3.4234   3.4234
     4.7535   4.7535

     highest occupied level (ev):     5.7796

!    total energy              =    -361.63028018 Ry
     estimated scf accuracy    <          6.1E-09 Ry

     The total energy is the sum of the following terms:
     one-electron contribution =    -163.49562182 Ry
     hartree contribution      =     121.50884402 Ry
     xc contribution           =    -109.39267294 Ry
     ewald contribution        =    -210.25082944 Ry

     convergence has been achieved in  29 iterations

     Forces acting on atoms (cartesian axes, Ry/au):

     atom    1 type  1   force =     0.00000000    0.00000000   -0.00180772
     atom    2 type  1   force =     0.00000000   -0.00000000   -0.00180772
     atom    3 type  2   force =     0.00000000   -0.00000000    0.00180772
     atom    4 type  2   force =     0.00000000   -0.00000000    0.00180772
     The non-local contrib.  to forces
     atom    1 type  1   force =     0.00000000    0.00000000   -0.03220341
     atom    2 type  1   force =     0.00000000    0.00000000   -0.03220341
     atom    3 type  2   force =    -0.00000000   -0.00000000   -0.01857535
     atom    4 type  2   force =     0.00000000   -0.00000000   -0.01857535
     The ionic contribution  to forces
     atom    1 type  1   force =    -0.00000000    0.00000000   -0.13699832
     atom    2 type  1   force =     0.00000000   -0.00000000   -0.13699832
     atom    3 type  2   force =    -0.00000000    0.00000000    0.13699832
     atom    4 type  2   force =     0.00000000   -0.00000000    0.13699832
     The local contribution  to forces
     atom    1 type  1   force =    -0.00000002    0.00000001    0.16512862
     atom    2 type  1   force =     0.00000007   -0.00000004    0.16512862
     atom    3 type  2   force =    -0.00000001    0.00000000   -0.11674351
     atom    4 type  2   force =     0.00000002   -0.00000001   -0.11674352
     The core correction contribution to forces
     atom    1 type  1   force =    -0.00000000    0.00000000    0.00226259
     atom    2 type  1   force =     0.00000001   -0.00000001    0.00226259
     atom    3 type  2   force =     0.00000000   -0.00000000    0.00013437
     atom    4 type  2   force =    -0.00000000    0.00000000    0.00013437
     The Hubbard contrib.    to forces
     atom    1 type  1   force =     0.00000000    0.00000000    0.00000000
     atom    2 type  1   force =     0.00000000    0.00000000    0.00000000
     atom    3 type  2   force =     0.00000000    0.00000000    0.00000000
     atom    4 type  2   force =     0.00000000    0.00000000    0.00000000
     The SCF correction term to forces
     atom    1 type  1   force =     0.00000000   -0.00000000    0.00000632
     atom    2 type  1   force =    -0.00000000    0.00000000    0.00000632
     atom    3 type  2   force =    -0.00000000    0.00000000   -0.00000260
     atom    4 type  2   force =     0.00000000   -0.00000000   -0.00000260

     Total force =     0.003615     Total SCF correction =     0.000010


     Computing stress (Cartesian axis) and pressure

          total   stress  (Ry/bohr**3)                   (kbar)     P=      -89.25
  -0.00064336   0.00000000   0.00000000          -94.64        0.00        0.00
   0.00000000  -0.00064336   0.00000000            0.00      -94.64        0.00
   0.00000000   0.00000000  -0.00053338            0.00        0.00      -78.46


     Writing all to output data dir ./ZnO_ANN.save/

     init_run     :      1.84s CPU      1.25s WALL (       1 calls)
     electrons    :     96.55s CPU     36.29s WALL (       1 calls)
     forces       :      0.74s CPU      0.36s WALL (       1 calls)
     stress       :      2.59s CPU      1.23s WALL (       1 calls)

     Called by init_run:
     wfcinit      :      1.00s CPU      0.40s WALL (       1 calls)
     potinit      :      0.28s CPU      0.28s WALL (       1 calls)
     hinit0       :      0.41s CPU      0.42s WALL (       1 calls)

     Called by electrons:
     c_bands      :     77.49s CPU     28.77s WALL (      29 calls)
     sum_band     :     13.93s CPU      5.40s WALL (      29 calls)
     v_of_rho     :      1.26s CPU      0.57s WALL (      30 calls)
     newd         :      3.58s CPU      1.47s WALL (      30 calls)
     mix_rho      :      0.21s CPU      0.09s WALL (      29 calls)

     Called by c_bands:
     init_us_2    :      1.33s CPU      0.47s WALL (    1708 calls)
     init_us_2:cp :      1.30s CPU      0.46s WALL (    1708 calls)
     cegterg      :     74.51s CPU     27.60s WALL (     812 calls)

     Called by *egterg:
     cdiaghg      :     11.63s CPU      3.80s WALL (    3994 calls)
     h_psi        :     50.77s CPU     20.76s WALL (    4022 calls)
     s_psi        :      1.22s CPU      0.35s WALL (    4022 calls)
     g_psi        :      0.40s CPU      0.10s WALL (    3182 calls)

     Called by h_psi:
     h_psi:calbec :      2.02s CPU      0.75s WALL (    4022 calls)
     vloc_psi     :     47.08s CPU     19.47s WALL (    4022 calls)
     add_vuspsi   :      1.21s CPU      0.40s WALL (    4022 calls)

     General routines
     calbec       :      2.61s CPU      0.94s WALL (    4974 calls)
     fft          :      0.93s CPU      0.51s WALL (     413 calls)
     ffts         :      0.18s CPU      0.15s WALL (      59 calls)
     fftw         :     46.97s CPU     19.47s WALL (  108484 calls)
     interpolate  :      0.21s CPU      0.16s WALL (      30 calls)

     Parallel routines

     PWSCF        :   1m42.26s CPU     39.60s WALL


   This run was terminated on:  18: 1:10  13Jun2025            

=------------------------------------------------------------------------------=
   JOB DONE.
=------------------------------------------------------------------------------=
Note: The following floating-point exceptions are signalling: IEEE_INVALID_FLAG
