Authorization required, but no authorization protocol specified

Authorization required, but no authorization protocol specified

Authorization required, but no authorization protocol specified

Authorization required, but no authorization protocol specified

Authorization required, but no authorization protocol specified

Authorization required, but no authorization protocol specified

Authorization required, but no authorization protocol specified

Authorization required, but no authorization protocol specified

Authorization required, but no authorization protocol specified

Authorization required, but no authorization protocol specified


     Program PWSCF v.7.2 starts on 13Jun2025 at 16:44:22 

     This program is part of the open-source Quantum ESPRESSO suite
     for quantum simulation of materials; please cite
         "P. Giannozzi et al., J. Phys.:Condens. Matter 21 395502 (2009);
         "P. Giannozzi et al., J. Phys.:Condens. Matter 29 465901 (2017);
         "P. Giannozzi et al., J. Chem. Phys. 152 154105 (2020);
          URL http://www.quantum-espresso.org", 
     in publications or presentations arising from this work. More details at
     http://www.quantum-espresso.org/quote

     Parallel version (MPI), running on     8 processors

     MPI processes distributed on     1 nodes
     120720 MiB available memory on the printing compute node when the environment starts

     Reading input from /home/jvc/QEspresso7.2/ZnO_database_python/SCFs.in/scf-6.06-1.61.in

     Current dimensions of program PWSCF are:
     Max number of different atomic species (ntypx) = 10
     Max number of k-points (npk) =  40000
     Max angular momentum in pseudopotentials (lmaxx) =  4
     file Zn.upf: wavefunction(s)  3D renormalized

     R & G space division:  proc/nbgrp/npool/nimage =       8
     Subspace diagonalization in iterative solution of the eigenvalue problem:
     a serial algorithm will be used


     Parallelization info
     --------------------
     sticks:   dense  smooth     PW     G-vecs:    dense   smooth      PW
     Min         126      63     18                 5254     1842     314
     Max         127      65     19                 5257     1845     319
     Sum        1015     511    151                42045    14751    2539

     Using Slab Decomposition



     bravais-lattice index     =            4
     lattice parameter (alat)  =       6.0552  a.u.
     unit-cell volume          =     310.4029 (a.u.)^3
     number of atoms/cell      =            4
     number of atomic types    =            2
     number of electrons       =        36.00
     number of Kohn-Sham states=           18
     kinetic-energy cutoff     =      50.0000  Ry
     charge density cutoff     =     400.0000  Ry
     scf convergence threshold =      1.0E-08
     mixing beta               =       0.3000
     number of iterations used =            8  plain     mixing
     Exchange-correlation= PBE
                           (   1   4   3   4   0   0   0)

     celldm(1)=   6.055245  celldm(2)=   0.000000  celldm(3)=   1.614358
     celldm(4)=   0.000000  celldm(5)=   0.000000  celldm(6)=   0.000000

     crystal axes: (cart. coord. in units of alat)
               a(1) = (   1.000000   0.000000   0.000000 )  
               a(2) = (  -0.500000   0.866025   0.000000 )  
               a(3) = (   0.000000   0.000000   1.614358 )  

     reciprocal axes: (cart. coord. in units 2 pi/alat)
               b(1) = (  1.000000  0.577350 -0.000000 )  
               b(2) = (  0.000000  1.154701  0.000000 )  
               b(3) = (  0.000000 -0.000000  0.619441 )  


     PseudoPot. # 1 for Zn read from file:
     /home/jvc/QEspresso7.2/ZnO_database/pseudos/Zn.upf
     MD5 check sum: 7f56cabf9682ed8c977c2f7d0c5985c5
     Pseudo is Ultrasoft + core correction, Zval = 12.0
     Generated using &quot;atomic&quot; code by A. Dal Corso  v.6.2.2
     Using radial grid of 1201 points,  6 beta functions with: 
                l(1) =   0
                l(2) =   0
                l(3) =   1
                l(4) =   1
                l(5) =   2
                l(6) =   2
     Q(r) pseudized with 0 coefficients 


     PseudoPot. # 2 for O  read from file:
     /home/jvc/QEspresso7.2/ZnO_database/pseudos/O.upf
     MD5 check sum: 91400c9766925bcf19f520983a725ff0
     Pseudo is Ultrasoft + core correction, Zval =  6.0
     Generated using &quot;atomic&quot; code by A. Dal Corso  v.6.3MaX
     Using radial grid of 1095 points,  4 beta functions with: 
                l(1) =   0
                l(2) =   0
                l(3) =   1
                l(4) =   1
     Q(r) pseudized with 0 coefficients 


     atomic species   valence    mass     pseudopotential
        Zn            12.00    63.38000     Zn( 1.00)
        O              6.00    15.99900     O ( 1.00)

     12 Sym. Ops. (no inversion) found ( 6 have fractional translation)



   Cartesian axes

     site n.     atom                  positions (alat units)
         1           Zn  tau(   1) = (   0.5000000   0.2886751   0.8082020  )
         2           Zn  tau(   2) = (  -0.0000000   0.5773503   0.0010228  )
         3           O   tau(   3) = (   0.5000000   0.2886751   1.4201130  )
         4           O   tau(   4) = (  -0.0000000   0.5773503   0.6129338  )

     number of k points=    28
                       cart. coord. in units 2pi/alat
        k(    1) = (   0.0000000   0.0000000   0.0000000), wk =   0.0092593
        k(    2) = (   0.0000000   0.0000000   0.1032402), wk =   0.0185185
        k(    3) = (   0.0000000   0.0000000   0.2064804), wk =   0.0185185
        k(    4) = (   0.0000000   0.0000000  -0.3097206), wk =   0.0092593
        k(    5) = (   0.0000000   0.1924501   0.0000000), wk =   0.0555556
        k(    6) = (   0.0000000   0.1924501   0.1032402), wk =   0.1111111
        k(    7) = (   0.0000000   0.1924501   0.2064804), wk =   0.1111111
        k(    8) = (   0.0000000   0.1924501  -0.3097206), wk =   0.0555556
        k(    9) = (   0.0000000   0.3849002   0.0000000), wk =   0.0555556
        k(   10) = (   0.0000000   0.3849002   0.1032402), wk =   0.1111111
        k(   11) = (   0.0000000   0.3849002   0.2064804), wk =   0.1111111
        k(   12) = (   0.0000000   0.3849002  -0.3097206), wk =   0.0555556
        k(   13) = (   0.0000000  -0.5773503   0.0000000), wk =   0.0277778
        k(   14) = (   0.0000000  -0.5773503   0.1032402), wk =   0.0555556
        k(   15) = (   0.0000000  -0.5773503   0.2064804), wk =   0.0555556
        k(   16) = (   0.0000000  -0.5773503  -0.3097206), wk =   0.0277778
        k(   17) = (   0.1666667   0.2886751   0.0000000), wk =   0.0555556
        k(   18) = (   0.1666667   0.2886751   0.1032402), wk =   0.1111111
        k(   19) = (   0.1666667   0.2886751   0.2064804), wk =   0.1111111
        k(   20) = (   0.1666667   0.2886751  -0.3097206), wk =   0.0555556
        k(   21) = (   0.1666667   0.4811252   0.0000000), wk =   0.1111111
        k(   22) = (   0.1666667   0.4811252   0.1032402), wk =   0.2222222
        k(   23) = (   0.1666667   0.4811252   0.2064804), wk =   0.2222222
        k(   24) = (   0.1666667   0.4811252  -0.3097206), wk =   0.1111111
        k(   25) = (   0.3333333   0.5773503   0.0000000), wk =   0.0185185
        k(   26) = (   0.3333333   0.5773503   0.1032402), wk =   0.0370370
        k(   27) = (   0.3333333   0.5773503   0.2064804), wk =   0.0370370
        k(   28) = (   0.3333333   0.5773503  -0.3097206), wk =   0.0185185

     Dense  grid:    42045 G-vectors     FFT dimensions: (  40,  40,  64)

     Smooth grid:    14751 G-vectors     FFT dimensions: (  27,  27,  48)

     Estimated max dynamical RAM per process >      24.56 MB

     Estimated total dynamical RAM >     196.45 MB

     Check: negative core charge=   -0.000002

     Initial potential from superposition of free atoms

     starting charge      35.9925, renormalised to      36.0000
     Starting wfcs are   26 randomized atomic wfcs

     total cpu time spent up to now is        1.5 secs

     Self-consistent Calculation

     iteration #  1     ecut=    50.00 Ry     beta= 0.30
     Davidson diagonalization with overlap
     ethr =  1.00E-02,  avg # of iterations =  1.9

     total cpu time spent up to now is        2.3 secs

     total energy              =    -361.47950266 Ry
     estimated scf accuracy    <       0.67710300 Ry

     iteration #  2     ecut=    50.00 Ry     beta= 0.30
     Davidson diagonalization with overlap
     ethr =  1.88E-03,  avg # of iterations =  2.0

     total cpu time spent up to now is        3.3 secs

     total energy              =    -361.56372835 Ry
     estimated scf accuracy    <       0.09838225 Ry

     iteration #  3     ecut=    50.00 Ry     beta= 0.30
     Davidson diagonalization with overlap
     ethr =  2.73E-04,  avg # of iterations =  6.1

     total cpu time spent up to now is        4.8 secs

     total energy              =    -361.60028407 Ry
     estimated scf accuracy    <       0.06345087 Ry

     iteration #  4     ecut=    50.00 Ry     beta= 0.30
     Davidson diagonalization with overlap
     ethr =  1.76E-04,  avg # of iterations =  8.0

     total cpu time spent up to now is        6.7 secs

     total energy              =    -361.65154710 Ry
     estimated scf accuracy    <       0.24281413 Ry

     iteration #  5     ecut=    50.00 Ry     beta= 0.30
     Davidson diagonalization with overlap
     ethr =  1.76E-04,  avg # of iterations =  1.1

     total cpu time spent up to now is        7.5 secs

     total energy              =    -361.53621192 Ry
     estimated scf accuracy    <       0.15230525 Ry

     iteration #  6     ecut=    50.00 Ry     beta= 0.30
     Davidson diagonalization with overlap
     ethr =  1.76E-04,  avg # of iterations =  8.9

     total cpu time spent up to now is        9.5 secs

     total energy              =    -361.60324161 Ry
     estimated scf accuracy    <       0.31869899 Ry

     iteration #  7     ecut=    50.00 Ry     beta= 0.30
     Davidson diagonalization with overlap
     ethr =  1.76E-04,  avg # of iterations =  4.3

     total cpu time spent up to now is       10.6 secs

     total energy              =    -361.63440662 Ry
     estimated scf accuracy    <       0.04325166 Ry

     iteration #  8     ecut=    50.00 Ry     beta= 0.30
     Davidson diagonalization with overlap
     ethr =  1.20E-04,  avg # of iterations =  1.4

     total cpu time spent up to now is       11.4 secs

     total energy              =    -361.63578065 Ry
     estimated scf accuracy    <       0.04696877 Ry

     iteration #  9     ecut=    50.00 Ry     beta= 0.30
     Davidson diagonalization with overlap
     ethr =  1.20E-04,  avg # of iterations =  1.4

     total cpu time spent up to now is       12.2 secs

     total energy              =    -361.63087749 Ry
     estimated scf accuracy    <       0.04149106 Ry

     iteration # 10     ecut=    50.00 Ry     beta= 0.30
     Davidson diagonalization with overlap
     ethr =  1.15E-04,  avg # of iterations =  1.1

     total cpu time spent up to now is       13.0 secs

     total energy              =    -361.62630503 Ry
     estimated scf accuracy    <       0.02811664 Ry

     iteration # 11     ecut=    50.00 Ry     beta= 0.30
     Davidson diagonalization with overlap
     ethr =  7.81E-05,  avg # of iterations =  2.0

     total cpu time spent up to now is       13.8 secs

     total energy              =    -361.63068103 Ry
     estimated scf accuracy    <       0.00999848 Ry

     iteration # 12     ecut=    50.00 Ry     beta= 0.30
     Davidson diagonalization with overlap
     ethr =  2.78E-05,  avg # of iterations =  2.0

     total cpu time spent up to now is       14.6 secs

     total energy              =    -361.63185696 Ry
     estimated scf accuracy    <       0.01223900 Ry

     iteration # 13     ecut=    50.00 Ry     beta= 0.30
     Davidson diagonalization with overlap
     ethr =  2.78E-05,  avg # of iterations =  1.0

     total cpu time spent up to now is       15.4 secs

     total energy              =    -361.62938190 Ry
     estimated scf accuracy    <       0.01308566 Ry

     iteration # 14     ecut=    50.00 Ry     beta= 0.30
     Davidson diagonalization with overlap
     ethr =  2.78E-05,  avg # of iterations =  1.5

     total cpu time spent up to now is       16.2 secs

     total energy              =    -361.62727462 Ry
     estimated scf accuracy    <       0.00745442 Ry

     iteration # 15     ecut=    50.00 Ry     beta= 0.30
     Davidson diagonalization with overlap
     ethr =  2.07E-05,  avg # of iterations =  4.0

     total cpu time spent up to now is       17.2 secs

     total energy              =    -361.62923483 Ry
     estimated scf accuracy    <       0.00036233 Ry

     iteration # 16     ecut=    50.00 Ry     beta= 0.30
     Davidson diagonalization with overlap
     ethr =  1.01E-06,  avg # of iterations =  5.2

     total cpu time spent up to now is       18.5 secs

     total energy              =    -361.62920225 Ry
     estimated scf accuracy    <       0.00040634 Ry

     iteration # 17     ecut=    50.00 Ry     beta= 0.30
     Davidson diagonalization with overlap
     ethr =  1.01E-06,  avg # of iterations =  5.3

     total cpu time spent up to now is       19.9 secs

     total energy              =    -361.62936238 Ry
     estimated scf accuracy    <       0.00017081 Ry

     iteration # 18     ecut=    50.00 Ry     beta= 0.30
     Davidson diagonalization with overlap
     ethr =  4.74E-07,  avg # of iterations =  1.6

     total cpu time spent up to now is       20.7 secs

     total energy              =    -361.62998668 Ry
     estimated scf accuracy    <       0.00007135 Ry

     iteration # 19     ecut=    50.00 Ry     beta= 0.30
     Davidson diagonalization with overlap
     ethr =  1.98E-07,  avg # of iterations = 10.9

     total cpu time spent up to now is       23.2 secs

     total energy              =    -361.63002036 Ry
     estimated scf accuracy    <       0.00493312 Ry

     iteration # 20     ecut=    50.00 Ry     beta= 0.30
     Davidson diagonalization with overlap
     ethr =  1.98E-07,  avg # of iterations =  6.1

     total cpu time spent up to now is       24.7 secs

     total energy              =    -361.63039475 Ry
     estimated scf accuracy    <       0.00283325 Ry

     iteration # 21     ecut=    50.00 Ry     beta= 0.30
     Davidson diagonalization with overlap
     ethr =  1.98E-07,  avg # of iterations =  2.0

     total cpu time spent up to now is       25.6 secs

     total energy              =    -361.63017211 Ry
     estimated scf accuracy    <       0.00344646 Ry

     iteration # 22     ecut=    50.00 Ry     beta= 0.30
     Davidson diagonalization with overlap
     ethr =  1.98E-07,  avg # of iterations =  1.5

     total cpu time spent up to now is       26.3 secs

     total energy              =    -361.62929338 Ry
     estimated scf accuracy    <       0.00310293 Ry

     iteration # 23     ecut=    50.00 Ry     beta= 0.30
     Davidson diagonalization with overlap
     ethr =  1.98E-07,  avg # of iterations =  8.6

     total cpu time spent up to now is       28.4 secs

     total energy              =    -361.62911079 Ry
     estimated scf accuracy    <       0.00052720 Ry

     iteration # 24     ecut=    50.00 Ry     beta= 0.30
     Davidson diagonalization with overlap
     ethr =  1.98E-07,  avg # of iterations = 10.2

     total cpu time spent up to now is       30.7 secs

     total energy              =    -361.62932224 Ry
     estimated scf accuracy    <       0.00067004 Ry

     iteration # 25     ecut=    50.00 Ry     beta= 0.30
     Davidson diagonalization with overlap
     ethr =  1.98E-07,  avg # of iterations =  6.1

     total cpu time spent up to now is       32.2 secs

     total energy              =    -361.62940129 Ry
     estimated scf accuracy    <       0.00007566 Ry

     iteration # 26     ecut=    50.00 Ry     beta= 0.30
     Davidson diagonalization with overlap
     ethr =  1.98E-07,  avg # of iterations =  1.0

     total cpu time spent up to now is       33.0 secs

     total energy              =    -361.62941201 Ry
     estimated scf accuracy    <       0.00011470 Ry

     iteration # 27     ecut=    50.00 Ry     beta= 0.30
     Davidson diagonalization with overlap
     ethr =  1.98E-07,  avg # of iterations =  1.0

     total cpu time spent up to now is       33.7 secs

     total energy              =    -361.62934864 Ry
     estimated scf accuracy    <       0.00014622 Ry

     iteration # 28     ecut=    50.00 Ry     beta= 0.30
     Davidson diagonalization with overlap
     ethr =  1.98E-07,  avg # of iterations =  2.4

     total cpu time spent up to now is       34.6 secs

     total energy              =    -361.62935364 Ry
     estimated scf accuracy    <       0.00002966 Ry

     iteration # 29     ecut=    50.00 Ry     beta= 0.30
     Davidson diagonalization with overlap
     ethr =  8.24E-08,  avg # of iterations =  5.2

     total cpu time spent up to now is       35.9 secs

     total energy              =    -361.62936963 Ry
     estimated scf accuracy    <       0.00000016 Ry

     iteration # 30     ecut=    50.00 Ry     beta= 0.30
     Davidson diagonalization with overlap
     c_bands:  1 eigenvalues not converged
     ethr =  4.39E-10,  avg # of iterations = 11.8

     total cpu time spent up to now is       38.5 secs

     total energy              =    -361.62937079 Ry
     estimated scf accuracy    <       0.00000944 Ry

     iteration # 31     ecut=    50.00 Ry     beta= 0.30
     Davidson diagonalization with overlap
     ethr =  4.39E-10,  avg # of iterations =  5.9

     total cpu time spent up to now is       40.0 secs

     total energy              =    -361.62936992 Ry
     estimated scf accuracy    <       0.00000539 Ry

     iteration # 32     ecut=    50.00 Ry     beta= 0.30
     Davidson diagonalization with overlap
     ethr =  4.39E-10,  avg # of iterations =  6.9

     total cpu time spent up to now is       41.7 secs

     total energy              =    -361.62936963 Ry
     estimated scf accuracy    <       0.00000206 Ry

     iteration # 33     ecut=    50.00 Ry     beta= 0.30
     Davidson diagonalization with overlap
     ethr =  4.39E-10,  avg # of iterations =  5.1

     total cpu time spent up to now is       43.0 secs

     total energy              =    -361.62936948 Ry
     estimated scf accuracy    <       0.00000064 Ry

     iteration # 34     ecut=    50.00 Ry     beta= 0.30
     Davidson diagonalization with overlap
     ethr =  4.39E-10,  avg # of iterations =  5.5

     total cpu time spent up to now is       44.4 secs

     total energy              =    -361.62936956 Ry
     estimated scf accuracy    <       0.00000002 Ry

     iteration # 35     ecut=    50.00 Ry     beta= 0.30
     Davidson diagonalization with overlap
     ethr =  4.60E-11,  avg # of iterations =  6.4

     total cpu time spent up to now is       45.9 secs

     total energy              =    -361.62936958 Ry
     estimated scf accuracy    <       0.00000001 Ry

     iteration # 36     ecut=    50.00 Ry     beta= 0.30
     Davidson diagonalization with overlap
     ethr =  3.16E-11,  avg # of iterations =  2.0

     total cpu time spent up to now is       46.7 secs

     total energy              =    -361.62936958 Ry
     estimated scf accuracy    <       0.00000002 Ry

     iteration # 37     ecut=    50.00 Ry     beta= 0.30
     Davidson diagonalization with overlap
     ethr =  3.16E-11,  avg # of iterations =  1.9

     total cpu time spent up to now is       47.5 secs

     End of self-consistent calculation

          k = 0.0000 0.0000 0.0000 (  1811 PWs)   bands (ev):

   -10.5727  -9.7993   1.8842   1.9367   1.9367   1.9853   2.1416   2.1416
     3.2338   3.2338   3.4620   3.4620   3.7476   6.9766   6.9766   7.7065
     7.8089   7.8089

          k = 0.0000 0.0000 0.1032 (  1858 PWs)   bands (ev):

   -10.5238  -9.8542   1.7911   1.9266   1.9438   1.9438   2.1205   2.1205
     3.2543   3.2543   3.4522   3.4522   4.0444   7.0332   7.0332   7.1570
     7.7543   7.7543

          k = 0.0000 0.0000 0.2065 (  1864 PWs)   bands (ev):

   -10.3880 -10.0016   1.6757   1.7937   1.9683   1.9683   2.0694   2.0694
     3.3071   3.3071   3.4225   3.4225   4.7275   6.3590   7.1876   7.1876
     7.6042   7.6042

          k = 0.0000 0.0000-0.3097 (  1858 PWs)   bands (ev):

   -10.1977 -10.1977   1.6811   1.6811   2.0123   2.0123   2.0123   2.0123
     3.3707   3.3707   3.3707   3.3707   5.5387   5.5387   7.3970   7.3970
     7.3970   7.3970

          k = 0.0000 0.1925 0.0000 (  1836 PWs)   bands (ev):

   -10.4154  -9.7312   1.7607   2.0228   2.0424   2.0875   2.2008   2.2699
     3.1668   3.2319   3.4741   3.5603   3.7222   6.0454   6.6123   6.6986
     7.5129   7.6080

          k = 0.0000 0.1925 0.1032 (  1844 PWs)   bands (ev):

   -10.3712  -9.7786   1.7236   1.8856   2.0332   2.0749   2.1931   2.2462
     3.2007   3.2518   3.4617   3.5077   4.0858   6.1057   6.5377   6.6815
     7.4318   7.5434

          k = 0.0000 0.1925 0.2065 (  1853 PWs)   bands (ev):

   -10.2493  -9.9070   1.6338   1.6835   2.0656   2.0700   2.1487   2.1874
     3.2799   3.3032   3.4248   3.4496   4.7853   6.0261   6.4289   6.8683
     7.1497   7.3654

          k = 0.0000 0.1925-0.3097 (  1850 PWs)   bands (ev):

   -10.0798 -10.0798   1.5969   1.5969   2.0984   2.0984   2.1200   2.1200
     3.3676   3.3676   3.3713   3.3713   5.4893   5.4893   6.7518   6.7518
     7.1190   7.1190

          k = 0.0000 0.3849 0.0000 (  1860 PWs)   bands (ev):

   -10.0606  -9.6169   1.5772   1.9567   2.1627   2.3531   2.5834   2.6663
     3.1248   3.3141   3.4961   3.6000   3.9042   4.5642   5.5076   5.8590
     6.9396   7.1679

          k = 0.0000 0.3849 0.1032 (  1855 PWs)   bands (ev):

   -10.0300  -9.6453   1.5410   1.8406   2.1841   2.3268   2.5410   2.5465
     3.1739   3.3249   3.4808   3.5923   4.1503   4.7087   5.4624   5.9560
     6.9568   7.0856

          k = 0.0000 0.3849 0.2065 (  1851 PWs)   bands (ev):

    -9.9467  -9.7243   1.4739   1.6119   2.2465   2.3043   2.4078   2.4535
     3.2851   3.3551   3.4434   3.5182   4.4762   4.8828   5.6950   6.2107
     6.8195   6.8586

          k = 0.0000 0.3849-0.3097 (  1852 PWs)   bands (ev):

    -9.8344  -9.8344   1.4742   1.4742   2.3312   2.3312   2.3425   2.3425
     3.3977   3.3977   3.4088   3.4088   4.7219   4.7219   6.3410   6.3410
     6.5411   6.5411

          k = 0.0000-0.5774 0.0000 (  1862 PWs)   bands (ev):

    -9.8348  -9.5981   1.6619   1.8252   2.2089   2.5724   2.6314   2.7822
     3.2645   3.4206   3.5133   3.5920   4.0557   4.1453   4.8828   5.4335
     6.4626   6.9255

          k = 0.0000-0.5774 0.1032 (  1868 PWs)   bands (ev):

    -9.8167  -9.6114   1.6072   1.7234   2.2379   2.5348   2.6008   2.7310
     3.3357   3.4236   3.4982   3.5910   4.0081   4.1125   5.1791   5.5516
     6.5497   6.8347

          k = 0.0000-0.5774 0.2065 (  1860 PWs)   bands (ev):

    -9.7685  -9.6497   1.4978   1.5400   2.3223   2.4992   2.5438   2.6032
     3.4323   3.4518   3.4702   3.5788   3.9719   4.0461   5.7965   5.8520
     6.5835   6.6153

          k = 0.0000-0.5774-0.3097 (  1832 PWs)   bands (ev):

    -9.7067  -9.7067   1.4504   1.4504   2.4523   2.4523   2.5043   2.5043
     3.4475   3.4475   3.5366   3.5366   3.9903   3.9903   6.2290   6.2290
     6.3636   6.3636

          k = 0.1667 0.2887 0.0000 (  1851 PWs)   bands (ev):

   -10.1577  -9.6404   1.7000   1.9238   2.1683   2.2151   2.5114   2.5525
     3.1090   3.2529   3.4880   3.6182   3.8570   5.1855   5.4835   6.0441
     7.1243   7.1481

          k = 0.1667 0.2887 0.1032 (  1840 PWs)   bands (ev):

   -10.1228  -9.6745   1.6581   1.8465   2.1575   2.1830   2.4293   2.4803
     3.1568   3.2901   3.4743   3.5854   4.1883   5.3131   5.4769   6.0332
     7.0375   7.1345

          k = 0.1667 0.2887 0.2065 (  1856 PWs)   bands (ev):

   -10.0275  -9.7684   1.5723   1.6531   2.1515   2.1673   2.3350   2.4058
     3.2676   3.3367   3.4381   3.5084   4.7168   5.3465   5.7444   6.1642
     6.8040   6.9357

          k = 0.1667 0.2887-0.3097 (  1862 PWs)   bands (ev):

    -9.8976  -9.8976   1.5443   1.5443   2.1643   2.1643   2.3361   2.3361
     3.3754   3.3754   3.4087   3.4087   5.0869   5.0869   6.3295   6.3295
     6.5496   6.5496

          k = 0.1667 0.4811 0.0000 (  1857 PWs)   bands (ev):

    -9.8438  -9.5934   1.7682   2.0148   2.2020   2.4287   2.7309   2.8104
     3.1957   3.2732   3.5263   3.7029   3.8594   4.4797   4.8227   5.1747
     6.4228   6.6340

          k = 0.1667 0.4811 0.1032 (  1861 PWs)   bands (ev):

    -9.8248  -9.6077   1.7250   1.9193   2.1894   2.4037   2.6578   2.7220
     3.2127   3.3585   3.5217   3.7312   3.8829   4.5138   4.9276   5.3672
     6.4079   6.6291

          k = 0.1667 0.4811 0.2065 (  1853 PWs)   bands (ev):

    -9.7743  -9.6487   1.6303   1.7179   2.2136   2.3589   2.5646   2.5993
     3.3052   3.3934   3.5317   3.6676   4.0513   4.4124   5.2796   5.8436
     6.1872   6.6667

          k = 0.1667 0.4811-0.3097 (  1854 PWs)   bands (ev):

    -9.7091  -9.7091   1.6012   1.6012   2.2897   2.2897   2.5375   2.5375
     3.3749   3.3749   3.5838   3.5838   4.2413   4.2413   5.6991   5.6991
     6.4482   6.4482

          k = 0.3333 0.5774 0.0000 (  1851 PWs)   bands (ev):

    -9.6589  -9.6589   1.8744   2.2901   2.2901   2.6081   2.9579   2.9579
     3.1446   3.2938   3.2938   3.2986   3.9672   4.2436   4.2436   5.8110
     5.8110   5.9967

          k = 0.3333 0.5774 0.1032 (  1863 PWs)   bands (ev):

    -9.6560  -9.6560   1.9021   2.1772   2.1772   2.5073   2.8447   2.8447
     3.1644   3.2901   3.4743   3.4743   4.1312   4.1969   4.1969   5.8608
     5.9836   5.9836

          k = 0.3333 0.5774 0.2065 (  1857 PWs)   bands (ev):

    -9.6501  -9.6501   1.9675   1.9675   1.9857   2.3103   2.7640   2.7640
     3.1994   3.2674   3.6969   3.6969   4.0998   4.0998   4.5276   5.5001
     6.3183   6.3183

          k = 0.3333 0.5774-0.3097 (  1854 PWs)   bands (ev):

    -9.6472  -9.6472   1.8727   1.8727   2.1247   2.1247   2.7429   2.7429
     3.2353   3.2353   3.8045   3.8045   4.0328   4.0328   5.0195   5.0195
     6.4829   6.4829

     highest occupied level (ev):     7.8089

!    total energy              =    -361.62936957 Ry
     estimated scf accuracy    <          8.8E-09 Ry

     The total energy is the sum of the following terms:
     one-electron contribution =    -147.51047241 Ry
     hartree contribution      =     115.81527604 Ry
     xc contribution           =    -109.67422673 Ry
     ewald contribution        =    -220.25994647 Ry

     convergence has been achieved in  37 iterations

     Forces acting on atoms (cartesian axes, Ry/au):

     atom    1 type  1   force =     0.00000000    0.00000000    0.00021745
     atom    2 type  1   force =     0.00000000    0.00000000    0.00021745
     atom    3 type  2   force =     0.00000000    0.00000000   -0.00021745
     atom    4 type  2   force =     0.00000000   -0.00000000   -0.00021745
     The non-local contrib.  to forces
     atom    1 type  1   force =     0.00000000    0.00000000   -0.00508062
     atom    2 type  1   force =     0.00000000    0.00000000   -0.00508062
     atom    3 type  2   force =     0.00000000    0.00000000    0.00507619
     atom    4 type  2   force =     0.00000000    0.00000000    0.00507619
     The ionic contribution  to forces
     atom    1 type  1   force =    -0.00000000    0.00000000    0.06530350
     atom    2 type  1   force =     0.00000000   -0.00000000    0.06530350
     atom    3 type  2   force =    -0.00000000    0.00000000   -0.06530350
     atom    4 type  2   force =     0.00000000   -0.00000000   -0.06530350
     The local contribution  to forces
     atom    1 type  1   force =    -0.00000002    0.00000001   -0.06054949
     atom    2 type  1   force =     0.00000006   -0.00000004   -0.06054949
     atom    3 type  2   force =    -0.00000001    0.00000000    0.06006786
     atom    4 type  2   force =     0.00000002   -0.00000001    0.06006786
     The core correction contribution to forces
     atom    1 type  1   force =    -0.00000000    0.00000000    0.00054520
     atom    2 type  1   force =     0.00000001   -0.00000000    0.00054520
     atom    3 type  2   force =     0.00000000   -0.00000000   -0.00005854
     atom    4 type  2   force =    -0.00000000    0.00000000   -0.00005854
     The Hubbard contrib.    to forces
     atom    1 type  1   force =     0.00000000    0.00000000    0.00000000
     atom    2 type  1   force =     0.00000000    0.00000000    0.00000000
     atom    3 type  2   force =     0.00000000    0.00000000    0.00000000
     atom    4 type  2   force =     0.00000000    0.00000000    0.00000000
     The SCF correction term to forces
     atom    1 type  1   force =     0.00000000   -0.00000000   -0.00000144
     atom    2 type  1   force =    -0.00000000    0.00000000   -0.00000144
     atom    3 type  2   force =    -0.00000000    0.00000000    0.00000023
     atom    4 type  2   force =     0.00000000   -0.00000000    0.00000023

     Total force =     0.000435     Total SCF correction =     0.000002


     Computing stress (Cartesian axis) and pressure

          total   stress  (Ry/bohr**3)                   (kbar)     P=       91.58
   0.00062533  -0.00000000   0.00000000           91.99       -0.00        0.00
  -0.00000000   0.00062533   0.00000000           -0.00       91.99        0.00
   0.00000000   0.00000000   0.00061696            0.00        0.00       90.76


     Writing all to output data dir ./ZnO_ANN.save/

     init_run     :      1.77s CPU      1.16s WALL (       1 calls)
     electrons    :    123.17s CPU     46.04s WALL (       1 calls)
     forces       :      0.65s CPU      0.29s WALL (       1 calls)
     stress       :      2.20s CPU      1.08s WALL (       1 calls)

     Called by init_run:
     wfcinit      :      0.98s CPU      0.38s WALL (       1 calls)
     potinit      :      0.22s CPU      0.22s WALL (       1 calls)
     hinit0       :      0.45s CPU      0.46s WALL (       1 calls)

     Called by electrons:
     c_bands      :    101.82s CPU     37.60s WALL (      37 calls)
     sum_band     :     15.86s CPU      6.21s WALL (      37 calls)
     v_of_rho     :      1.19s CPU      0.52s WALL (      38 calls)
     newd         :      4.02s CPU      1.61s WALL (      38 calls)
     mix_rho      :      0.20s CPU      0.09s WALL (      37 calls)

     Called by c_bands:
     init_us_2    :      1.43s CPU      0.51s WALL (    2156 calls)
     init_us_2:cp :      1.40s CPU      0.50s WALL (    2156 calls)
     cegterg      :     98.55s CPU     36.35s WALL (    1036 calls)

     Called by *egterg:
     cdiaghg      :     16.19s CPU      5.29s WALL (    5504 calls)
     h_psi        :     67.10s CPU     27.21s WALL (    5532 calls)
     s_psi        :      1.54s CPU      0.46s WALL (    5532 calls)
     g_psi        :      0.52s CPU      0.13s WALL (    4468 calls)

     Called by h_psi:
     h_psi:calbec :      2.30s CPU      0.84s WALL (    5532 calls)
     vloc_psi     :     62.65s CPU     25.69s WALL (    5532 calls)
     add_vuspsi   :      1.54s CPU      0.50s WALL (    5532 calls)

     General routines
     calbec       :      2.91s CPU      1.04s WALL (    6708 calls)
     fft          :      0.87s CPU      0.51s WALL (     517 calls)
     ffts         :      0.15s CPU      0.12s WALL (      75 calls)
     fftw         :     63.13s CPU     25.99s WALL (  152312 calls)
     interpolate  :      0.17s CPU      0.13s WALL (      38 calls)

     Parallel routines

     PWSCF        :   2m 8.32s CPU     49.05s WALL


   This run was terminated on:  16:45:11  13Jun2025            

=------------------------------------------------------------------------------=
   JOB DONE.
=------------------------------------------------------------------------------=
Note: The following floating-point exceptions are signalling: IEEE_INVALID_FLAG
