Authorization required, but no authorization protocol specified

Authorization required, but no authorization protocol specified

Authorization required, but no authorization protocol specified

Authorization required, but no authorization protocol specified

Authorization required, but no authorization protocol specified

Authorization required, but no authorization protocol specified

Authorization required, but no authorization protocol specified

Authorization required, but no authorization protocol specified

Authorization required, but no authorization protocol specified

Authorization required, but no authorization protocol specified


     Program PWSCF v.7.2 starts on 13Jun2025 at 19:21:44 

     This program is part of the open-source Quantum ESPRESSO suite
     for quantum simulation of materials; please cite
         "P. Giannozzi et al., J. Phys.:Condens. Matter 21 395502 (2009);
         "P. Giannozzi et al., J. Phys.:Condens. Matter 29 465901 (2017);
         "P. Giannozzi et al., J. Chem. Phys. 152 154105 (2020);
          URL http://www.quantum-espresso.org", 
     in publications or presentations arising from this work. More details at
     http://www.quantum-espresso.org/quote

     Parallel version (MPI), running on     8 processors

     MPI processes distributed on     1 nodes
     120705 MiB available memory on the printing compute node when the environment starts

     Reading input from /home/jvc/QEspresso7.2/ZnO_database_python/SCFs.in/scf-6.67-1.52.in

     Current dimensions of program PWSCF are:
     Max number of different atomic species (ntypx) = 10
     Max number of k-points (npk) =  40000
     Max angular momentum in pseudopotentials (lmaxx) =  4
     file Zn.upf: wavefunction(s)  3D renormalized

     R & G space division:  proc/nbgrp/npool/nimage =       8
     Subspace diagonalization in iterative solution of the eigenvalue problem:
     a serial algorithm will be used


     Parallelization info
     --------------------
     sticks:   dense  smooth     PW     G-vecs:    dense   smooth      PW
     Min         154      75     23                 6598     2324     381
     Max         155      79     24                 6603     2329     386
     Sum        1237     613    187                52805    18609    3067

     Using Slab Decomposition



     bravais-lattice index     =            4
     lattice parameter (alat)  =       6.6731  a.u.
     unit-cell volume          =     390.5230 (a.u.)^3
     number of atoms/cell      =            4
     number of atomic types    =            2
     number of electrons       =        36.00
     number of Kohn-Sham states=           18
     kinetic-energy cutoff     =      50.0000  Ry
     charge density cutoff     =     400.0000  Ry
     scf convergence threshold =      1.0E-08
     mixing beta               =       0.3000
     number of iterations used =            8  plain     mixing
     Exchange-correlation= PBE
                           (   1   4   3   4   0   0   0)

     celldm(1)=   6.673127  celldm(2)=   0.000000  celldm(3)=   1.517497
     celldm(4)=   0.000000  celldm(5)=   0.000000  celldm(6)=   0.000000

     crystal axes: (cart. coord. in units of alat)
               a(1) = (   1.000000   0.000000   0.000000 )  
               a(2) = (  -0.500000   0.866025   0.000000 )  
               a(3) = (   0.000000   0.000000   1.517497 )  

     reciprocal axes: (cart. coord. in units 2 pi/alat)
               b(1) = (  1.000000  0.577350 -0.000000 )  
               b(2) = (  0.000000  1.154701  0.000000 )  
               b(3) = (  0.000000 -0.000000  0.658980 )  


     PseudoPot. # 1 for Zn read from file:
     /home/jvc/QEspresso7.2/ZnO_database/pseudos/Zn.upf
     MD5 check sum: 7f56cabf9682ed8c977c2f7d0c5985c5
     Pseudo is Ultrasoft + core correction, Zval = 12.0
     Generated using &quot;atomic&quot; code by A. Dal Corso  v.6.2.2
     Using radial grid of 1201 points,  6 beta functions with: 
                l(1) =   0
                l(2) =   0
                l(3) =   1
                l(4) =   1
                l(5) =   2
                l(6) =   2
     Q(r) pseudized with 0 coefficients 


     PseudoPot. # 2 for O  read from file:
     /home/jvc/QEspresso7.2/ZnO_database/pseudos/O.upf
     MD5 check sum: 91400c9766925bcf19f520983a725ff0
     Pseudo is Ultrasoft + core correction, Zval =  6.0
     Generated using &quot;atomic&quot; code by A. Dal Corso  v.6.3MaX
     Using radial grid of 1095 points,  4 beta functions with: 
                l(1) =   0
                l(2) =   0
                l(3) =   1
                l(4) =   1
     Q(r) pseudized with 0 coefficients 


     atomic species   valence    mass     pseudopotential
        Zn            12.00    63.38000     Zn( 1.00)
        O              6.00    15.99900     O ( 1.00)

     12 Sym. Ops. (no inversion) found ( 6 have fractional translation)



   Cartesian axes

     site n.     atom                  positions (alat units)
         1           Zn  tau(   1) = (   0.5000000   0.2886751   0.7597099  )
         2           Zn  tau(   2) = (  -0.0000000   0.5773503   0.0009615  )
         3           O   tau(   3) = (   0.5000000   0.2886751   1.3349062  )
         4           O   tau(   4) = (  -0.0000000   0.5773503   0.5761578  )

     number of k points=    28
                       cart. coord. in units 2pi/alat
        k(    1) = (   0.0000000   0.0000000   0.0000000), wk =   0.0092593
        k(    2) = (   0.0000000   0.0000000   0.1098300), wk =   0.0185185
        k(    3) = (   0.0000000   0.0000000   0.2196600), wk =   0.0185185
        k(    4) = (   0.0000000   0.0000000  -0.3294900), wk =   0.0092593
        k(    5) = (   0.0000000   0.1924501   0.0000000), wk =   0.0555556
        k(    6) = (   0.0000000   0.1924501   0.1098300), wk =   0.1111111
        k(    7) = (   0.0000000   0.1924501   0.2196600), wk =   0.1111111
        k(    8) = (   0.0000000   0.1924501  -0.3294900), wk =   0.0555556
        k(    9) = (   0.0000000   0.3849002   0.0000000), wk =   0.0555556
        k(   10) = (   0.0000000   0.3849002   0.1098300), wk =   0.1111111
        k(   11) = (   0.0000000   0.3849002   0.2196600), wk =   0.1111111
        k(   12) = (   0.0000000   0.3849002  -0.3294900), wk =   0.0555556
        k(   13) = (   0.0000000  -0.5773503   0.0000000), wk =   0.0277778
        k(   14) = (   0.0000000  -0.5773503   0.1098300), wk =   0.0555556
        k(   15) = (   0.0000000  -0.5773503   0.2196600), wk =   0.0555556
        k(   16) = (   0.0000000  -0.5773503  -0.3294900), wk =   0.0277778
        k(   17) = (   0.1666667   0.2886751   0.0000000), wk =   0.0555556
        k(   18) = (   0.1666667   0.2886751   0.1098300), wk =   0.1111111
        k(   19) = (   0.1666667   0.2886751   0.2196600), wk =   0.1111111
        k(   20) = (   0.1666667   0.2886751  -0.3294900), wk =   0.0555556
        k(   21) = (   0.1666667   0.4811252   0.0000000), wk =   0.1111111
        k(   22) = (   0.1666667   0.4811252   0.1098300), wk =   0.2222222
        k(   23) = (   0.1666667   0.4811252   0.2196600), wk =   0.2222222
        k(   24) = (   0.1666667   0.4811252  -0.3294900), wk =   0.1111111
        k(   25) = (   0.3333333   0.5773503   0.0000000), wk =   0.0185185
        k(   26) = (   0.3333333   0.5773503   0.1098300), wk =   0.0370370
        k(   27) = (   0.3333333   0.5773503   0.2196600), wk =   0.0370370
        k(   28) = (   0.3333333   0.5773503  -0.3294900), wk =   0.0185185

     Dense  grid:    52805 G-vectors     FFT dimensions: (  45,  45,  72)

     Smooth grid:    18609 G-vectors     FFT dimensions: (  32,  32,  48)

     Estimated max dynamical RAM per process >      30.17 MB

     Estimated total dynamical RAM >     241.33 MB

     Check: negative core charge=   -0.000002

     Initial potential from superposition of free atoms

     starting charge      35.9925, renormalised to      36.0000
     Starting wfcs are   26 randomized atomic wfcs

     total cpu time spent up to now is        1.6 secs

     Self-consistent Calculation

     iteration #  1     ecut=    50.00 Ry     beta= 0.30
     Davidson diagonalization with overlap
     ethr =  1.00E-02,  avg # of iterations =  1.4

     total cpu time spent up to now is        2.4 secs

     total energy              =    -361.41768587 Ry
     estimated scf accuracy    <       0.77165837 Ry

     iteration #  2     ecut=    50.00 Ry     beta= 0.30
     Davidson diagonalization with overlap
     ethr =  2.14E-03,  avg # of iterations =  2.2

     total cpu time spent up to now is        3.4 secs

     total energy              =    -361.53897910 Ry
     estimated scf accuracy    <       0.08489512 Ry

     iteration #  3     ecut=    50.00 Ry     beta= 0.30
     Davidson diagonalization with overlap
     ethr =  2.36E-04,  avg # of iterations =  6.4

     total cpu time spent up to now is        4.9 secs

     total energy              =    -361.55199271 Ry
     estimated scf accuracy    <       0.09493158 Ry

     iteration #  4     ecut=    50.00 Ry     beta= 0.30
     Davidson diagonalization with overlap
     ethr =  2.36E-04,  avg # of iterations =  8.8

     total cpu time spent up to now is        6.9 secs

     total energy              =    -361.62340330 Ry
     estimated scf accuracy    <       0.37217018 Ry

     iteration #  5     ecut=    50.00 Ry     beta= 0.30
     Davidson diagonalization with overlap
     ethr =  2.36E-04,  avg # of iterations =  2.0

     total cpu time spent up to now is        7.7 secs

     total energy              =    -361.45409410 Ry
     estimated scf accuracy    <       0.22882875 Ry

     iteration #  6     ecut=    50.00 Ry     beta= 0.30
     Davidson diagonalization with overlap
     ethr =  2.36E-04,  avg # of iterations =  8.5

     total cpu time spent up to now is        9.5 secs

     total energy              =    -361.57580560 Ry
     estimated scf accuracy    <       0.57465605 Ry

     iteration #  7     ecut=    50.00 Ry     beta= 0.30
     Davidson diagonalization with overlap
     ethr =  2.36E-04,  avg # of iterations =  5.0

     total cpu time spent up to now is       10.7 secs

     total energy              =    -361.61174325 Ry
     estimated scf accuracy    <       0.10363212 Ry

     iteration #  8     ecut=    50.00 Ry     beta= 0.30
     Davidson diagonalization with overlap
     ethr =  2.36E-04,  avg # of iterations =  1.2

     total cpu time spent up to now is       11.5 secs

     total energy              =    -361.61180301 Ry
     estimated scf accuracy    <       0.09442675 Ry

     iteration #  9     ecut=    50.00 Ry     beta= 0.30
     Davidson diagonalization with overlap
     ethr =  2.36E-04,  avg # of iterations =  1.1

     total cpu time spent up to now is       12.2 secs

     total energy              =    -361.59519487 Ry
     estimated scf accuracy    <       0.08810136 Ry

     iteration # 10     ecut=    50.00 Ry     beta= 0.30
     Davidson diagonalization with overlap
     ethr =  2.36E-04,  avg # of iterations =  1.4

     total cpu time spent up to now is       13.0 secs

     total energy              =    -361.58449723 Ry
     estimated scf accuracy    <       0.04989752 Ry

     iteration # 11     ecut=    50.00 Ry     beta= 0.30
     Davidson diagonalization with overlap
     ethr =  1.39E-04,  avg # of iterations =  4.6

     total cpu time spent up to now is       14.1 secs

     total energy              =    -361.59869239 Ry
     estimated scf accuracy    <       0.00016260 Ry

     iteration # 12     ecut=    50.00 Ry     beta= 0.30
     Davidson diagonalization with overlap
     ethr =  4.52E-07,  avg # of iterations = 10.5

     total cpu time spent up to now is       16.4 secs

     total energy              =    -361.60078316 Ry
     estimated scf accuracy    <       0.00200813 Ry

     iteration # 13     ecut=    50.00 Ry     beta= 0.30
     Davidson diagonalization with overlap
     ethr =  4.52E-07,  avg # of iterations =  1.1

     total cpu time spent up to now is       17.2 secs

     total energy              =    -361.59959193 Ry
     estimated scf accuracy    <       0.00166752 Ry

     iteration # 14     ecut=    50.00 Ry     beta= 0.30
     Davidson diagonalization with overlap
     ethr =  4.52E-07,  avg # of iterations = 12.1

     total cpu time spent up to now is       19.7 secs

     total energy              =    -361.60132355 Ry
     estimated scf accuracy    <       0.00270214 Ry

     iteration # 15     ecut=    50.00 Ry     beta= 0.30
     Davidson diagonalization with overlap
     ethr =  4.52E-07,  avg # of iterations =  1.7

     total cpu time spent up to now is       20.5 secs

     total energy              =    -361.60118496 Ry
     estimated scf accuracy    <       0.00317917 Ry

     iteration # 16     ecut=    50.00 Ry     beta= 0.30
     Davidson diagonalization with overlap
     ethr =  4.52E-07,  avg # of iterations =  1.0

     total cpu time spent up to now is       21.3 secs

     total energy              =    -361.60097184 Ry
     estimated scf accuracy    <       0.00296474 Ry

     iteration # 17     ecut=    50.00 Ry     beta= 0.30
     Davidson diagonalization with overlap
     ethr =  4.52E-07,  avg # of iterations =  1.1

     total cpu time spent up to now is       22.0 secs

     total energy              =    -361.60036911 Ry
     estimated scf accuracy    <       0.00255292 Ry

     iteration # 18     ecut=    50.00 Ry     beta= 0.30
     Davidson diagonalization with overlap
     ethr =  4.52E-07,  avg # of iterations =  6.2

     total cpu time spent up to now is       23.5 secs

     total energy              =    -361.60039135 Ry
     estimated scf accuracy    <       0.00044999 Ry

     iteration # 19     ecut=    50.00 Ry     beta= 0.30
     Davidson diagonalization with overlap
     ethr =  4.52E-07,  avg # of iterations =  5.1

     total cpu time spent up to now is       24.7 secs

     total energy              =    -361.60044449 Ry
     estimated scf accuracy    <       0.00001652 Ry

     iteration # 20     ecut=    50.00 Ry     beta= 0.30
     Davidson diagonalization with overlap
     ethr =  4.59E-08,  avg # of iterations = 10.1

     total cpu time spent up to now is       26.8 secs

     total energy              =    -361.60052061 Ry
     estimated scf accuracy    <       0.00016805 Ry

     iteration # 21     ecut=    50.00 Ry     beta= 0.30
     Davidson diagonalization with overlap
     ethr =  4.59E-08,  avg # of iterations =  1.9

     total cpu time spent up to now is       27.6 secs

     total energy              =    -361.60060338 Ry
     estimated scf accuracy    <       0.00021032 Ry

     iteration # 22     ecut=    50.00 Ry     beta= 0.30
     Davidson diagonalization with overlap
     ethr =  4.59E-08,  avg # of iterations =  7.8

     total cpu time spent up to now is       29.3 secs

     total energy              =    -361.60024671 Ry
     estimated scf accuracy    <       0.00069910 Ry

     iteration # 23     ecut=    50.00 Ry     beta= 0.30
     Davidson diagonalization with overlap
     ethr =  4.59E-08,  avg # of iterations = 12.2

     total cpu time spent up to now is       32.0 secs

     total energy              =    -361.60058477 Ry
     estimated scf accuracy    <       0.00015118 Ry

     iteration # 24     ecut=    50.00 Ry     beta= 0.30
     Davidson diagonalization with overlap
     ethr =  4.59E-08,  avg # of iterations =  8.2

     total cpu time spent up to now is       33.7 secs

     total energy              =    -361.60040410 Ry
     estimated scf accuracy    <       0.00063899 Ry

     iteration # 25     ecut=    50.00 Ry     beta= 0.30
     Davidson diagonalization with overlap
     ethr =  4.59E-08,  avg # of iterations = 10.0

     total cpu time spent up to now is       35.8 secs

     total energy              =    -361.60047010 Ry
     estimated scf accuracy    <       0.00003672 Ry

     iteration # 26     ecut=    50.00 Ry     beta= 0.30
     Davidson diagonalization with overlap
     ethr =  4.59E-08,  avg # of iterations =  1.4

     total cpu time spent up to now is       36.6 secs

     total energy              =    -361.60045082 Ry
     estimated scf accuracy    <       0.00003776 Ry

     iteration # 27     ecut=    50.00 Ry     beta= 0.30
     Davidson diagonalization with overlap
     ethr =  4.59E-08,  avg # of iterations =  5.6

     total cpu time spent up to now is       38.0 secs

     total energy              =    -361.60046743 Ry
     estimated scf accuracy    <       0.00000694 Ry

     iteration # 28     ecut=    50.00 Ry     beta= 0.30
     Davidson diagonalization with overlap
     ethr =  1.93E-08,  avg # of iterations =  3.8

     total cpu time spent up to now is       39.0 secs

     total energy              =    -361.60045966 Ry
     estimated scf accuracy    <       0.00001630 Ry

     iteration # 29     ecut=    50.00 Ry     beta= 0.30
     Davidson diagonalization with overlap
     ethr =  1.93E-08,  avg # of iterations =  5.2

     total cpu time spent up to now is       40.2 secs

     total energy              =    -361.60046240 Ry
     estimated scf accuracy    <       0.00000007 Ry

     iteration # 30     ecut=    50.00 Ry     beta= 0.30
     Davidson diagonalization with overlap
     ethr =  1.86E-10,  avg # of iterations = 12.2

     total cpu time spent up to now is       42.6 secs

     total energy              =    -361.60046245 Ry
     estimated scf accuracy    <       0.00000155 Ry

     iteration # 31     ecut=    50.00 Ry     beta= 0.30
     Davidson diagonalization with overlap
     ethr =  1.86E-10,  avg # of iterations =  9.9

     total cpu time spent up to now is       44.7 secs

     total energy              =    -361.60046266 Ry
     estimated scf accuracy    <       0.00000002 Ry

     iteration # 32     ecut=    50.00 Ry     beta= 0.30
     Davidson diagonalization with overlap
     ethr =  4.67E-11,  avg # of iterations =  7.6

     total cpu time spent up to now is       46.4 secs

     total energy              =    -361.60046267 Ry
     estimated scf accuracy    <       0.00000005 Ry

     iteration # 33     ecut=    50.00 Ry     beta= 0.30
     Davidson diagonalization with overlap
     ethr =  4.67E-11,  avg # of iterations =  2.2

     total cpu time spent up to now is       47.3 secs

     total energy              =    -361.60046267 Ry
     estimated scf accuracy    <       0.00000002 Ry

     iteration # 34     ecut=    50.00 Ry     beta= 0.30
     Davidson diagonalization with overlap
     ethr =  4.67E-11,  avg # of iterations =  2.6

     total cpu time spent up to now is       48.2 secs

     End of self-consistent calculation

          k = 0.0000 0.0000 0.0000 (  2345 PWs)   bands (ev):

   -12.0989 -11.5671  -0.3356  -0.3260  -0.3260  -0.1684  -0.1684   0.3161
     0.3161   0.3870   0.4767   0.4767   0.7006   3.9014   3.9014   4.6153
     4.6153   4.6549

          k = 0.0000 0.0000 0.1098 (  2351 PWs)   bands (ev):

   -12.0641 -11.6034  -0.3646  -0.3222  -0.3222  -0.1864  -0.1864   0.0170
     0.3326   0.3326   0.4718   0.4718   1.2117   3.9515   3.9515   4.0526
     4.5698   4.5698

          k = 0.0000 0.0000 0.2197 (  2327 PWs)   bands (ev):

   -11.9684 -11.7023  -0.4189  -0.3069  -0.3069  -0.2914  -0.2295  -0.2295
     0.3732   0.3732   0.4541   0.4541   1.9167   3.3340   4.0866   4.0866
     4.4437   4.4437

          k = 0.0000 0.0000-0.3295 (  2302 PWs)   bands (ev):

   -11.8362 -11.8362  -0.4213  -0.4213  -0.2748  -0.2748  -0.2748  -0.2748
     0.4192   0.4192   0.4192   0.4192   2.6316   2.6316   4.2674   4.2674
     4.2674   4.2674

          k = 0.0000 0.1925 0.0000 (  2349 PWs)   bands (ev):

   -12.0089 -11.5395  -0.3863  -0.2778  -0.2697  -0.1532  -0.0876   0.2852
     0.2972   0.3184   0.4861   0.6282   0.8735   3.1537   3.5488   3.6376
     4.4950   4.5023

          k = 0.0000 0.1925 0.1098 (  2357 PWs)   bands (ev):

   -11.9777 -11.5710  -0.4086  -0.2791  -0.2713  -0.1805  -0.1076   0.0560
     0.3129   0.3334   0.4788   0.5202   1.3315   3.1736   3.4402   3.6979
     4.4401   4.4618

          k = 0.0000 0.1925 0.2197 (  2341 PWs)   bands (ev):

   -11.8921 -11.6572  -0.4545  -0.3382  -0.2491  -0.2471  -0.1613  -0.1557
     0.3667   0.3717   0.4558   0.4771   1.9419   2.9173   3.5722   3.8603
     4.2612   4.2884

          k = 0.0000 0.1925-0.3295 (  2338 PWs)   bands (ev):

   -11.7748 -11.7748  -0.4502  -0.4502  -0.2267  -0.2267  -0.2088  -0.2088
     0.4174   0.4174   0.4271   0.4271   2.4783   2.4783   3.9184   3.9184
     4.0770   4.0770

          k = 0.0000 0.3849 0.0000 (  2335 PWs)   bands (ev):

   -11.8061 -11.5017  -0.4117  -0.2067  -0.1893  -0.0259   0.1023   0.1918
     0.3422   0.3704   0.5000   0.6405   1.3385   2.0066   2.6387   3.1151
     4.0519   4.2311

          k = 0.0000 0.3849 0.1098 (  2340 PWs)   bands (ev):

   -11.7846 -11.5208  -0.4367  -0.2339  -0.1912  -0.0489   0.0759   0.1049
     0.3382   0.3779   0.4888   0.5897   1.4443   2.1198   2.6870   3.1963
     4.1075   4.1603

          k = 0.0000 0.3849 0.2197 (  2339 PWs)   bands (ev):

   -11.7266 -11.5741  -0.4834  -0.3648  -0.1451  -0.0873  -0.0261   0.0082
     0.3929   0.3991   0.4617   0.5274   1.6227   2.0363   3.1467   3.4112
     3.9651   4.0678

          k = 0.0000 0.3849-0.3295 (  2332 PWs)   bands (ev):

   -11.6492 -11.6492  -0.4755  -0.4755  -0.0821  -0.0821  -0.0738  -0.0738
     0.4293   0.4293   0.4628   0.4628   1.8264   1.8264   3.6929   3.6929
     3.7198   3.7198

          k = 0.0000-0.5774 0.0000 (  2330 PWs)   bands (ev):

   -11.6754 -11.5092  -0.3941  -0.1866  -0.0485   0.0626   0.1665   0.2121
     0.3794   0.4306   0.5060   0.5405   1.2476   1.8120   2.3830   2.8425
     3.6767   4.0903

          k = 0.0000-0.5774 0.1098 (  2312 PWs)   bands (ev):

   -11.6625 -11.5184  -0.4222  -0.1652  -0.1621   0.0527   0.1403   0.1815
     0.4247   0.4327   0.4919   0.5414   1.2080   1.7049   2.6688   2.9363
     3.7998   4.0122

          k = 0.0000-0.5774 0.2197 (  2312 PWs)   bands (ev):

   -11.6284 -11.5451  -0.4746  -0.3573  -0.1033   0.0404   0.0884   0.0975
     0.4386   0.4672   0.4866   0.5387   1.2207   1.5039   3.1809   3.2403
     3.7970   3.9250

          k = 0.0000-0.5774-0.3295 (  2324 PWs)   bands (ev):

   -11.5849 -11.5849  -0.4728  -0.4728  -0.0092  -0.0092   0.0501   0.0501
     0.4492   0.4492   0.5234   0.5234   1.3297   1.3297   3.4958   3.4958
     3.7375   3.7375

          k = 0.1667 0.2887 0.0000 (  2339 PWs)   bands (ev):

   -11.8615 -11.5075  -0.3594  -0.2805  -0.1895  -0.0977   0.0617   0.2627
     0.2844   0.3453   0.4963   0.6419   1.2440   2.5322   2.5841   3.2162
     4.1806   4.2042

          k = 0.1667 0.2887 0.1098 (  2338 PWs)   bands (ev):

   -11.8371 -11.5302  -0.3885  -0.2845  -0.1993  -0.1172   0.0362   0.1065
     0.2962   0.3679   0.4870   0.5794   1.4862   2.4822   2.7627   3.2252
     4.1061   4.2398

          k = 0.1667 0.2887 0.2197 (  2326 PWs)   bands (ev):

   -11.7706 -11.5933  -0.4458  -0.3503  -0.1987  -0.1466  -0.0834  -0.0261
     0.3684   0.3943   0.4637   0.5187   1.8147   2.3140   3.2396   3.3621
     3.9045   4.1590

          k = 0.1667 0.2887-0.3295 (  2330 PWs)   bands (ev):

   -11.6811 -11.6811  -0.4471  -0.4471  -0.1712  -0.1712  -0.0925  -0.0925
     0.4209   0.4209   0.4571   0.4571   2.0812   2.0812   3.6087   3.6087
     3.8077   3.8077

          k = 0.1667 0.4811 0.0000 (  2330 PWs)   bands (ev):

   -11.6794 -11.5065  -0.3400  -0.2073  -0.0173   0.0234   0.1999   0.2449
     0.3446   0.3764   0.5122   0.6325   1.3519   1.8372   2.3612   2.6381
     3.6806   3.8413

          k = 0.1667 0.4811 0.1098 (  2316 PWs)   bands (ev):

   -11.6660 -11.5162  -0.3534  -0.2175  -0.0941   0.0148   0.1421   0.2020
     0.3474   0.4091   0.5094   0.6237   1.3336   1.8069   2.4505   2.8699
     3.7150   3.8352

          k = 0.1667 0.4811 0.2197 (  2328 PWs)   bands (ev):

   -11.6308 -11.5442  -0.4003  -0.3051  -0.1379  -0.0055   0.0652   0.0927
     0.3891   0.4228   0.5216   0.5947   1.3819   1.6640   2.7247   3.3590
     3.4876   3.9685

          k = 0.1667 0.4811-0.3295 (  2324 PWs)   bands (ev):

   -11.5857 -11.5857  -0.4052  -0.4052  -0.0583  -0.0583   0.0312   0.0312
     0.4156   0.4156   0.5557   0.5557   1.5043   1.5043   3.0927   3.0927
     3.8333   3.8333

          k = 0.3333 0.5774 0.0000 (  2328 PWs)   bands (ev):

   -11.5626 -11.5626  -0.3297  -0.0899  -0.0899   0.2705   0.2705   0.2773
     0.3846   0.4030   0.5414   0.5414   1.5717   1.6353   1.6353   3.1459
     3.1459   3.4821

          k = 0.3333 0.5774 0.1098 (  2322 PWs)   bands (ev):

   -11.5605 -11.5605  -0.3038  -0.1434  -0.1434   0.2245   0.2245   0.2405
     0.3478   0.3799   0.5816   0.5816   1.5631   1.5631   1.7388   3.3499
     3.3499   3.3608

          k = 0.3333 0.5774 0.2197 (  2313 PWs)   bands (ev):

   -11.5563 -11.5563  -0.2573  -0.2573  -0.2253   0.0781   0.1718   0.1718
     0.3347   0.3668   0.6335   0.6335   1.4647   1.4647   2.1261   3.0348
     3.7146   3.7146

          k = 0.3333 0.5774-0.3295 (  2322 PWs)   bands (ev):

   -11.5541 -11.5541  -0.3149  -0.3149  -0.0951  -0.0951   0.1545   0.1545
     0.3493   0.3493   0.6526   0.6526   1.4293   1.4293   2.5911   2.5911
     3.8848   3.8848

     highest occupied level (ev):     4.6549

!    total energy              =    -361.60046266 Ry
     estimated scf accuracy    <          7.0E-09 Ry

     The total energy is the sum of the following terms:
     one-electron contribution =    -174.05840882 Ry
     hartree contribution      =     125.43431204 Ry
     xc contribution           =    -109.23722401 Ry
     ewald contribution        =    -203.73914188 Ry

     convergence has been achieved in  34 iterations

     Forces acting on atoms (cartesian axes, Ry/au):

     atom    1 type  1   force =     0.00000000   -0.00000000   -0.00586198
     atom    2 type  1   force =     0.00000000    0.00000000   -0.00586198
     atom    3 type  2   force =     0.00000000    0.00000000    0.00586198
     atom    4 type  2   force =     0.00000000    0.00000000    0.00586198
     The non-local contrib.  to forces
     atom    1 type  1   force =     0.00000000   -0.00000000   -0.16908271
     atom    2 type  1   force =     0.00000000    0.00000000   -0.16908271
     atom    3 type  2   force =     0.00000000   -0.00000000   -0.14789443
     atom    4 type  2   force =     0.00000000   -0.00000000   -0.14789443
     The ionic contribution  to forces
     atom    1 type  1   force =    -0.00000000    0.00000000   -1.08202372
     atom    2 type  1   force =     0.00000000   -0.00000000   -1.08202372
     atom    3 type  2   force =    -0.00000000    0.00000000    1.08202372
     atom    4 type  2   force =     0.00000000   -0.00000000    1.08202372
     The local contribution  to forces
     atom    1 type  1   force =    -0.00000002    0.00000001    1.23442475
     atom    2 type  1   force =     0.00000007   -0.00000004    1.23442475
     atom    3 type  2   force =    -0.00000001    0.00000000   -0.92951658
     atom    4 type  2   force =     0.00000002   -0.00000001   -0.92951659
     The core correction contribution to forces
     atom    1 type  1   force =    -0.00000000    0.00000000    0.01083428
     atom    2 type  1   force =     0.00000001   -0.00000001    0.01083428
     atom    3 type  2   force =     0.00000000   -0.00000000    0.00124427
     atom    4 type  2   force =    -0.00000000    0.00000000    0.00124427
     The Hubbard contrib.    to forces
     atom    1 type  1   force =     0.00000000    0.00000000    0.00000000
     atom    2 type  1   force =     0.00000000    0.00000000    0.00000000
     atom    3 type  2   force =     0.00000000    0.00000000    0.00000000
     atom    4 type  2   force =     0.00000000    0.00000000    0.00000000
     The SCF correction term to forces
     atom    1 type  1   force =     0.00000000   -0.00000000   -0.00001890
     atom    2 type  1   force =    -0.00000000    0.00000000   -0.00001890
     atom    3 type  2   force =     0.00000000   -0.00000000    0.00000069
     atom    4 type  2   force =    -0.00000000    0.00000000    0.00000069

     Total force =     0.011724     Total SCF correction =     0.000027


     Computing stress (Cartesian axis) and pressure

          total   stress  (Ry/bohr**3)                   (kbar)     P=     -151.36
  -0.00118871  -0.00000000   0.00000000         -174.86       -0.00        0.00
  -0.00000000  -0.00118871   0.00000000           -0.00     -174.86        0.00
   0.00000000   0.00000000  -0.00070943            0.00        0.00     -104.36


     Writing all to output data dir ./ZnO_ANN.save/

     init_run     :      1.86s CPU      1.32s WALL (       1 calls)
     electrons    :    126.85s CPU     46.57s WALL (       1 calls)
     forces       :      0.80s CPU      0.41s WALL (       1 calls)
     stress       :      2.97s CPU      1.63s WALL (       1 calls)

     Called by init_run:
     wfcinit      :      0.92s CPU      0.36s WALL (       1 calls)
     potinit      :      0.29s CPU      0.30s WALL (       1 calls)
     hinit0       :      0.48s CPU      0.49s WALL (       1 calls)

     Called by electrons:
     c_bands      :    104.22s CPU     37.68s WALL (      34 calls)
     sum_band     :     16.05s CPU      6.21s WALL (      34 calls)
     v_of_rho     :      1.54s CPU      0.67s WALL (      35 calls)
     newd         :      4.69s CPU      1.89s WALL (      35 calls)
     mix_rho      :      0.25s CPU      0.11s WALL (      34 calls)

     Called by c_bands:
     init_us_2    :      1.68s CPU      0.60s WALL (    1988 calls)
     init_us_2:cp :      1.65s CPU      0.60s WALL (    1988 calls)
     cegterg      :    100.58s CPU     36.21s WALL (     952 calls)

     Called by *egterg:
     cdiaghg      :     17.77s CPU      5.92s WALL (    6044 calls)
     h_psi        :     63.50s CPU     25.53s WALL (    6072 calls)
     s_psi        :      1.77s CPU      0.52s WALL (    6072 calls)
     g_psi        :      0.68s CPU      0.17s WALL (    5092 calls)

     Called by h_psi:
     h_psi:calbec :      2.71s CPU      0.96s WALL (    6072 calls)
     vloc_psi     :     58.23s CPU     23.76s WALL (    6072 calls)
     add_vuspsi   :      1.83s CPU      0.59s WALL (    6072 calls)

     General routines
     calbec       :      3.36s CPU      1.17s WALL (    7164 calls)
     fft          :      1.13s CPU      0.62s WALL (     478 calls)
     ffts         :      0.18s CPU      0.15s WALL (      69 calls)
     fftw         :     55.10s CPU     22.58s WALL (  151126 calls)
     interpolate  :      0.22s CPU      0.17s WALL (      35 calls)

     Parallel routines

     PWSCF        :   2m13.02s CPU     50.41s WALL


   This run was terminated on:  19:22:35  13Jun2025            

=------------------------------------------------------------------------------=
   JOB DONE.
=------------------------------------------------------------------------------=
Note: The following floating-point exceptions are signalling: IEEE_INVALID_FLAG
