Authorization required, but no authorization protocol specified

Authorization required, but no authorization protocol specified

Authorization required, but no authorization protocol specified

Authorization required, but no authorization protocol specified

Authorization required, but no authorization protocol specified

Authorization required, but no authorization protocol specified

Authorization required, but no authorization protocol specified

Authorization required, but no authorization protocol specified

Authorization required, but no authorization protocol specified

Authorization required, but no authorization protocol specified


     Program PWSCF v.7.2 starts on 13Jun2025 at 16: 0:16 

     This program is part of the open-source Quantum ESPRESSO suite
     for quantum simulation of materials; please cite
         "P. Giannozzi et al., J. Phys.:Condens. Matter 21 395502 (2009);
         "P. Giannozzi et al., J. Phys.:Condens. Matter 29 465901 (2017);
         "P. Giannozzi et al., J. Chem. Phys. 152 154105 (2020);
          URL http://www.quantum-espresso.org", 
     in publications or presentations arising from this work. More details at
     http://www.quantum-espresso.org/quote

     Parallel version (MPI), running on     8 processors

     MPI processes distributed on     1 nodes
     120720 MiB available memory on the printing compute node when the environment starts

     Reading input from /home/jvc/QEspresso7.2/ZnO_database_python/SCFs.in/scf-5.81-1.73.in

     Current dimensions of program PWSCF are:
     Max number of different atomic species (ntypx) = 10
     Max number of k-points (npk) =  40000
     Max angular momentum in pseudopotentials (lmaxx) =  4
     file Zn.upf: wavefunction(s)  3D renormalized

     R & G space division:  proc/nbgrp/npool/nimage =       8
     Subspace diagonalization in iterative solution of the eigenvalue problem:
     a serial algorithm will be used


     Parallelization info
     --------------------
     sticks:   dense  smooth     PW     G-vecs:    dense   smooth      PW
     Min         116      57     18                 4949     1745     303
     Max         117      58     19                 4952     1750     305
     Sum         931     463    151                39609    13983    2431

     Using Slab Decomposition



     bravais-lattice index     =            4
     lattice parameter (alat)  =       5.8081  a.u.
     unit-cell volume          =     293.0993 (a.u.)^3
     number of atoms/cell      =            4
     number of atomic types    =            2
     number of electrons       =        36.00
     number of Kohn-Sham states=           18
     kinetic-energy cutoff     =      50.0000  Ry
     charge density cutoff     =     400.0000  Ry
     scf convergence threshold =      1.0E-08
     mixing beta               =       0.3000
     number of iterations used =            8  plain     mixing
     Exchange-correlation= PBE
                           (   1   4   3   4   0   0   0)

     celldm(1)=   5.808092  celldm(2)=   0.000000  celldm(3)=   1.727363
     celldm(4)=   0.000000  celldm(5)=   0.000000  celldm(6)=   0.000000

     crystal axes: (cart. coord. in units of alat)
               a(1) = (   1.000000   0.000000   0.000000 )  
               a(2) = (  -0.500000   0.866025   0.000000 )  
               a(3) = (   0.000000   0.000000   1.727363 )  

     reciprocal axes: (cart. coord. in units 2 pi/alat)
               b(1) = (  1.000000  0.577350 -0.000000 )  
               b(2) = (  0.000000  1.154701  0.000000 )  
               b(3) = (  0.000000 -0.000000  0.578917 )  


     PseudoPot. # 1 for Zn read from file:
     /home/jvc/QEspresso7.2/ZnO_database/pseudos/Zn.upf
     MD5 check sum: 7f56cabf9682ed8c977c2f7d0c5985c5
     Pseudo is Ultrasoft + core correction, Zval = 12.0
     Generated using &quot;atomic&quot; code by A. Dal Corso  v.6.2.2
     Using radial grid of 1201 points,  6 beta functions with: 
                l(1) =   0
                l(2) =   0
                l(3) =   1
                l(4) =   1
                l(5) =   2
                l(6) =   2
     Q(r) pseudized with 0 coefficients 


     PseudoPot. # 2 for O  read from file:
     /home/jvc/QEspresso7.2/ZnO_database/pseudos/O.upf
     MD5 check sum: 91400c9766925bcf19f520983a725ff0
     Pseudo is Ultrasoft + core correction, Zval =  6.0
     Generated using &quot;atomic&quot; code by A. Dal Corso  v.6.3MaX
     Using radial grid of 1095 points,  4 beta functions with: 
                l(1) =   0
                l(2) =   0
                l(3) =   1
                l(4) =   1
     Q(r) pseudized with 0 coefficients 


     atomic species   valence    mass     pseudopotential
        Zn            12.00    63.38000     Zn( 1.00)
        O              6.00    15.99900     O ( 1.00)

     12 Sym. Ops. (no inversion) found ( 6 have fractional translation)



   Cartesian axes

     site n.     atom                  positions (alat units)
         1           Zn  tau(   1) = (   0.5000000   0.2886751   0.8647762  )
         2           Zn  tau(   2) = (  -0.0000000   0.5773503   0.0010944  )
         3           O   tau(   3) = (   0.5000000   0.2886751   1.5195209  )
         4           O   tau(   4) = (  -0.0000000   0.5773503   0.6558392  )

     number of k points=    28
                       cart. coord. in units 2pi/alat
        k(    1) = (   0.0000000   0.0000000   0.0000000), wk =   0.0092593
        k(    2) = (   0.0000000   0.0000000   0.0964862), wk =   0.0185185
        k(    3) = (   0.0000000   0.0000000   0.1929723), wk =   0.0185185
        k(    4) = (   0.0000000   0.0000000  -0.2894585), wk =   0.0092593
        k(    5) = (   0.0000000   0.1924501   0.0000000), wk =   0.0555556
        k(    6) = (   0.0000000   0.1924501   0.0964862), wk =   0.1111111
        k(    7) = (   0.0000000   0.1924501   0.1929723), wk =   0.1111111
        k(    8) = (   0.0000000   0.1924501  -0.2894585), wk =   0.0555556
        k(    9) = (   0.0000000   0.3849002   0.0000000), wk =   0.0555556
        k(   10) = (   0.0000000   0.3849002   0.0964862), wk =   0.1111111
        k(   11) = (   0.0000000   0.3849002   0.1929723), wk =   0.1111111
        k(   12) = (   0.0000000   0.3849002  -0.2894585), wk =   0.0555556
        k(   13) = (   0.0000000  -0.5773503   0.0000000), wk =   0.0277778
        k(   14) = (   0.0000000  -0.5773503   0.0964862), wk =   0.0555556
        k(   15) = (   0.0000000  -0.5773503   0.1929723), wk =   0.0555556
        k(   16) = (   0.0000000  -0.5773503  -0.2894585), wk =   0.0277778
        k(   17) = (   0.1666667   0.2886751   0.0000000), wk =   0.0555556
        k(   18) = (   0.1666667   0.2886751   0.0964862), wk =   0.1111111
        k(   19) = (   0.1666667   0.2886751   0.1929723), wk =   0.1111111
        k(   20) = (   0.1666667   0.2886751  -0.2894585), wk =   0.0555556
        k(   21) = (   0.1666667   0.4811252   0.0000000), wk =   0.1111111
        k(   22) = (   0.1666667   0.4811252   0.0964862), wk =   0.2222222
        k(   23) = (   0.1666667   0.4811252   0.1929723), wk =   0.2222222
        k(   24) = (   0.1666667   0.4811252  -0.2894585), wk =   0.1111111
        k(   25) = (   0.3333333   0.5773503   0.0000000), wk =   0.0185185
        k(   26) = (   0.3333333   0.5773503   0.0964862), wk =   0.0370370
        k(   27) = (   0.3333333   0.5773503   0.1929723), wk =   0.0370370
        k(   28) = (   0.3333333   0.5773503  -0.2894585), wk =   0.0185185

     Dense  grid:    39609 G-vectors     FFT dimensions: (  40,  40,  64)

     Smooth grid:    13983 G-vectors     FFT dimensions: (  27,  27,  48)

     Estimated max dynamical RAM per process >      23.37 MB

     Estimated total dynamical RAM >     186.98 MB

     Check: negative core charge=   -0.000002

     Initial potential from superposition of free atoms

     starting charge      35.9925, renormalised to      36.0000
     Starting wfcs are   26 randomized atomic wfcs

     total cpu time spent up to now is        1.5 secs

     Self-consistent Calculation

     iteration #  1     ecut=    50.00 Ry     beta= 0.30
     Davidson diagonalization with overlap
     ethr =  1.00E-02,  avg # of iterations =  2.0

     total cpu time spent up to now is        2.3 secs

     total energy              =    -361.45644455 Ry
     estimated scf accuracy    <       0.67608596 Ry

     iteration #  2     ecut=    50.00 Ry     beta= 0.30
     Davidson diagonalization with overlap
     ethr =  1.88E-03,  avg # of iterations =  2.0

     total cpu time spent up to now is        3.2 secs

     total energy              =    -361.52447828 Ry
     estimated scf accuracy    <       0.11213653 Ry

     iteration #  3     ecut=    50.00 Ry     beta= 0.30
     Davidson diagonalization with overlap
     ethr =  3.11E-04,  avg # of iterations =  6.1

     total cpu time spent up to now is        4.8 secs

     total energy              =    -361.57292268 Ry
     estimated scf accuracy    <       0.08038742 Ry

     iteration #  4     ecut=    50.00 Ry     beta= 0.30
     Davidson diagonalization with overlap
     ethr =  2.23E-04,  avg # of iterations =  4.5

     total cpu time spent up to now is        6.0 secs

     total energy              =    -361.62164702 Ry
     estimated scf accuracy    <       0.02481377 Ry

     iteration #  5     ecut=    50.00 Ry     beta= 0.30
     Davidson diagonalization with overlap
     ethr =  6.89E-05,  avg # of iterations =  4.8

     total cpu time spent up to now is        7.2 secs

     total energy              =    -361.57971861 Ry
     estimated scf accuracy    <       0.09245487 Ry

     iteration #  6     ecut=    50.00 Ry     beta= 0.30
     Davidson diagonalization with overlap
     ethr =  6.89E-05,  avg # of iterations =  6.7

     total cpu time spent up to now is        8.8 secs

     total energy              =    -361.60087481 Ry
     estimated scf accuracy    <       0.00157595 Ry

     iteration #  7     ecut=    50.00 Ry     beta= 0.30
     Davidson diagonalization with overlap
     ethr =  4.38E-06,  avg # of iterations =  4.2

     total cpu time spent up to now is        9.9 secs

     total energy              =    -361.60068099 Ry
     estimated scf accuracy    <       0.00191806 Ry

     iteration #  8     ecut=    50.00 Ry     beta= 0.30
     Davidson diagonalization with overlap
     ethr =  4.38E-06,  avg # of iterations =  2.2

     total cpu time spent up to now is       10.7 secs

     total energy              =    -361.60049072 Ry
     estimated scf accuracy    <       0.00044148 Ry

     iteration #  9     ecut=    50.00 Ry     beta= 0.30
     Davidson diagonalization with overlap
     ethr =  1.23E-06,  avg # of iterations =  9.1

     total cpu time spent up to now is       12.9 secs

     total energy              =    -361.60118161 Ry
     estimated scf accuracy    <       0.00610187 Ry

     iteration # 10     ecut=    50.00 Ry     beta= 0.30
     Davidson diagonalization with overlap
     ethr =  1.23E-06,  avg # of iterations =  5.0

     total cpu time spent up to now is       14.3 secs

     total energy              =    -361.60071619 Ry
     estimated scf accuracy    <       0.00187414 Ry

     iteration # 11     ecut=    50.00 Ry     beta= 0.30
     Davidson diagonalization with overlap
     ethr =  1.23E-06,  avg # of iterations =  5.2

     total cpu time spent up to now is       15.6 secs

     total energy              =    -361.60094641 Ry
     estimated scf accuracy    <       0.00007491 Ry

     iteration # 12     ecut=    50.00 Ry     beta= 0.30
     Davidson diagonalization with overlap
     ethr =  2.08E-07,  avg # of iterations =  6.0

     total cpu time spent up to now is       17.0 secs

     total energy              =    -361.60099477 Ry
     estimated scf accuracy    <       0.00001621 Ry

     iteration # 13     ecut=    50.00 Ry     beta= 0.30
     Davidson diagonalization with overlap
     ethr =  4.50E-08,  avg # of iterations =  2.6

     total cpu time spent up to now is       17.8 secs

     total energy              =    -361.60099219 Ry
     estimated scf accuracy    <       0.00000772 Ry

     iteration # 14     ecut=    50.00 Ry     beta= 0.30
     Davidson diagonalization with overlap
     ethr =  2.14E-08,  avg # of iterations =  5.0

     total cpu time spent up to now is       19.1 secs

     total energy              =    -361.60099610 Ry
     estimated scf accuracy    <       0.00000097 Ry

     iteration # 15     ecut=    50.00 Ry     beta= 0.30
     Davidson diagonalization with overlap
     ethr =  2.70E-09,  avg # of iterations =  3.3

     total cpu time spent up to now is       20.1 secs

     total energy              =    -361.60099650 Ry
     estimated scf accuracy    <       0.00000083 Ry

     iteration # 16     ecut=    50.00 Ry     beta= 0.30
     Davidson diagonalization with overlap
     ethr =  2.30E-09,  avg # of iterations =  1.6

     total cpu time spent up to now is       20.9 secs

     total energy              =    -361.60099603 Ry
     estimated scf accuracy    <       0.00000133 Ry

     iteration # 17     ecut=    50.00 Ry     beta= 0.30
     Davidson diagonalization with overlap
     ethr =  2.30E-09,  avg # of iterations =  2.0

     total cpu time spent up to now is       21.7 secs

     total energy              =    -361.60099595 Ry
     estimated scf accuracy    <       0.00000048 Ry

     iteration # 18     ecut=    50.00 Ry     beta= 0.30
     Davidson diagonalization with overlap
     ethr =  1.34E-09,  avg # of iterations =  2.6

     total cpu time spent up to now is       22.6 secs

     total energy              =    -361.60099610 Ry
     estimated scf accuracy    <       0.00000006 Ry

     iteration # 19     ecut=    50.00 Ry     beta= 0.30
     Davidson diagonalization with overlap
     ethr =  1.80E-10,  avg # of iterations =  2.9

     total cpu time spent up to now is       23.6 secs

     total energy              =    -361.60099606 Ry
     estimated scf accuracy    <       0.00000012 Ry

     iteration # 20     ecut=    50.00 Ry     beta= 0.30
     Davidson diagonalization with overlap
     ethr =  1.80E-10,  avg # of iterations =  3.7

     total cpu time spent up to now is       24.6 secs

     total energy              =    -361.60099606 Ry
     estimated scf accuracy    <       0.00000002 Ry

     iteration # 21     ecut=    50.00 Ry     beta= 0.30
     Davidson diagonalization with overlap
     ethr =  6.03E-11,  avg # of iterations =  8.6

     total cpu time spent up to now is       26.6 secs

     total energy              =    -361.60099607 Ry
     estimated scf accuracy    <       0.00000014 Ry

     iteration # 22     ecut=    50.00 Ry     beta= 0.30
     Davidson diagonalization with overlap
     ethr =  6.03E-11,  avg # of iterations =  4.8

     total cpu time spent up to now is       27.9 secs

     total energy              =    -361.60099608 Ry
     estimated scf accuracy    <       0.00000003 Ry

     iteration # 23     ecut=    50.00 Ry     beta= 0.30
     Davidson diagonalization with overlap
     ethr =  6.03E-11,  avg # of iterations =  1.6

     total cpu time spent up to now is       28.6 secs

     total energy              =    -361.60099609 Ry
     estimated scf accuracy    <       0.00000002 Ry

     iteration # 24     ecut=    50.00 Ry     beta= 0.30
     Davidson diagonalization with overlap
     ethr =  4.30E-11,  avg # of iterations =  1.1

     total cpu time spent up to now is       29.4 secs

     total energy              =    -361.60099608 Ry
     estimated scf accuracy    <       0.00000003 Ry

     iteration # 25     ecut=    50.00 Ry     beta= 0.30
     Davidson diagonalization with overlap
     ethr =  4.30E-11,  avg # of iterations =  1.0

     total cpu time spent up to now is       30.1 secs

     total energy              =    -361.60099608 Ry
     estimated scf accuracy    <       0.00000002 Ry

     iteration # 26     ecut=    50.00 Ry     beta= 0.30
     Davidson diagonalization with overlap
     ethr =  4.30E-11,  avg # of iterations =  1.3

     total cpu time spent up to now is       30.9 secs

     total energy              =    -361.60099607 Ry
     estimated scf accuracy    <       0.00000001 Ry

     iteration # 27     ecut=    50.00 Ry     beta= 0.30
     Davidson diagonalization with overlap
     ethr =  3.49E-11,  avg # of iterations =  6.5

     total cpu time spent up to now is       32.5 secs

     total energy              =    -361.60099608 Ry
     estimated scf accuracy    <       0.00000002 Ry

     iteration # 28     ecut=    50.00 Ry     beta= 0.30
     Davidson diagonalization with overlap
     ethr =  3.49E-11,  avg # of iterations =  1.1

     total cpu time spent up to now is       33.3 secs

     total energy              =    -361.60099608 Ry
     estimated scf accuracy    <       0.00000002 Ry

     iteration # 29     ecut=    50.00 Ry     beta= 0.30
     Davidson diagonalization with overlap
     ethr =  3.49E-11,  avg # of iterations =  1.0

     total cpu time spent up to now is       34.0 secs

     total energy              =    -361.60099608 Ry
     estimated scf accuracy    <       0.00000001 Ry

     iteration # 30     ecut=    50.00 Ry     beta= 0.30
     Davidson diagonalization with overlap
     ethr =  3.49E-11,  avg # of iterations =  1.0

     total cpu time spent up to now is       34.8 secs

     total energy              =    -361.60099608 Ry
     estimated scf accuracy    <       0.00000001 Ry

     iteration # 31     ecut=    50.00 Ry     beta= 0.30
     Davidson diagonalization with overlap
     ethr =  3.49E-11,  avg # of iterations =  1.0

     total cpu time spent up to now is       35.5 secs

     total energy              =    -361.60099608 Ry
     estimated scf accuracy    <       0.00000001 Ry

     iteration # 32     ecut=    50.00 Ry     beta= 0.30
     Davidson diagonalization with overlap
     ethr =  3.49E-11,  avg # of iterations =  1.0

     total cpu time spent up to now is       36.2 secs

     total energy              =    -361.60099608 Ry
     estimated scf accuracy    <       0.00000001 Ry

     iteration # 33     ecut=    50.00 Ry     beta= 0.30
     Davidson diagonalization with overlap
     ethr =  3.49E-11,  avg # of iterations =  1.0

     total cpu time spent up to now is       37.0 secs

     total energy              =    -361.60099608 Ry
     estimated scf accuracy    <       0.00000001 Ry

     iteration # 34     ecut=    50.00 Ry     beta= 0.30
     Davidson diagonalization with overlap
     ethr =  3.49E-11,  avg # of iterations =  1.0

     total cpu time spent up to now is       37.7 secs

     total energy              =    -361.60099608 Ry
     estimated scf accuracy    <       0.00000001 Ry

     iteration # 35     ecut=    50.00 Ry     beta= 0.30
     Davidson diagonalization with overlap
     ethr =  2.79E-11,  avg # of iterations =  4.1

     total cpu time spent up to now is       38.9 secs

     End of self-consistent calculation

          k = 0.0000 0.0000 0.0000 (  1775 PWs)   bands (ev):

   -10.1693  -9.4249   2.1725   2.4802   2.4802   2.5562   2.6634   2.6634
     4.0406   4.0406   4.2471   4.2471   4.6272   8.0969   8.0969   8.4904
     8.8285   8.8285

          k = 0.0000 0.0000 0.0965 (  1769 PWs)   bands (ev):

   -10.1227  -9.4784   2.1522   2.4892   2.4892   2.5008   2.6472   2.6472
     4.0577   4.0577   4.2366   4.2366   4.8586   7.9345   8.1459   8.1459
     8.7797   8.7797

          k = 0.0000 0.0000 0.1930 (  1768 PWs)   bands (ev):

    -9.9933  -9.6216   2.1489   2.3659   2.5152   2.5152   2.6060   2.6060
     4.1021   4.1021   4.2059   4.2059   5.4528   7.0882   8.2801   8.2801
     8.6461   8.6461

          k = 0.0000 0.0000-0.2895 (  1786 PWs)   bands (ev):

    -9.8109  -9.8109   2.2254   2.2254   2.5567   2.5567   2.5567   2.5567
     4.1570   4.1570   4.1570   4.1570   6.2370   6.2370   8.4632   8.4632
     8.4632   8.4632

          k = 0.0000 0.1925 0.0000 (  1755 PWs)   bands (ev):

    -9.9806  -9.3224   2.2401   2.5001   2.5842   2.5862   2.7060   2.8091
     3.9530   4.0353   4.2561   4.3516   4.5739   7.0549   7.6813   7.7116
     8.3248   8.5877

          k = 0.0000 0.1925 0.0965 (  1749 PWs)   bands (ev):

    -9.9387  -9.3687   2.2067   2.3565   2.5975   2.6418   2.7050   2.7899
     3.9828   4.0519   4.2433   4.2962   4.8716   7.0943   7.5129   7.7714
     8.2200   8.5298

          k = 0.0000 0.1925 0.1930 (  1762 PWs)   bands (ev):

    -9.8227  -9.4937   2.1374   2.2082   2.6306   2.6538   2.6955   2.7412
     4.0559   4.0960   4.2065   4.2270   5.5181   6.9090   7.3902   7.9337
     7.9496   8.3712

          k = 0.0000 0.1925-0.2895 (  1768 PWs)   bands (ev):

    -9.6604  -9.6604   2.1279   2.1279   2.6709   2.6709   2.6819   2.6819
     4.1447   4.1447   4.1530   4.1530   6.2653   6.2653   7.6324   7.6324
     8.1534   8.1534

          k = 0.0000 0.3849 0.0000 (  1755 PWs)   bands (ev):

    -9.5588  -9.1335   2.0070   2.4174   2.7634   3.0048   3.1503   3.1995
     3.8609   4.1253   4.2838   4.4303   4.6790   5.3496   6.3971   6.9050
     7.7421   8.0619

          k = 0.0000 0.3849 0.0965 (  1754 PWs)   bands (ev):

    -9.5301  -9.1616   1.9838   2.3089   2.7847   2.9855   3.1187   3.1349
     3.9137   4.1346   4.2709   4.3907   4.9383   5.4458   6.3494   6.9881
     7.7100   7.9876

          k = 0.0000 0.3849 0.1930 (  1742 PWs)   bands (ev):

    -9.4517  -9.2387   1.9472   2.1045   2.8459   2.9678   3.0375   3.0478
     4.0320   4.1609   4.2383   4.2942   5.3250   5.6484   6.4379   7.2090
     7.4857   7.7834

          k = 0.0000 0.3849-0.2895 (  1746 PWs)   bands (ev):

    -9.3449  -9.3449   1.9708   1.9708   2.9366   2.9366   2.9889   2.9889
     4.1680   4.1680   4.1980   4.1980   5.5706   5.5706   6.9744   6.9744
     7.5002   7.5002

          k = 0.0000-0.5774 0.0000 (  1750 PWs)   bands (ev):

    -9.2972  -9.0739   2.1279   2.1926   2.8241   3.2816   3.3010   3.3554
     4.0481   4.2484   4.3204   4.4219   4.7652   4.7912   5.6919   6.4456
     7.2299   7.7683

          k = 0.0000-0.5774 0.0965 (  1742 PWs)   bands (ev):

    -9.2808  -9.0872   2.0808   2.1244   2.8528   3.2460   3.2798   3.3105
     4.1169   4.2513   4.3107   4.4182   4.7519   4.7610   5.9279   6.5455
     7.2745   7.6857

          k = 0.0000-0.5774 0.1930 (  1740 PWs)   bands (ev):

    -9.2368  -9.1248   1.9867   1.9991   2.9348   3.1965   3.2068   3.2373
     4.2376   4.2588   4.2904   4.3957   4.7237   4.7261   6.4612   6.8053
     7.2670   7.4579

          k = 0.0000-0.5774-0.2895 (  1724 PWs)   bands (ev):

    -9.1792  -9.1792   1.9407   1.9407   3.0579   3.0579   3.2066   3.2066
     4.2720   4.2720   4.3367   4.3367   4.7124   4.7124   6.9891   6.9891
     7.1391   7.1391

          k = 0.1667 0.2887 0.0000 (  1755 PWs)   bands (ev):

    -9.6735  -9.1768   2.1661   2.4221   2.7472   2.7698   3.0337   3.0894
     3.8730   4.0562   4.2714   4.4823   4.6166   6.0645   6.4559   6.9917
     7.9790   8.0193

          k = 0.1667 0.2887 0.0965 (  1756 PWs)   bands (ev):

    -9.6407  -9.2104   2.1358   2.3347   2.7258   2.7597   2.9983   3.0669
     3.9183   4.0858   4.2584   4.3931   4.9538   6.1568   6.4285   7.0010
     7.9118   7.9405

          k = 0.1667 0.2887 0.1930 (  1760 PWs)   bands (ev):

    -9.5505  -9.3019   2.0763   2.1604   2.7242   2.7460   2.9615   3.0129
     4.0290   4.1307   4.2245   4.2897   5.5341   6.2757   6.4672   7.1176
     7.6351   7.7304

          k = 0.1667 0.2887-0.2895 (  1750 PWs)   bands (ev):

    -9.4266  -9.4266   2.0638   2.0638   2.7379   2.7379   2.9656   2.9656
     4.1565   4.1565   4.1859   4.1859   5.9864   5.9864   6.9941   6.9941
     7.4759   7.4759

          k = 0.1667 0.4811 0.0000 (  1745 PWs)   bands (ev):

    -9.3083  -9.0698   2.2412   2.4616   2.8026   3.0994   3.3468   3.3689
     3.9353   4.0750   4.3430   4.5332   4.6655   5.2418   5.6404   6.0220
     7.1878   7.4645

          k = 0.1667 0.4811 0.0965 (  1747 PWs)   bands (ev):

    -9.2909  -9.0842   2.2086   2.3871   2.7970   3.0613   3.2958   3.3126
     3.9676   4.1553   4.3405   4.5903   4.6354   5.2804   5.7506   6.1512
     7.1666   7.4310

          k = 0.1667 0.4811 0.1930 (  1742 PWs)   bands (ev):

    -9.2443  -9.1248   2.1428   2.2311   2.8176   2.9802   3.2244   3.2448
     4.0742   4.2005   4.3467   4.4866   4.8250   5.1989   6.1079   6.4957
     7.0006   7.3626

          k = 0.1667 0.4811-0.2895 (  1746 PWs)   bands (ev):

    -9.1830  -9.1830   2.1317   2.1317   2.8888   2.8888   3.2084   3.2084
     4.1710   4.1710   4.3901   4.3901   5.0279   5.0279   6.4874   6.4874
     7.1165   7.1165

          k = 0.3333 0.5774 0.0000 (  1734 PWs)   bands (ev):

    -9.1112  -9.1112   2.3745   2.9597   2.9727   2.9727   3.6164   3.6164
     3.8876   4.0111   4.0111   4.0458   4.9029   5.0544   5.0544   6.6081
     6.6081   6.6510

          k = 0.3333 0.5774 0.0965 (  1746 PWs)   bands (ev):

    -9.1092  -9.1092   2.4003   2.8535   2.8535   2.8952   3.5474   3.5474
     3.9058   4.0378   4.1927   4.1927   5.0032   5.0032   5.0236   6.5264
     6.7355   6.7355

          k = 0.3333 0.5774 0.1930 (  1737 PWs)   bands (ev):

    -9.1051  -9.1051   2.4770   2.6503   2.6503   2.7509   3.4979   3.4979
     3.9437   4.0153   4.4634   4.4634   4.8783   4.8783   5.3426   6.1981
     6.9889   6.9889

          k = 0.3333 0.5774-0.2895 (  1758 PWs)   bands (ev):

    -9.1031  -9.1031   2.5619   2.5619   2.5987   2.5987   3.4850   3.4850
     3.9820   3.9820   4.6475   4.6475   4.7445   4.7445   5.7674   5.7674
     7.1159   7.1159

     highest occupied level (ev):     8.8285

!    total energy              =    -361.60099608 Ry
     estimated scf accuracy    <          9.2E-10 Ry

     The total energy is the sum of the following terms:
     one-electron contribution =    -141.03637778 Ry
     hartree contribution      =     113.58851767 Ry
     xc contribution           =    -109.80808118 Ry
     ewald contribution        =    -224.34505479 Ry

     convergence has been achieved in  35 iterations

     Forces acting on atoms (cartesian axes, Ry/au):

     atom    1 type  1   force =     0.00000000    0.00000000    0.03319643
     atom    2 type  1   force =     0.00000000    0.00000000    0.03319643
     atom    3 type  2   force =     0.00000000    0.00000000   -0.03319643
     atom    4 type  2   force =     0.00000000    0.00000000   -0.03319643
     The non-local contrib.  to forces
     atom    1 type  1   force =     0.00000000    0.00000000    0.19454575
     atom    2 type  1   force =     0.00000000   -0.00000000    0.19454575
     atom    3 type  2   force =    -0.00000000    0.00000000    0.16485798
     atom    4 type  2   force =    -0.00000000   -0.00000000    0.16485798
     The ionic contribution  to forces
     atom    1 type  1   force =    -0.00000000    0.00000000    1.58204187
     atom    2 type  1   force =     0.00000000   -0.00000000    1.58204187
     atom    3 type  2   force =    -0.00000000    0.00000000   -1.58204187
     atom    4 type  2   force =     0.00000000   -0.00000000   -1.58204187
     The local contribution  to forces
     atom    1 type  1   force =    -0.00000002    0.00000001   -1.72802720
     atom    2 type  1   force =     0.00000006   -0.00000003   -1.72802720
     atom    3 type  2   force =    -0.00000001    0.00000000    1.38520448
     atom    4 type  2   force =     0.00000002   -0.00000001    1.38520448
     The core correction contribution to forces
     atom    1 type  1   force =    -0.00000000    0.00000000   -0.01535652
     atom    2 type  1   force =     0.00000001   -0.00000000   -0.01535652
     atom    3 type  2   force =     0.00000000   -0.00000000   -0.00122007
     atom    4 type  2   force =    -0.00000000    0.00000000   -0.00122007
     The Hubbard contrib.    to forces
     atom    1 type  1   force =     0.00000000    0.00000000    0.00000000
     atom    2 type  1   force =     0.00000000    0.00000000    0.00000000
     atom    3 type  2   force =     0.00000000    0.00000000    0.00000000
     atom    4 type  2   force =     0.00000000    0.00000000    0.00000000
     The SCF correction term to forces
     atom    1 type  1   force =    -0.00000000   -0.00000000   -0.00001314
     atom    2 type  1   force =    -0.00000000    0.00000000   -0.00001314
     atom    3 type  2   force =    -0.00000000    0.00000000   -0.00000264
     atom    4 type  2   force =     0.00000000   -0.00000000   -0.00000264

     Total force =     0.066393     Total SCF correction =     0.000019


     Computing stress (Cartesian axis) and pressure

          total   stress  (Ry/bohr**3)                   (kbar)     P=      216.10
   0.00193072   0.00000000   0.00000000          284.02        0.00        0.00
   0.00000000   0.00193072   0.00000000            0.00      284.02        0.00
   0.00000000   0.00000000   0.00054568            0.00        0.00       80.27


     Writing all to output data dir ./ZnO_ANN.save/

     init_run     :      1.65s CPU      1.12s WALL (       1 calls)
     electrons    :     99.14s CPU     37.47s WALL (       1 calls)
     forces       :      0.60s CPU      0.28s WALL (       1 calls)
     stress       :      2.07s CPU      1.03s WALL (       1 calls)

     Called by init_run:
     wfcinit      :      0.90s CPU      0.37s WALL (       1 calls)
     potinit      :      0.21s CPU      0.22s WALL (       1 calls)
     hinit0       :      0.42s CPU      0.43s WALL (       1 calls)

     Called by electrons:
     c_bands      :     79.37s CPU     29.68s WALL (      35 calls)
     sum_band     :     14.86s CPU      5.77s WALL (      35 calls)
     v_of_rho     :      1.07s CPU      0.49s WALL (      36 calls)
     newd         :      3.57s CPU      1.44s WALL (      36 calls)
     mix_rho      :      0.19s CPU      0.09s WALL (      35 calls)

     Called by c_bands:
     init_us_2    :      1.32s CPU      0.47s WALL (    2044 calls)
     init_us_2:cp :      1.30s CPU      0.46s WALL (    2044 calls)
     cegterg      :     76.46s CPU     28.55s WALL (     980 calls)

     Called by *egterg:
     cdiaghg      :     12.33s CPU      4.00s WALL (    4283 calls)
     h_psi        :     53.45s CPU     21.86s WALL (    4311 calls)
     s_psi        :      1.17s CPU      0.35s WALL (    4311 calls)
     g_psi        :      0.35s CPU      0.09s WALL (    3303 calls)

     Called by h_psi:
     h_psi:calbec :      1.80s CPU      0.65s WALL (    4311 calls)
     vloc_psi     :     50.09s CPU     20.69s WALL (    4311 calls)
     add_vuspsi   :      1.14s CPU      0.38s WALL (    4311 calls)

     General routines
     calbec       :      2.33s CPU      0.84s WALL (    5431 calls)
     fft          :      0.79s CPU      0.47s WALL (     491 calls)
     ffts         :      0.15s CPU      0.11s WALL (      71 calls)
     fftw         :     51.89s CPU     21.43s WALL (  124618 calls)
     interpolate  :      0.16s CPU      0.13s WALL (      36 calls)

     Parallel routines

     PWSCF        :   1m43.99s CPU     40.36s WALL


   This run was terminated on:  16: 0:56  13Jun2025            

=------------------------------------------------------------------------------=
   JOB DONE.
=------------------------------------------------------------------------------=
Note: The following floating-point exceptions are signalling: IEEE_INVALID_FLAG
