Authorization required, but no authorization protocol specified

Authorization required, but no authorization protocol specified

Authorization required, but no authorization protocol specified

Authorization required, but no authorization protocol specified

Authorization required, but no authorization protocol specified

Authorization required, but no authorization protocol specified

Authorization required, but no authorization protocol specified

Authorization required, but no authorization protocol specified

Authorization required, but no authorization protocol specified

Authorization required, but no authorization protocol specified


     Program PWSCF v.7.2 starts on 13Jun2025 at 16: 1:29 

     This program is part of the open-source Quantum ESPRESSO suite
     for quantum simulation of materials; please cite
         "P. Giannozzi et al., J. Phys.:Condens. Matter 21 395502 (2009);
         "P. Giannozzi et al., J. Phys.:Condens. Matter 29 465901 (2017);
         "P. Giannozzi et al., J. Chem. Phys. 152 154105 (2020);
          URL http://www.quantum-espresso.org", 
     in publications or presentations arising from this work. More details at
     http://www.quantum-espresso.org/quote

     Parallel version (MPI), running on     8 processors

     MPI processes distributed on     1 nodes
     120717 MiB available memory on the printing compute node when the environment starts

     Reading input from /home/jvc/QEspresso7.2/ZnO_database_python/SCFs.in/scf-5.81-1.76.in

     Current dimensions of program PWSCF are:
     Max number of different atomic species (ntypx) = 10
     Max number of k-points (npk) =  40000
     Max angular momentum in pseudopotentials (lmaxx) =  4
     file Zn.upf: wavefunction(s)  3D renormalized

     R & G space division:  proc/nbgrp/npool/nimage =       8
     Subspace diagonalization in iterative solution of the eigenvalue problem:
     a serial algorithm will be used


     Parallelization info
     --------------------
     sticks:   dense  smooth     PW     G-vecs:    dense   smooth      PW
     Min         116      57     18                 5045     1787     304
     Max         118      58     20                 5048     1790     307
     Sum         931     463    151                40379    14309    2443

     Using Slab Decomposition



     bravais-lattice index     =            4
     lattice parameter (alat)  =       5.8081  a.u.
     unit-cell volume          =     298.5778 (a.u.)^3
     number of atoms/cell      =            4
     number of atomic types    =            2
     number of electrons       =        36.00
     number of Kohn-Sham states=           18
     kinetic-energy cutoff     =      50.0000  Ry
     charge density cutoff     =     400.0000  Ry
     scf convergence threshold =      1.0E-08
     mixing beta               =       0.3000
     number of iterations used =            8  plain     mixing
     Exchange-correlation= PBE
                           (   1   4   3   4   0   0   0)

     celldm(1)=   5.808092  celldm(2)=   0.000000  celldm(3)=   1.759651
     celldm(4)=   0.000000  celldm(5)=   0.000000  celldm(6)=   0.000000

     crystal axes: (cart. coord. in units of alat)
               a(1) = (   1.000000   0.000000   0.000000 )  
               a(2) = (  -0.500000   0.866025   0.000000 )  
               a(3) = (   0.000000   0.000000   1.759651 )  

     reciprocal axes: (cart. coord. in units 2 pi/alat)
               b(1) = (  1.000000  0.577350 -0.000000 )  
               b(2) = (  0.000000  1.154701  0.000000 )  
               b(3) = (  0.000000 -0.000000  0.568295 )  


     PseudoPot. # 1 for Zn read from file:
     /home/jvc/QEspresso7.2/ZnO_database/pseudos/Zn.upf
     MD5 check sum: 7f56cabf9682ed8c977c2f7d0c5985c5
     Pseudo is Ultrasoft + core correction, Zval = 12.0
     Generated using &quot;atomic&quot; code by A. Dal Corso  v.6.2.2
     Using radial grid of 1201 points,  6 beta functions with: 
                l(1) =   0
                l(2) =   0
                l(3) =   1
                l(4) =   1
                l(5) =   2
                l(6) =   2
     Q(r) pseudized with 0 coefficients 


     PseudoPot. # 2 for O  read from file:
     /home/jvc/QEspresso7.2/ZnO_database/pseudos/O.upf
     MD5 check sum: 91400c9766925bcf19f520983a725ff0
     Pseudo is Ultrasoft + core correction, Zval =  6.0
     Generated using &quot;atomic&quot; code by A. Dal Corso  v.6.3MaX
     Using radial grid of 1095 points,  4 beta functions with: 
                l(1) =   0
                l(2) =   0
                l(3) =   1
                l(4) =   1
     Q(r) pseudized with 0 coefficients 


     atomic species   valence    mass     pseudopotential
        Zn            12.00    63.38000     Zn( 1.00)
        O              6.00    15.99900     O ( 1.00)

     12 Sym. Ops. (no inversion) found ( 6 have fractional translation)



   Cartesian axes

     site n.     atom                  positions (alat units)
         1           Zn  tau(   1) = (   0.5000000   0.2886751   0.8809402  )
         2           Zn  tau(   2) = (  -0.0000000   0.5773503   0.0011149  )
         3           O   tau(   3) = (   0.5000000   0.2886751   1.5479231  )
         4           O   tau(   4) = (  -0.0000000   0.5773503   0.6680978  )

     number of k points=    28
                       cart. coord. in units 2pi/alat
        k(    1) = (   0.0000000   0.0000000   0.0000000), wk =   0.0092593
        k(    2) = (   0.0000000   0.0000000   0.0947158), wk =   0.0185185
        k(    3) = (   0.0000000   0.0000000   0.1894315), wk =   0.0185185
        k(    4) = (   0.0000000   0.0000000  -0.2841473), wk =   0.0092593
        k(    5) = (   0.0000000   0.1924501   0.0000000), wk =   0.0555556
        k(    6) = (   0.0000000   0.1924501   0.0947158), wk =   0.1111111
        k(    7) = (   0.0000000   0.1924501   0.1894315), wk =   0.1111111
        k(    8) = (   0.0000000   0.1924501  -0.2841473), wk =   0.0555556
        k(    9) = (   0.0000000   0.3849002   0.0000000), wk =   0.0555556
        k(   10) = (   0.0000000   0.3849002   0.0947158), wk =   0.1111111
        k(   11) = (   0.0000000   0.3849002   0.1894315), wk =   0.1111111
        k(   12) = (   0.0000000   0.3849002  -0.2841473), wk =   0.0555556
        k(   13) = (   0.0000000  -0.5773503   0.0000000), wk =   0.0277778
        k(   14) = (   0.0000000  -0.5773503   0.0947158), wk =   0.0555556
        k(   15) = (   0.0000000  -0.5773503   0.1894315), wk =   0.0555556
        k(   16) = (   0.0000000  -0.5773503  -0.2841473), wk =   0.0277778
        k(   17) = (   0.1666667   0.2886751   0.0000000), wk =   0.0555556
        k(   18) = (   0.1666667   0.2886751   0.0947158), wk =   0.1111111
        k(   19) = (   0.1666667   0.2886751   0.1894315), wk =   0.1111111
        k(   20) = (   0.1666667   0.2886751  -0.2841473), wk =   0.0555556
        k(   21) = (   0.1666667   0.4811252   0.0000000), wk =   0.1111111
        k(   22) = (   0.1666667   0.4811252   0.0947158), wk =   0.2222222
        k(   23) = (   0.1666667   0.4811252   0.1894315), wk =   0.2222222
        k(   24) = (   0.1666667   0.4811252  -0.2841473), wk =   0.1111111
        k(   25) = (   0.3333333   0.5773503   0.0000000), wk =   0.0185185
        k(   26) = (   0.3333333   0.5773503   0.0947158), wk =   0.0370370
        k(   27) = (   0.3333333   0.5773503   0.1894315), wk =   0.0370370
        k(   28) = (   0.3333333   0.5773503  -0.2841473), wk =   0.0185185

     Dense  grid:    40379 G-vectors     FFT dimensions: (  40,  40,  72)

     Smooth grid:    14309 G-vectors     FFT dimensions: (  27,  27,  48)

     Estimated max dynamical RAM per process >      23.85 MB

     Estimated total dynamical RAM >     190.78 MB

     Check: negative core charge=   -0.000002

     Initial potential from superposition of free atoms

     starting charge      35.9925, renormalised to      36.0000
     Starting wfcs are   26 randomized atomic wfcs

     total cpu time spent up to now is        1.6 secs

     Self-consistent Calculation

     iteration #  1     ecut=    50.00 Ry     beta= 0.30
     Davidson diagonalization with overlap
     ethr =  1.00E-02,  avg # of iterations =  2.0

     total cpu time spent up to now is        2.4 secs

     total energy              =    -361.45495624 Ry
     estimated scf accuracy    <       0.68355938 Ry

     iteration #  2     ecut=    50.00 Ry     beta= 0.30
     Davidson diagonalization with overlap
     ethr =  1.90E-03,  avg # of iterations =  2.0

     total cpu time spent up to now is        3.4 secs

     total energy              =    -361.52880544 Ry
     estimated scf accuracy    <       0.10922948 Ry

     iteration #  3     ecut=    50.00 Ry     beta= 0.30
     Davidson diagonalization with overlap
     ethr =  3.03E-04,  avg # of iterations =  6.3

     total cpu time spent up to now is        4.9 secs

     total energy              =    -361.57303001 Ry
     estimated scf accuracy    <       0.07769564 Ry

     iteration #  4     ecut=    50.00 Ry     beta= 0.30
     Davidson diagonalization with overlap
     ethr =  2.16E-04,  avg # of iterations =  5.6

     total cpu time spent up to now is        6.4 secs

     total energy              =    -361.62566346 Ry
     estimated scf accuracy    <       0.05072169 Ry

     iteration #  5     ecut=    50.00 Ry     beta= 0.30
     Davidson diagonalization with overlap
     ethr =  1.41E-04,  avg # of iterations =  1.9

     total cpu time spent up to now is        7.2 secs

     total energy              =    -361.59472421 Ry
     estimated scf accuracy    <       0.07280376 Ry

     iteration #  6     ecut=    50.00 Ry     beta= 0.30
     Davidson diagonalization with overlap
     ethr =  1.41E-04,  avg # of iterations =  2.0

     total cpu time spent up to now is        8.0 secs

     total energy              =    -361.58967021 Ry
     estimated scf accuracy    <       0.01780096 Ry

     iteration #  7     ecut=    50.00 Ry     beta= 0.30
     Davidson diagonalization with overlap
     ethr =  4.94E-05,  avg # of iterations =  5.6

     total cpu time spent up to now is        9.5 secs

     total energy              =    -361.60477088 Ry
     estimated scf accuracy    <       0.01006879 Ry

     iteration #  8     ecut=    50.00 Ry     beta= 0.30
     Davidson diagonalization with overlap
     ethr =  2.80E-05,  avg # of iterations =  1.2

     total cpu time spent up to now is       10.3 secs

     total energy              =    -361.60379549 Ry
     estimated scf accuracy    <       0.00698541 Ry

     iteration #  9     ecut=    50.00 Ry     beta= 0.30
     Davidson diagonalization with overlap
     ethr =  1.94E-05,  avg # of iterations =  1.3

     total cpu time spent up to now is       11.0 secs

     total energy              =    -361.60266046 Ry
     estimated scf accuracy    <       0.00353068 Ry

     iteration # 10     ecut=    50.00 Ry     beta= 0.30
     Davidson diagonalization with overlap
     ethr =  9.81E-06,  avg # of iterations =  2.5

     total cpu time spent up to now is       12.0 secs

     total energy              =    -361.60312422 Ry
     estimated scf accuracy    <       0.00044087 Ry

     iteration # 11     ecut=    50.00 Ry     beta= 0.30
     Davidson diagonalization with overlap
     ethr =  1.22E-06,  avg # of iterations =  6.0

     total cpu time spent up to now is       13.5 secs

     total energy              =    -361.60351893 Ry
     estimated scf accuracy    <       0.00003662 Ry

     iteration # 12     ecut=    50.00 Ry     beta= 0.30
     Davidson diagonalization with overlap
     ethr =  1.02E-07,  avg # of iterations =  4.7

     total cpu time spent up to now is       14.6 secs

     total energy              =    -361.60348563 Ry
     estimated scf accuracy    <       0.00005237 Ry

     iteration # 13     ecut=    50.00 Ry     beta= 0.30
     Davidson diagonalization with overlap
     ethr =  1.02E-07,  avg # of iterations =  8.5

     total cpu time spent up to now is       16.6 secs

     total energy              =    -361.60357586 Ry
     estimated scf accuracy    <       0.00025339 Ry

     iteration # 14     ecut=    50.00 Ry     beta= 0.30
     Davidson diagonalization with overlap
     ethr =  1.02E-07,  avg # of iterations =  1.0

     total cpu time spent up to now is       17.4 secs

     total energy              =    -361.60359239 Ry
     estimated scf accuracy    <       0.00023765 Ry

     iteration # 15     ecut=    50.00 Ry     beta= 0.30
     Davidson diagonalization with overlap
     ethr =  1.02E-07,  avg # of iterations =  1.0

     total cpu time spent up to now is       18.1 secs

     total energy              =    -361.60346914 Ry
     estimated scf accuracy    <       0.00027205 Ry

     iteration # 16     ecut=    50.00 Ry     beta= 0.30
     Davidson diagonalization with overlap
     ethr =  1.02E-07,  avg # of iterations =  7.0

     total cpu time spent up to now is       19.9 secs

     total energy              =    -361.60351298 Ry
     estimated scf accuracy    <       0.00000128 Ry

     iteration # 17     ecut=    50.00 Ry     beta= 0.30
     Davidson diagonalization with overlap
     ethr =  3.55E-09,  avg # of iterations =  6.7

     total cpu time spent up to now is       21.4 secs

     total energy              =    -361.60351913 Ry
     estimated scf accuracy    <       0.00000022 Ry

     iteration # 18     ecut=    50.00 Ry     beta= 0.30
     Davidson diagonalization with overlap
     c_bands:  1 eigenvalues not converged
     ethr =  6.24E-10,  avg # of iterations = 13.3

     total cpu time spent up to now is       24.4 secs

     total energy              =    -361.60351341 Ry
     estimated scf accuracy    <       0.00005184 Ry

     iteration # 19     ecut=    50.00 Ry     beta= 0.30
     Davidson diagonalization with overlap
     ethr =  6.24E-10,  avg # of iterations = 11.4

     total cpu time spent up to now is       27.1 secs

     total energy              =    -361.60351397 Ry
     estimated scf accuracy    <       0.00000896 Ry

     iteration # 20     ecut=    50.00 Ry     beta= 0.30
     Davidson diagonalization with overlap
     ethr =  6.24E-10,  avg # of iterations =  8.5

     total cpu time spent up to now is       29.1 secs

     total energy              =    -361.60351423 Ry
     estimated scf accuracy    <       0.00000137 Ry

     iteration # 21     ecut=    50.00 Ry     beta= 0.30
     Davidson diagonalization with overlap
     ethr =  6.24E-10,  avg # of iterations =  5.0

     total cpu time spent up to now is       30.3 secs

     total energy              =    -361.60351418 Ry
     estimated scf accuracy    <       0.00000030 Ry

     iteration # 22     ecut=    50.00 Ry     beta= 0.30
     Davidson diagonalization with overlap
     ethr =  6.24E-10,  avg # of iterations =  4.9

     total cpu time spent up to now is       31.5 secs

     End of self-consistent calculation

          k = 0.0000 0.0000 0.0000 (  1823 PWs)   bands (ev):

   -10.3180  -9.6342   1.9852   2.2660   2.2660   2.3437   2.4336   2.4336
     3.7804   3.7804   3.9637   3.9637   4.3564   7.8746   7.8746   8.1478
     8.5436   8.5436

          k = 0.0000 0.0000 0.0947 (  1805 PWs)   bands (ev):

   -10.2751  -9.6832   1.9702   2.2747   2.2747   2.2943   2.4193   2.4193
     3.7952   3.7952   3.9547   3.9547   4.5734   7.5858   7.9195   7.9195
     8.4990   8.4990

          k = 0.0000 0.0000 0.1894 (  1811 PWs)   bands (ev):

   -10.1561  -9.8146   1.9733   2.1737   2.2991   2.2991   2.3823   2.3823
     3.8338   3.8338   3.9263   3.9263   5.1384   6.7378   8.0420   8.0420
     8.3766   8.3766

          k = 0.0000 0.0000-0.2841 (  1800 PWs)   bands (ev):

    -9.9884  -9.9884   2.0463   2.0463   2.3377   2.3377   2.3377   2.3377
     3.8829   3.8829   3.8829   3.8829   5.8975   5.8975   8.2093   8.2093
     8.2093   8.2093

          k = 0.0000 0.1925 0.0000 (  1791 PWs)   bands (ev):

   -10.1323  -9.5281   2.0360   2.3116   2.3598   2.3718   2.4894   2.5765
     3.6944   3.7749   3.9716   4.0667   4.3066   6.8213   7.3853   7.4997
     8.0043   8.3026

          k = 0.0000 0.1925 0.0947 (  1798 PWs)   bands (ev):

   -10.0938  -9.5706   2.0095   2.1647   2.3826   2.4306   2.4864   2.5595
     3.7207   3.7895   3.9599   4.0117   4.5889   6.8464   7.2226   7.5543
     7.8993   8.2494

          k = 0.0000 0.1925 0.1894 (  1787 PWs)   bands (ev):

    -9.9872  -9.6853   1.9551   2.0225   2.4140   2.4462   2.4796   2.5157
     3.7868   3.8283   3.9270   3.9447   5.2079   6.5920   7.1403   7.6483
     7.7027   8.1037

          k = 0.0000 0.1925-0.2841 (  1792 PWs)   bands (ev):

    -9.8383  -9.8383   1.9485   1.9485   2.4604   2.4604   2.4617   2.4617
     3.8679   3.8679   3.8789   3.8789   5.9379   5.9379   7.3624   7.3624
     7.9039   7.9039

          k = 0.0000 0.3849 0.0000 (  1783 PWs)   bands (ev):

    -9.7189  -9.3295   1.8116   2.2072   2.5494   2.8139   2.9069   2.9864
     3.6029   3.8617   4.0005   4.1830   4.3823   5.0957   6.1144   6.7143
     7.4444   7.7786

          k = 0.0000 0.3849 0.0947 (  1784 PWs)   bands (ev):

    -9.6927  -9.3553   1.7937   2.1118   2.5696   2.7956   2.8784   2.9249
     3.6503   3.8699   3.9893   4.1118   4.6598   5.1811   6.0734   6.7899
     7.4007   7.7098

          k = 0.0000 0.3849 0.1894 (  1785 PWs)   bands (ev):

    -9.6212  -9.4263   1.7684   1.9265   2.6269   2.7759   2.8044   2.8435
     3.7592   3.8927   3.9608   4.0085   5.0472   5.3579   6.1604   6.9918
     7.1627   7.5209

          k = 0.0000 0.3849-0.2841 (  1780 PWs)   bands (ev):

    -9.5236  -9.5236   1.7988   1.7988   2.7116   2.7116   2.7916   2.7916
     3.8868   3.8868   3.9255   3.9255   5.2876   5.2876   6.6629   6.6629
     7.2595   7.2595

          k = 0.0000-0.5774 0.0000 (  1798 PWs)   bands (ev):

    -9.4653  -9.2613   1.9344   1.9980   2.6104   3.0819   3.0998   3.1179
     3.7872   3.9803   4.0412   4.1425   4.4711   4.4997   5.4604   6.2692
     6.9378   7.4866

          k = 0.0000-0.5774 0.0947 (  1780 PWs)   bands (ev):

    -9.4504  -9.2736   1.8942   1.9391   2.6374   3.0596   3.0669   3.0791
     3.8508   3.9828   4.0336   4.1382   4.4506   4.4819   5.6769   6.3596
     6.9736   7.4099

          k = 0.0000-0.5774 0.1894 (  1762 PWs)   bands (ev):

    -9.4107  -9.3084   1.8139   1.8292   2.7143   2.9561   3.0312   3.0374
     3.9636   3.9897   4.0170   4.1154   4.4256   4.4463   6.1759   6.5964
     6.9523   7.1985

          k = 0.0000-0.5774-0.2841 (  1764 PWs)   bands (ev):

    -9.3583  -9.3583   1.7760   1.7760   2.8285   2.8285   3.0195   3.0195
     4.0010   4.0010   4.0578   4.0578   4.4230   4.4230   6.6780   6.6780
     6.9034   6.9034

          k = 0.1667 0.2887 0.0000 (  1785 PWs)   bands (ev):

    -9.8310  -9.3758   1.9673   2.2194   2.5203   2.5587   2.8323   2.8551
     3.6149   3.7968   3.9877   4.2300   4.3227   5.8340   6.1904   6.7546
     7.6796   7.7326

          k = 0.1667 0.2887 0.0947 (  1795 PWs)   bands (ev):

    -9.8009  -9.4066   1.9423   2.1423   2.5043   2.5493   2.7947   2.8359
     3.6562   3.8220   3.9760   4.1118   4.6739   5.9203   6.1518   6.7729
     7.6022   7.6596

          k = 0.1667 0.2887 0.1894 (  1791 PWs)   bands (ev):

    -9.7185  -9.4907   1.8948   1.9846   2.5060   2.5350   2.7544   2.7907
     3.7586   3.8620   3.9459   4.0048   5.2407   5.9902   6.2061   6.8797
     7.3240   7.4650

          k = 0.1667 0.2887-0.2841 (  1782 PWs)   bands (ev):

    -9.6050  -9.6050   1.8914   1.8914   2.5228   2.5228   2.7530   2.7530
     3.8790   3.8790   3.9103   3.9103   5.6970   5.6970   6.6946   6.6946
     7.2272   7.2272

          k = 0.1667 0.4811 0.0000 (  1781 PWs)   bands (ev):

    -9.4758  -9.2578   2.0465   2.2599   2.5974   2.9086   3.1034   3.1399
     3.6718   3.8178   4.0669   4.2880   4.3726   4.9588   5.4199   5.7915
     6.9051   7.1823

          k = 0.1667 0.4811 0.0947 (  1774 PWs)   bands (ev):

    -9.4601  -9.2711   2.0206   2.1951   2.5933   2.8710   3.0598   3.0880
     3.7031   3.8875   4.0652   4.3063   4.3766   4.9913   5.5272   5.9109
     6.8820   7.1466

          k = 0.1667 0.4811 0.1894 (  1777 PWs)   bands (ev):

    -9.4179  -9.3087   1.9693   2.0578   2.6136   2.7812   3.0016   3.0278
     3.8040   3.9297   4.0708   4.1999   4.5572   4.9147   5.8696   6.2209
     6.7311   7.0628

          k = 0.1667 0.4811-0.2841 (  1780 PWs)   bands (ev):

    -9.3621  -9.3621   1.9660   1.9660   2.6840   2.6840   2.9936   2.9936
     3.8994   3.8994   4.1092   4.1092   4.7502   4.7502   6.2274   6.2274
     6.8231   6.8231

          k = 0.3333 0.5774 0.0000 (  1776 PWs)   bands (ev):

    -9.2888  -9.2888   2.1658   2.7261   2.7934   2.7934   3.4145   3.4145
     3.6261   3.7438   3.7438   3.7703   4.7012   4.7525   4.7525   6.3518
     6.3518   6.3590

          k = 0.3333 0.5774 0.0947 (  1770 PWs)   bands (ev):

    -9.2872  -9.2872   2.1912   2.6659   2.6858   2.6858   3.3435   3.3435
     3.6429   3.7630   3.9201   3.9201   4.7034   4.7034   4.8154   6.2411
     6.4677   6.4677

          k = 0.3333 0.5774 0.1894 (  1767 PWs)   bands (ev):

    -9.2840  -9.2840   2.2658   2.5012   2.5012   2.5295   3.2942   3.2942
     3.6778   3.7429   4.1792   4.1792   4.5820   4.5820   5.1172   5.9296
     6.6982   6.6982

          k = 0.3333 0.5774-0.2841 (  1788 PWs)   bands (ev):

    -9.2824  -9.2824   2.3836   2.3836   2.4205   2.4205   3.2817   3.2817
     3.7128   3.7128   4.3577   4.3577   4.4506   4.4506   5.5205   5.5205
     6.8138   6.8138

     highest occupied level (ev):     8.5436

!    total energy              =    -361.60351426 Ry
     estimated scf accuracy    <          1.1E-09 Ry

     The total energy is the sum of the following terms:
     one-electron contribution =    -143.47690547 Ry
     hartree contribution      =     114.46592162 Ry
     xc contribution           =    -109.76820511 Ry
     ewald contribution        =    -222.82432529 Ry

     convergence has been achieved in  22 iterations

     Forces acting on atoms (cartesian axes, Ry/au):

     atom    1 type  1   force =     0.00000000    0.00000000    0.03651569
     atom    2 type  1   force =     0.00000000    0.00000000    0.03651569
     atom    3 type  2   force =     0.00000000    0.00000000   -0.03651569
     atom    4 type  2   force =    -0.00000000   -0.00000000   -0.03651569
     The non-local contrib.  to forces
     atom    1 type  1   force =     0.00000000   -0.00000000    0.24520755
     atom    2 type  1   force =     0.00000000    0.00000000    0.24520755
     atom    3 type  2   force =    -0.00000000   -0.00000000    0.21206718
     atom    4 type  2   force =     0.00000000    0.00000000    0.21206718
     The ionic contribution  to forces
     atom    1 type  1   force =    -0.00000000    0.00000000    1.97468595
     atom    2 type  1   force =     0.00000000   -0.00000000    1.97468595
     atom    3 type  2   force =    -0.00000000    0.00000000   -1.97468595
     atom    4 type  2   force =     0.00000000   -0.00000000   -1.97468595
     The local contribution  to forces
     atom    1 type  1   force =    -0.00000002    0.00000001   -2.16438902
     atom    2 type  1   force =     0.00000006   -0.00000003   -2.16438901
     atom    3 type  2   force =    -0.00000001    0.00000000    1.72776329
     atom    4 type  2   force =     0.00000002   -0.00000001    1.72776329
     The core correction contribution to forces
     atom    1 type  1   force =    -0.00000000    0.00000000   -0.01904225
     atom    2 type  1   force =     0.00000001   -0.00000000   -0.01904225
     atom    3 type  2   force =     0.00000000   -0.00000000   -0.00160257
     atom    4 type  2   force =    -0.00000000    0.00000000   -0.00160257
     The Hubbard contrib.    to forces
     atom    1 type  1   force =     0.00000000    0.00000000    0.00000000
     atom    2 type  1   force =     0.00000000    0.00000000    0.00000000
     atom    3 type  2   force =     0.00000000    0.00000000    0.00000000
     atom    4 type  2   force =     0.00000000    0.00000000    0.00000000
     The SCF correction term to forces
     atom    1 type  1   force =    -0.00000000    0.00000000    0.00007799
     atom    2 type  1   force =     0.00000000   -0.00000000    0.00007799
     atom    3 type  2   force =    -0.00000000    0.00000000   -0.00003310
     atom    4 type  2   force =     0.00000000   -0.00000000   -0.00003310

     Total force =     0.073031     Total SCF correction =     0.000120


     Computing stress (Cartesian axis) and pressure

          total   stress  (Ry/bohr**3)                   (kbar)     P=      183.47
   0.00178537  -0.00000000  -0.00000000          262.64       -0.00       -0.00
  -0.00000000   0.00178537  -0.00000000           -0.00      262.64       -0.00
  -0.00000000  -0.00000000   0.00017089           -0.00       -0.00       25.14


     Writing all to output data dir ./ZnO_ANN.save/

     init_run     :      1.79s CPU      1.24s WALL (       1 calls)
     electrons    :     79.70s CPU     29.96s WALL (       1 calls)
     forces       :      0.66s CPU      0.33s WALL (       1 calls)
     stress       :      2.13s CPU      1.04s WALL (       1 calls)

     Called by init_run:
     wfcinit      :      0.92s CPU      0.38s WALL (       1 calls)
     potinit      :      0.22s CPU      0.22s WALL (       1 calls)
     hinit0       :      0.53s CPU      0.54s WALL (       1 calls)

     Called by electrons:
     c_bands      :     67.04s CPU     24.93s WALL (      22 calls)
     sum_band     :      9.39s CPU      3.69s WALL (      22 calls)
     v_of_rho     :      0.80s CPU      0.35s WALL (      23 calls)
     newd         :      2.31s CPU      0.95s WALL (      23 calls)
     mix_rho      :      0.14s CPU      0.06s WALL (      22 calls)

     Called by c_bands:
     init_us_2    :      0.79s CPU      0.29s WALL (    1316 calls)
     init_us_2:cp :      0.78s CPU      0.29s WALL (    1316 calls)
     cegterg      :     65.21s CPU     24.23s WALL (     616 calls)

     Called by *egterg:
     cdiaghg      :     10.80s CPU      3.56s WALL (    3652 calls)
     h_psi        :     44.96s CPU     18.24s WALL (    3680 calls)
     s_psi        :      0.94s CPU      0.29s WALL (    3680 calls)
     g_psi        :      0.32s CPU      0.09s WALL (    3036 calls)

     Called by h_psi:
     h_psi:calbec :      1.47s CPU      0.54s WALL (    3680 calls)
     vloc_psi     :     42.20s CPU     17.27s WALL (    3680 calls)
     add_vuspsi   :      0.93s CPU      0.32s WALL (    3680 calls)

     General routines
     calbec       :      1.85s CPU      0.68s WALL (    4436 calls)
     fft          :      0.77s CPU      0.48s WALL (     322 calls)
     ffts         :      0.13s CPU      0.11s WALL (      45 calls)
     fftw         :     41.88s CPU     17.19s WALL (   99222 calls)
     interpolate  :      0.15s CPU      0.12s WALL (      23 calls)

     Parallel routines

     PWSCF        :   1m24.80s CPU     33.03s WALL


   This run was terminated on:  16: 2: 2  13Jun2025            

=------------------------------------------------------------------------------=
   JOB DONE.
=------------------------------------------------------------------------------=
Note: The following floating-point exceptions are signalling: IEEE_INVALID_FLAG
