Authorization required, but no authorization protocol specified

Authorization required, but no authorization protocol specified

Authorization required, but no authorization protocol specified

Authorization required, but no authorization protocol specified

Authorization required, but no authorization protocol specified

Authorization required, but no authorization protocol specified

Authorization required, but no authorization protocol specified

Authorization required, but no authorization protocol specified

Authorization required, but no authorization protocol specified

Authorization required, but no authorization protocol specified


     Program PWSCF v.7.2 starts on 13Jun2025 at 15:17:32 

     This program is part of the open-source Quantum ESPRESSO suite
     for quantum simulation of materials; please cite
         "P. Giannozzi et al., J. Phys.:Condens. Matter 21 395502 (2009);
         "P. Giannozzi et al., J. Phys.:Condens. Matter 29 465901 (2017);
         "P. Giannozzi et al., J. Chem. Phys. 152 154105 (2020);
          URL http://www.quantum-espresso.org", 
     in publications or presentations arising from this work. More details at
     http://www.quantum-espresso.org/quote

     Parallel version (MPI), running on     8 processors

     MPI processes distributed on     1 nodes
     120656 MiB available memory on the printing compute node when the environment starts

     Reading input from /home/jvc/QEspresso7.2/ZnO_database_python/SCFs.in/scf-5.56-1.60.in

     Current dimensions of program PWSCF are:
     Max number of different atomic species (ntypx) = 10
     Max number of k-points (npk) =  40000
     Max angular momentum in pseudopotentials (lmaxx) =  4
     file Zn.upf: wavefunction(s)  3D renormalized

     R & G space division:  proc/nbgrp/npool/nimage =       8
     Subspace diagonalization in iterative solution of the eigenvalue problem:
     a serial algorithm will be used


     Parallelization info
     --------------------
     sticks:   dense  smooth     PW     G-vecs:    dense   smooth      PW
     Min         105      53     15                 4011     1425     243
     Max         106      55     16                 4020     1428     250
     Sum         847     433    127                32151    11417    1961

     Using Slab Decomposition



     bravais-lattice index     =            4
     lattice parameter (alat)  =       5.5609  a.u.
     unit-cell volume          =     238.0182 (a.u.)^3
     number of atoms/cell      =            4
     number of atomic types    =            2
     number of electrons       =        36.00
     number of Kohn-Sham states=           18
     kinetic-energy cutoff     =      50.0000  Ry
     charge density cutoff     =     400.0000  Ry
     scf convergence threshold =      1.0E-08
     mixing beta               =       0.3000
     number of iterations used =            8  plain     mixing
     Exchange-correlation= PBE
                           (   1   4   3   4   0   0   0)

     celldm(1)=   5.560939  celldm(2)=   0.000000  celldm(3)=   1.598215
     celldm(4)=   0.000000  celldm(5)=   0.000000  celldm(6)=   0.000000

     crystal axes: (cart. coord. in units of alat)
               a(1) = (   1.000000   0.000000   0.000000 )  
               a(2) = (  -0.500000   0.866025   0.000000 )  
               a(3) = (   0.000000   0.000000   1.598215 )  

     reciprocal axes: (cart. coord. in units 2 pi/alat)
               b(1) = (  1.000000  0.577350 -0.000000 )  
               b(2) = (  0.000000  1.154701  0.000000 )  
               b(3) = (  0.000000 -0.000000  0.625698 )  


     PseudoPot. # 1 for Zn read from file:
     /home/jvc/QEspresso7.2/ZnO_database/pseudos/Zn.upf
     MD5 check sum: 7f56cabf9682ed8c977c2f7d0c5985c5
     Pseudo is Ultrasoft + core correction, Zval = 12.0
     Generated using &quot;atomic&quot; code by A. Dal Corso  v.6.2.2
     Using radial grid of 1201 points,  6 beta functions with: 
                l(1) =   0
                l(2) =   0
                l(3) =   1
                l(4) =   1
                l(5) =   2
                l(6) =   2
     Q(r) pseudized with 0 coefficients 


     PseudoPot. # 2 for O  read from file:
     /home/jvc/QEspresso7.2/ZnO_database/pseudos/O.upf
     MD5 check sum: 91400c9766925bcf19f520983a725ff0
     Pseudo is Ultrasoft + core correction, Zval =  6.0
     Generated using &quot;atomic&quot; code by A. Dal Corso  v.6.3MaX
     Using radial grid of 1095 points,  4 beta functions with: 
                l(1) =   0
                l(2) =   0
                l(3) =   1
                l(4) =   1
     Q(r) pseudized with 0 coefficients 


     atomic species   valence    mass     pseudopotential
        Zn            12.00    63.38000     Zn( 1.00)
        O              6.00    15.99900     O ( 1.00)

     12 Sym. Ops. (no inversion) found ( 6 have fractional translation)



   Cartesian axes

     site n.     atom                  positions (alat units)
         1           Zn  tau(   1) = (   0.5000000   0.2886751   0.8001200  )
         2           Zn  tau(   2) = (  -0.0000000   0.5773503   0.0010126  )
         3           O   tau(   3) = (   0.5000000   0.2886751   1.4059118  )
         4           O   tau(   4) = (  -0.0000000   0.5773503   0.6068045  )

     number of k points=    28
                       cart. coord. in units 2pi/alat
        k(    1) = (   0.0000000   0.0000000   0.0000000), wk =   0.0092593
        k(    2) = (   0.0000000   0.0000000   0.1042830), wk =   0.0185185
        k(    3) = (   0.0000000   0.0000000   0.2085660), wk =   0.0185185
        k(    4) = (   0.0000000   0.0000000  -0.3128491), wk =   0.0092593
        k(    5) = (   0.0000000   0.1924501   0.0000000), wk =   0.0555556
        k(    6) = (   0.0000000   0.1924501   0.1042830), wk =   0.1111111
        k(    7) = (   0.0000000   0.1924501   0.2085660), wk =   0.1111111
        k(    8) = (   0.0000000   0.1924501  -0.3128491), wk =   0.0555556
        k(    9) = (   0.0000000   0.3849002   0.0000000), wk =   0.0555556
        k(   10) = (   0.0000000   0.3849002   0.1042830), wk =   0.1111111
        k(   11) = (   0.0000000   0.3849002   0.2085660), wk =   0.1111111
        k(   12) = (   0.0000000   0.3849002  -0.3128491), wk =   0.0555556
        k(   13) = (   0.0000000  -0.5773503   0.0000000), wk =   0.0277778
        k(   14) = (   0.0000000  -0.5773503   0.1042830), wk =   0.0555556
        k(   15) = (   0.0000000  -0.5773503   0.2085660), wk =   0.0555556
        k(   16) = (   0.0000000  -0.5773503  -0.3128491), wk =   0.0277778
        k(   17) = (   0.1666667   0.2886751   0.0000000), wk =   0.0555556
        k(   18) = (   0.1666667   0.2886751   0.1042830), wk =   0.1111111
        k(   19) = (   0.1666667   0.2886751   0.2085660), wk =   0.1111111
        k(   20) = (   0.1666667   0.2886751  -0.3128491), wk =   0.0555556
        k(   21) = (   0.1666667   0.4811252   0.0000000), wk =   0.1111111
        k(   22) = (   0.1666667   0.4811252   0.1042830), wk =   0.2222222
        k(   23) = (   0.1666667   0.4811252   0.2085660), wk =   0.2222222
        k(   24) = (   0.1666667   0.4811252  -0.3128491), wk =   0.1111111
        k(   25) = (   0.3333333   0.5773503   0.0000000), wk =   0.0185185
        k(   26) = (   0.3333333   0.5773503   0.1042830), wk =   0.0370370
        k(   27) = (   0.3333333   0.5773503   0.2085660), wk =   0.0370370
        k(   28) = (   0.3333333   0.5773503  -0.3128491), wk =   0.0185185

     Dense  grid:    32151 G-vectors     FFT dimensions: (  36,  36,  60)

     Smooth grid:    11417 G-vectors     FFT dimensions: (  25,  25,  48)

     Estimated max dynamical RAM per process >      19.58 MB

     Estimated total dynamical RAM >     156.61 MB

     Check: negative core charge=   -0.000001

     Initial potential from superposition of free atoms

     starting charge      35.9925, renormalised to      36.0000
     Starting wfcs are   26 randomized atomic wfcs

     total cpu time spent up to now is        1.3 secs

     Self-consistent Calculation

     iteration #  1     ecut=    50.00 Ry     beta= 0.30
     Davidson diagonalization with overlap
     ethr =  1.00E-02,  avg # of iterations =  2.1

     total cpu time spent up to now is        2.0 secs

     total energy              =    -361.29118657 Ry
     estimated scf accuracy    <       0.68478527 Ry

     iteration #  2     ecut=    50.00 Ry     beta= 0.30
     Davidson diagonalization with overlap
     ethr =  1.90E-03,  avg # of iterations =  2.0

     total cpu time spent up to now is        2.7 secs

     total energy              =    -361.31551272 Ry
     estimated scf accuracy    <       0.15047220 Ry

     iteration #  3     ecut=    50.00 Ry     beta= 0.30
     Davidson diagonalization with overlap
     ethr =  4.18E-04,  avg # of iterations =  6.2

     total cpu time spent up to now is        3.9 secs

     total energy              =    -361.41099852 Ry
     estimated scf accuracy    <       0.09806265 Ry

     iteration #  4     ecut=    50.00 Ry     beta= 0.30
     Davidson diagonalization with overlap
     ethr =  2.72E-04,  avg # of iterations =  1.8

     total cpu time spent up to now is        4.5 secs

     total energy              =    -361.40413968 Ry
     estimated scf accuracy    <       0.03163978 Ry

     iteration #  5     ecut=    50.00 Ry     beta= 0.30
     Davidson diagonalization with overlap
     ethr =  8.79E-05,  avg # of iterations =  8.9

     total cpu time spent up to now is        6.2 secs

     total energy              =    -361.45877130 Ry
     estimated scf accuracy    <       0.49238571 Ry

     iteration #  6     ecut=    50.00 Ry     beta= 0.30
     Davidson diagonalization with overlap
     ethr =  8.79E-05,  avg # of iterations =  5.1

     total cpu time spent up to now is        7.2 secs

     total energy              =    -361.37632771 Ry
     estimated scf accuracy    <       0.19917537 Ry

     iteration #  7     ecut=    50.00 Ry     beta= 0.30
     Davidson diagonalization with overlap
     ethr =  8.79E-05,  avg # of iterations =  7.1

     total cpu time spent up to now is        8.6 secs

     total energy              =    -361.41742357 Ry
     estimated scf accuracy    <       0.00011461 Ry

     iteration #  8     ecut=    50.00 Ry     beta= 0.30
     Davidson diagonalization with overlap
     ethr =  3.18E-07,  avg # of iterations = 10.9

     total cpu time spent up to now is       10.5 secs

     total energy              =    -361.41796420 Ry
     estimated scf accuracy    <       0.00158469 Ry

     iteration #  9     ecut=    50.00 Ry     beta= 0.30
     Davidson diagonalization with overlap
     ethr =  3.18E-07,  avg # of iterations =  6.1

     total cpu time spent up to now is       11.7 secs

     total energy              =    -361.41791682 Ry
     estimated scf accuracy    <       0.00026673 Ry

     iteration # 10     ecut=    50.00 Ry     beta= 0.30
     Davidson diagonalization with overlap
     ethr =  3.18E-07,  avg # of iterations =  6.3

     total cpu time spent up to now is       12.9 secs

     total energy              =    -361.41800630 Ry
     estimated scf accuracy    <       0.00003514 Ry

     iteration # 11     ecut=    50.00 Ry     beta= 0.30
     Davidson diagonalization with overlap
     ethr =  9.76E-08,  avg # of iterations =  2.1

     total cpu time spent up to now is       13.6 secs

     total energy              =    -361.41800498 Ry
     estimated scf accuracy    <       0.00000972 Ry

     iteration # 12     ecut=    50.00 Ry     beta= 0.30
     Davidson diagonalization with overlap
     ethr =  2.70E-08,  avg # of iterations =  4.5

     total cpu time spent up to now is       14.5 secs

     total energy              =    -361.41800964 Ry
     estimated scf accuracy    <       0.00000003 Ry

     iteration # 13     ecut=    50.00 Ry     beta= 0.30
     Davidson diagonalization with overlap
     ethr =  8.99E-11,  avg # of iterations = 10.4

     total cpu time spent up to now is       16.4 secs

     total energy              =    -361.41801002 Ry
     estimated scf accuracy    <       0.00000010 Ry

     iteration # 14     ecut=    50.00 Ry     beta= 0.30
     Davidson diagonalization with overlap
     ethr =  8.99E-11,  avg # of iterations =  7.8

     total cpu time spent up to now is       17.8 secs

     total energy              =    -361.41801006 Ry
     estimated scf accuracy    <       0.00000006 Ry

     iteration # 15     ecut=    50.00 Ry     beta= 0.30
     Davidson diagonalization with overlap
     ethr =  8.99E-11,  avg # of iterations =  1.4

     total cpu time spent up to now is       18.4 secs

     total energy              =    -361.41801004 Ry
     estimated scf accuracy    <       0.00000003 Ry

     iteration # 16     ecut=    50.00 Ry     beta= 0.30
     Davidson diagonalization with overlap
     ethr =  7.51E-11,  avg # of iterations =  6.9

     total cpu time spent up to now is       19.8 secs

     total energy              =    -361.41801004 Ry
     estimated scf accuracy    <       0.00000007 Ry

     iteration # 17     ecut=    50.00 Ry     beta= 0.30
     Davidson diagonalization with overlap
     ethr =  7.51E-11,  avg # of iterations =  5.7

     total cpu time spent up to now is       20.9 secs

     End of self-consistent calculation

          k = 0.0000 0.0000 0.0000 (  1413 PWs)   bands (ev):

    -8.4319  -7.1200   4.2059   4.8917   4.8917   4.9783   5.2003   5.2003
     7.1485   7.1485   7.5680   7.5680   8.0189  11.4302  11.4302  12.4662
    12.6603  12.6603

          k = 0.0000 0.0000 0.1043 (  1424 PWs)   bands (ev):

    -8.3511  -7.2154   4.1711   4.8655   4.9012   4.9012   5.1671   5.1671
     7.1878   7.1878   7.5533   7.5533   8.3557  11.5115  11.5115  11.9719
    12.5783  12.5783

          k = 0.0000 0.0000 0.2086 (  1442 PWs)   bands (ev):

    -8.1254  -7.4703   4.1715   4.5963   4.9350   4.9350   5.0870   5.0870
     7.2879   7.2879   7.5019   7.5019   9.1807  11.1303  11.7356  11.7356
    12.3532  12.3532

          k = 0.0000 0.0000-0.3128 (  1412 PWs)   bands (ev):

    -7.8051  -7.8051   4.3224   4.3224   5.0000   5.0000   5.0000   5.0000
     7.4074   7.4074   7.4074   7.4074  10.1761  10.1761  12.0444  12.0444
    12.0444  12.0444

          k = 0.0000 0.1925 0.0000 (  1411 PWs)   bands (ev):

    -8.1788  -7.0130   4.4301   4.6699   5.0158   5.0472   5.2022   5.3809
     7.0165   7.1425   7.5940   7.6100   8.0207  10.3476  10.9294  11.5451
    12.2029  12.3806

          k = 0.0000 0.1925 0.1043 (  1422 PWs)   bands (ev):

    -8.1049  -7.0950   4.3217   4.5649   5.0295   5.0545   5.1889   5.3437
     7.0795   7.1801   7.5724   7.6096   8.3660  10.4369  11.0294  11.3418
    12.1211  12.2862

          k = 0.0000 0.1925 0.2086 (  1422 PWs)   bands (ev):

    -7.8997  -7.3163   4.1747   4.3671   5.0500   5.0742   5.1445   5.2533
     7.2287   7.2783   7.5061   7.5376   9.2275  10.6523  10.9374  11.3006
    11.7411  12.0262

          k = 0.0000 0.1925-0.3128 (  1424 PWs)   bands (ev):

    -7.6121  -7.6121   4.1947   4.1947   5.0838   5.0838   5.1525   5.1525
     7.3986   7.3986   7.3999   7.3999  10.1547  10.1547  11.1917  11.1917
    11.6661  11.6661

          k = 0.0000 0.3849 0.0000 (  1421 PWs)   bands (ev):

    -7.5958  -6.8347   4.1464   4.6653   5.2189   5.2649   5.7136   5.8288
     6.8788   7.2879   7.4932   7.6354   8.2714   8.6306   9.8788  10.0200
    11.4405  11.7479

          k = 0.0000 0.3849 0.1043 (  1421 PWs)   bands (ev):

    -7.5425  -6.8821   4.0835   4.4465   5.2481   5.2794   5.6304   5.7718
     6.9871   7.3094   7.6065   7.6461   8.3834   8.8189   9.9249  10.0224
    11.4744  11.6328

          k = 0.0000 0.3849 0.2086 (  1422 PWs)   bands (ev):

    -7.3979  -7.0151   3.9605   4.1112   5.3033   5.3341   5.4882   5.6318
     7.2068   7.3681   7.5358   7.6232   8.7682   9.2105   9.9658  10.3932
    11.3108  11.3142

          k = 0.0000 0.3849-0.3128 (  1428 PWs)   bands (ev):

    -7.2036  -7.2036   3.9361   3.9361   5.3706   5.3706   5.4698   5.4698
     7.4379   7.4379   7.4494   7.4494   9.0931   9.0931  10.6970  10.6970
    10.8657  10.8657

          k = 0.0000-0.5774 0.0000 (  1416 PWs)   bands (ev):

    -7.2133  -6.8127   4.2608   4.2691   5.2850   5.4655   5.9102   6.1312
     7.1743   7.4865   7.6641   7.7482   7.9057   8.4169   8.8960   9.2529
    10.8721  11.3821

          k = 0.0000-0.5774 0.1043 (  1416 PWs)   bands (ev):

    -7.1804  -6.8325   4.1411   4.1602   5.3255   5.4542   5.8328   6.0497
     7.2888   7.4920   7.6330   7.7619   7.9453   8.3089   9.2690   9.4354
    10.9593  11.2573

          k = 0.0000-0.5774 0.2086 (  1426 PWs)   bands (ev):

    -7.0943  -6.8923   3.9198   3.9561   5.4438   5.4743   5.6839   5.8528
     7.4844   7.5082   7.5787   7.7313   8.0447   8.2064   9.8796  10.0112
    10.9105  11.0195

          k = 0.0000-0.5774-0.3128 (  1448 PWs)   bands (ev):

    -6.9868  -6.9868   3.8384   3.8384   5.5543   5.5543   5.6295   5.6295
     7.5363   7.5363   7.6367   7.6367   8.1320   8.1320  10.4161  10.4161
    10.7056  10.7056

          k = 0.1667 0.2887 0.0000 (  1416 PWs)   bands (ev):

    -7.7576  -6.8710   4.3615   4.6328   5.2153   5.2262   5.3849   5.7228
     6.9070   7.1613   7.5858   7.6187   8.2118   9.2405   9.7420  10.5312
    11.7134  11.7337

          k = 0.1667 0.2887 0.1043 (  1418 PWs)   bands (ev):

    -7.6977  -6.9287   4.2958   4.4506   5.1715   5.1850   5.4159   5.6756
     6.9923   7.2353   7.5932   7.6719   8.4535   9.3663   9.8450  10.4214
    11.6120  11.7065

          k = 0.1667 0.2887 0.2086 (  1423 PWs)   bands (ev):

    -7.5337  -7.0884   4.1479   4.1648   5.1506   5.1573   5.4180   5.5657
     7.1922   7.3326   7.5261   7.6129   9.1394   9.8167   9.9066  10.4038
    11.2869  11.4474

          k = 0.1667 0.2887-0.3128 (  1424 PWs)   bands (ev):

    -7.3100  -7.3100   4.0601   4.0601   5.1517   5.1517   5.4604   5.4604
     7.4045   7.4045   7.4503   7.4503   9.6192   9.6192  10.5834  10.5834
    10.9416  10.9416

          k = 0.1667 0.4811 0.0000 (  1420 PWs)   bands (ev):

    -7.2323  -6.8036   4.3804   4.6388   5.1852   5.3975   5.9435   6.0896
     7.0129   7.1646   7.6698   7.6860   8.0726   8.5239   8.7961   9.3475
    10.7488  11.0690

          k = 0.1667 0.4811 0.1043 (  1421 PWs)   bands (ev):

    -7.1978  -6.8255   4.2977   4.4917   5.1650   5.3554   5.8628   6.0066
     7.0683   7.3533   7.6565   7.8022   8.0147   8.6587   8.8879   9.4919
    10.7259  11.0527

          k = 0.1667 0.4811 0.2086 (  1420 PWs)   bands (ev):

    -7.1070  -6.8909   4.1291   4.2097   5.1779   5.2939   5.7743   5.8593
     7.2375   7.4308   7.6621   7.8639   8.1459   8.6482   9.2847   9.9719
    10.4775  11.0652

          k = 0.1667 0.4811-0.3128 (  1416 PWs)   bands (ev):

    -6.9927  -6.9927   4.0628   4.0628   5.2347   5.2347   5.7662   5.7662
     7.3805   7.3805   7.7323   7.7323   8.4414   8.4414   9.8087   9.8087
    10.7763  10.7763

          k = 0.3333 0.5774 0.0000 (  1422 PWs)   bands (ev):

    -6.9200  -6.9200   4.6655   5.1694   5.1694   5.2197   6.1435   6.1435
     6.9606   7.1492   7.1492   7.2602   7.9255   8.6682   8.6682  10.0093
    10.0093  10.1061

          k = 0.3333 0.5774 0.1043 (  1416 PWs)   bands (ev):

    -6.9123  -6.9123   4.6907   4.9613   4.9613   5.1625   6.0901   6.0901
     6.9853   7.2422   7.4031   7.4031   8.0659   8.5903   8.5903   9.9406
    10.2026  10.2026

          k = 0.3333 0.5774 0.2086 (  1404 PWs)   bands (ev):

    -6.8966  -6.8966   4.6185   4.6185   4.7651   5.0289   6.0401   6.0401
     7.0461   7.1921   7.8172   7.8172   8.4128   8.4128   8.4450   9.5122
    10.5870  10.5870

          k = 0.3333 0.5774-0.3128 (  1422 PWs)   bands (ev):

    -6.8888  -6.8888   4.4716   4.4716   4.8829   4.8829   6.0241   6.0241
     7.1212   7.1212   8.1010   8.1010   8.2170   8.2170   8.9663   8.9663
    10.7820  10.7820

     highest occupied level (ev):    12.6603

!    total energy              =    -361.41801006 Ry
     estimated scf accuracy    <          6.3E-10 Ry

     The total energy is the sum of the following terms:
     one-electron contribution =    -115.41873407 Ry
     hartree contribution      =     104.98115380 Ry
     xc contribution           =    -110.36003611 Ry
     ewald contribution        =    -240.62039369 Ry

     convergence has been achieved in  17 iterations

     Forces acting on atoms (cartesian axes, Ry/au):

     atom    1 type  1   force =     0.00000000    0.00000000   -0.01119975
     atom    2 type  1   force =     0.00000000    0.00000000   -0.01119975
     atom    3 type  2   force =     0.00000000    0.00000000    0.01119975
     atom    4 type  2   force =     0.00000000    0.00000000    0.01119975
     The non-local contrib.  to forces
     atom    1 type  1   force =    -0.00000000   -0.00000000   -0.04121134
     atom    2 type  1   force =     0.00000000    0.00000000   -0.04121134
     atom    3 type  2   force =    -0.00000000   -0.00000000   -0.02142368
     atom    4 type  2   force =     0.00000000    0.00000000   -0.02142368
     The ionic contribution  to forces
     atom    1 type  1   force =    -0.00000000    0.00000000   -0.17943397
     atom    2 type  1   force =     0.00000000   -0.00000000   -0.17943397
     atom    3 type  2   force =    -0.00000000    0.00000000    0.17943397
     atom    4 type  2   force =     0.00000000   -0.00000000    0.17943397
     The local contribution  to forces
     atom    1 type  1   force =    -0.00000002    0.00000001    0.20497741
     atom    2 type  1   force =     0.00000006   -0.00000003    0.20497741
     atom    3 type  2   force =    -0.00000000    0.00000000   -0.14692159
     atom    4 type  2   force =     0.00000001   -0.00000001   -0.14692159
     The core correction contribution to forces
     atom    1 type  1   force =    -0.00000000    0.00000000    0.00446484
     atom    2 type  1   force =     0.00000001   -0.00000000    0.00446484
     atom    3 type  2   force =     0.00000000   -0.00000000    0.00011211
     atom    4 type  2   force =    -0.00000000    0.00000000    0.00011211
     The Hubbard contrib.    to forces
     atom    1 type  1   force =     0.00000000    0.00000000    0.00000000
     atom    2 type  1   force =     0.00000000    0.00000000    0.00000000
     atom    3 type  2   force =     0.00000000    0.00000000    0.00000000
     atom    4 type  2   force =     0.00000000    0.00000000    0.00000000
     The SCF correction term to forces
     atom    1 type  1   force =    -0.00000000    0.00000000    0.00000423
     atom    2 type  1   force =     0.00000000   -0.00000000    0.00000423
     atom    3 type  2   force =    -0.00000000    0.00000000   -0.00000016
     atom    4 type  2   force =     0.00000000   -0.00000000   -0.00000016

     Total force =     0.022400     Total SCF correction =     0.000006


     Computing stress (Cartesian axis) and pressure

          total   stress  (Ry/bohr**3)                   (kbar)     P=      899.84
   0.00598305  -0.00000000  -0.00000000          880.14       -0.00       -0.00
  -0.00000000   0.00598305  -0.00000000           -0.00      880.14       -0.00
  -0.00000000  -0.00000000   0.00638492           -0.00       -0.00      939.25


     Writing all to output data dir ./ZnO_ANN.save/

     init_run     :      1.46s CPU      1.01s WALL (       1 calls)
     electrons    :     52.31s CPU     19.56s WALL (       1 calls)
     forces       :      0.56s CPU      0.26s WALL (       1 calls)
     stress       :      1.85s CPU      0.92s WALL (       1 calls)

     Called by init_run:
     wfcinit      :      0.74s CPU      0.28s WALL (       1 calls)
     potinit      :      0.18s CPU      0.18s WALL (       1 calls)
     hinit0       :      0.45s CPU      0.46s WALL (       1 calls)

     Called by electrons:
     c_bands      :     45.01s CPU     16.67s WALL (      17 calls)
     sum_band     :      5.29s CPU      2.07s WALL (      17 calls)
     v_of_rho     :      0.43s CPU      0.20s WALL (      18 calls)
     newd         :      1.49s CPU      0.60s WALL (      18 calls)
     mix_rho      :      0.07s CPU      0.03s WALL (      17 calls)

     Called by c_bands:
     init_us_2    :      0.53s CPU      0.20s WALL (    1036 calls)
     init_us_2:cp :      0.52s CPU      0.19s WALL (    1036 calls)
     cegterg      :     43.85s CPU     16.21s WALL (     476 calls)

     Called by *egterg:
     cdiaghg      :      9.04s CPU      3.12s WALL (    3147 calls)
     h_psi        :     27.80s CPU     11.18s WALL (    3175 calls)
     s_psi        :      0.75s CPU      0.24s WALL (    3175 calls)
     g_psi        :      0.23s CPU      0.06s WALL (    2671 calls)

     Called by h_psi:
     h_psi:calbec :      1.13s CPU      0.44s WALL (    3175 calls)
     vloc_psi     :     25.66s CPU     10.41s WALL (    3175 calls)
     add_vuspsi   :      0.74s CPU      0.25s WALL (    3175 calls)

     General routines
     calbec       :      1.41s CPU      0.53s WALL (    3791 calls)
     fft          :      0.50s CPU      0.36s WALL (     257 calls)
     ffts         :      0.10s CPU      0.09s WALL (      35 calls)
     fftw         :     24.65s CPU     10.01s WALL (   83910 calls)
     interpolate  :      0.10s CPU      0.09s WALL (      18 calls)

     Parallel routines

     PWSCF        :     56.73s CPU     22.19s WALL


   This run was terminated on:  15:17:54  13Jun2025            

=------------------------------------------------------------------------------=
   JOB DONE.
=------------------------------------------------------------------------------=
Note: The following floating-point exceptions are signalling: IEEE_INVALID_FLAG
