Authorization required, but no authorization protocol specified

Authorization required, but no authorization protocol specified

Authorization required, but no authorization protocol specified

Authorization required, but no authorization protocol specified

Authorization required, but no authorization protocol specified

Authorization required, but no authorization protocol specified

Authorization required, but no authorization protocol specified

Authorization required, but no authorization protocol specified

Authorization required, but no authorization protocol specified

Authorization required, but no authorization protocol specified


     Program PWSCF v.7.2 starts on 13Jun2025 at 16:24:56 

     This program is part of the open-source Quantum ESPRESSO suite
     for quantum simulation of materials; please cite
         "P. Giannozzi et al., J. Phys.:Condens. Matter 21 395502 (2009);
         "P. Giannozzi et al., J. Phys.:Condens. Matter 29 465901 (2017);
         "P. Giannozzi et al., J. Chem. Phys. 152 154105 (2020);
          URL http://www.quantum-espresso.org", 
     in publications or presentations arising from this work. More details at
     http://www.quantum-espresso.org/quote

     Parallel version (MPI), running on     8 processors

     MPI processes distributed on     1 nodes
     120710 MiB available memory on the printing compute node when the environment starts

     Reading input from /home/jvc/QEspresso7.2/ZnO_database_python/SCFs.in/scf-5.93-1.76.in

     Current dimensions of program PWSCF are:
     Max number of different atomic species (ntypx) = 10
     Max number of k-points (npk) =  40000
     Max angular momentum in pseudopotentials (lmaxx) =  4
     file Zn.upf: wavefunction(s)  3D renormalized

     R & G space division:  proc/nbgrp/npool/nimage =       8
     Subspace diagonalization in iterative solution of the eigenvalue problem:
     a serial algorithm will be used


     Parallelization info
     --------------------
     sticks:   dense  smooth     PW     G-vecs:    dense   smooth      PW
     Min         119      61     18                 5357     1901     322
     Max         120      63     19                 5368     1904     327
     Sum         955     499    151                42889    15221    2601

     Using Slab Decomposition



     bravais-lattice index     =            4
     lattice parameter (alat)  =       5.9317  a.u.
     unit-cell volume          =     318.0444 (a.u.)^3
     number of atoms/cell      =            4
     number of atomic types    =            2
     number of electrons       =        36.00
     number of Kohn-Sham states=           18
     kinetic-energy cutoff     =      50.0000  Ry
     charge density cutoff     =     400.0000  Ry
     scf convergence threshold =      1.0E-08
     mixing beta               =       0.3000
     number of iterations used =            8  plain     mixing
     Exchange-correlation= PBE
                           (   1   4   3   4   0   0   0)

     celldm(1)=   5.931669  celldm(2)=   0.000000  celldm(3)=   1.759651
     celldm(4)=   0.000000  celldm(5)=   0.000000  celldm(6)=   0.000000

     crystal axes: (cart. coord. in units of alat)
               a(1) = (   1.000000   0.000000   0.000000 )  
               a(2) = (  -0.500000   0.866025   0.000000 )  
               a(3) = (   0.000000   0.000000   1.759651 )  

     reciprocal axes: (cart. coord. in units 2 pi/alat)
               b(1) = (  1.000000  0.577350 -0.000000 )  
               b(2) = (  0.000000  1.154701  0.000000 )  
               b(3) = (  0.000000 -0.000000  0.568295 )  


     PseudoPot. # 1 for Zn read from file:
     /home/jvc/QEspresso7.2/ZnO_database/pseudos/Zn.upf
     MD5 check sum: 7f56cabf9682ed8c977c2f7d0c5985c5
     Pseudo is Ultrasoft + core correction, Zval = 12.0
     Generated using &quot;atomic&quot; code by A. Dal Corso  v.6.2.2
     Using radial grid of 1201 points,  6 beta functions with: 
                l(1) =   0
                l(2) =   0
                l(3) =   1
                l(4) =   1
                l(5) =   2
                l(6) =   2
     Q(r) pseudized with 0 coefficients 


     PseudoPot. # 2 for O  read from file:
     /home/jvc/QEspresso7.2/ZnO_database/pseudos/O.upf
     MD5 check sum: 91400c9766925bcf19f520983a725ff0
     Pseudo is Ultrasoft + core correction, Zval =  6.0
     Generated using &quot;atomic&quot; code by A. Dal Corso  v.6.3MaX
     Using radial grid of 1095 points,  4 beta functions with: 
                l(1) =   0
                l(2) =   0
                l(3) =   1
                l(4) =   1
     Q(r) pseudized with 0 coefficients 


     atomic species   valence    mass     pseudopotential
        Zn            12.00    63.38000     Zn( 1.00)
        O              6.00    15.99900     O ( 1.00)

     12 Sym. Ops. (no inversion) found ( 6 have fractional translation)



   Cartesian axes

     site n.     atom                  positions (alat units)
         1           Zn  tau(   1) = (   0.5000000   0.2886751   0.8809402  )
         2           Zn  tau(   2) = (  -0.0000000   0.5773503   0.0011149  )
         3           O   tau(   3) = (   0.5000000   0.2886751   1.5479231  )
         4           O   tau(   4) = (  -0.0000000   0.5773503   0.6680978  )

     number of k points=    28
                       cart. coord. in units 2pi/alat
        k(    1) = (   0.0000000   0.0000000   0.0000000), wk =   0.0092593
        k(    2) = (   0.0000000   0.0000000   0.0947158), wk =   0.0185185
        k(    3) = (   0.0000000   0.0000000   0.1894315), wk =   0.0185185
        k(    4) = (   0.0000000   0.0000000  -0.2841473), wk =   0.0092593
        k(    5) = (   0.0000000   0.1924501   0.0000000), wk =   0.0555556
        k(    6) = (   0.0000000   0.1924501   0.0947158), wk =   0.1111111
        k(    7) = (   0.0000000   0.1924501   0.1894315), wk =   0.1111111
        k(    8) = (   0.0000000   0.1924501  -0.2841473), wk =   0.0555556
        k(    9) = (   0.0000000   0.3849002   0.0000000), wk =   0.0555556
        k(   10) = (   0.0000000   0.3849002   0.0947158), wk =   0.1111111
        k(   11) = (   0.0000000   0.3849002   0.1894315), wk =   0.1111111
        k(   12) = (   0.0000000   0.3849002  -0.2841473), wk =   0.0555556
        k(   13) = (   0.0000000  -0.5773503   0.0000000), wk =   0.0277778
        k(   14) = (   0.0000000  -0.5773503   0.0947158), wk =   0.0555556
        k(   15) = (   0.0000000  -0.5773503   0.1894315), wk =   0.0555556
        k(   16) = (   0.0000000  -0.5773503  -0.2841473), wk =   0.0277778
        k(   17) = (   0.1666667   0.2886751   0.0000000), wk =   0.0555556
        k(   18) = (   0.1666667   0.2886751   0.0947158), wk =   0.1111111
        k(   19) = (   0.1666667   0.2886751   0.1894315), wk =   0.1111111
        k(   20) = (   0.1666667   0.2886751  -0.2841473), wk =   0.0555556
        k(   21) = (   0.1666667   0.4811252   0.0000000), wk =   0.1111111
        k(   22) = (   0.1666667   0.4811252   0.0947158), wk =   0.2222222
        k(   23) = (   0.1666667   0.4811252   0.1894315), wk =   0.2222222
        k(   24) = (   0.1666667   0.4811252  -0.2841473), wk =   0.1111111
        k(   25) = (   0.3333333   0.5773503   0.0000000), wk =   0.0185185
        k(   26) = (   0.3333333   0.5773503   0.0947158), wk =   0.0370370
        k(   27) = (   0.3333333   0.5773503   0.1894315), wk =   0.0370370
        k(   28) = (   0.3333333   0.5773503  -0.2841473), wk =   0.0185185

     Dense  grid:    42889 G-vectors     FFT dimensions: (  40,  40,  72)

     Smooth grid:    15221 G-vectors     FFT dimensions: (  27,  27,  48)

     Estimated max dynamical RAM per process >      25.11 MB

     Estimated total dynamical RAM >     200.87 MB

     Check: negative core charge=   -0.000002

     Initial potential from superposition of free atoms

     starting charge      35.9925, renormalised to      36.0000
     Starting wfcs are   26 randomized atomic wfcs

     total cpu time spent up to now is        1.6 secs

     Self-consistent Calculation

     iteration #  1     ecut=    50.00 Ry     beta= 0.30
     Davidson diagonalization with overlap
     ethr =  1.00E-02,  avg # of iterations =  1.9

     total cpu time spent up to now is        2.4 secs

     total energy              =    -361.46619477 Ry
     estimated scf accuracy    <       0.69268122 Ry

     iteration #  2     ecut=    50.00 Ry     beta= 0.30
     Davidson diagonalization with overlap
     ethr =  1.92E-03,  avg # of iterations =  2.0

     total cpu time spent up to now is        3.4 secs

     total energy              =    -361.55792656 Ry
     estimated scf accuracy    <       0.09527306 Ry

     iteration #  3     ecut=    50.00 Ry     beta= 0.30
     Davidson diagonalization with overlap
     ethr =  2.65E-04,  avg # of iterations =  6.2

     total cpu time spent up to now is        4.9 secs

     total energy              =    -361.59310932 Ry
     estimated scf accuracy    <       0.06229784 Ry

     iteration #  4     ecut=    50.00 Ry     beta= 0.30
     Davidson diagonalization with overlap
     ethr =  1.73E-04,  avg # of iterations =  7.4

     total cpu time spent up to now is        6.8 secs

     total energy              =    -361.63303572 Ry
     estimated scf accuracy    <       0.15917086 Ry

     iteration #  5     ecut=    50.00 Ry     beta= 0.30
     Davidson diagonalization with overlap
     ethr =  1.73E-04,  avg # of iterations =  1.0

     total cpu time spent up to now is        7.5 secs

     total energy              =    -361.56869927 Ry
     estimated scf accuracy    <       0.09417948 Ry

     iteration #  6     ecut=    50.00 Ry     beta= 0.30
     Davidson diagonalization with overlap
     ethr =  1.73E-04,  avg # of iterations =  7.1

     total cpu time spent up to now is        9.3 secs

     total energy              =    -361.61778243 Ry
     estimated scf accuracy    <       0.11015708 Ry

     iteration #  7     ecut=    50.00 Ry     beta= 0.30
     Davidson diagonalization with overlap
     ethr =  1.73E-04,  avg # of iterations =  2.0

     total cpu time spent up to now is       10.1 secs

     total energy              =    -361.61272773 Ry
     estimated scf accuracy    <       0.04615374 Ry

     iteration #  8     ecut=    50.00 Ry     beta= 0.30
     Davidson diagonalization with overlap
     ethr =  1.28E-04,  avg # of iterations =  2.0

     total cpu time spent up to now is       11.0 secs

     total energy              =    -361.61907506 Ry
     estimated scf accuracy    <       0.01243582 Ry

     iteration #  9     ecut=    50.00 Ry     beta= 0.30
     Davidson diagonalization with overlap
     ethr =  3.45E-05,  avg # of iterations =  3.8

     total cpu time spent up to now is       12.0 secs

     total energy              =    -361.61975638 Ry
     estimated scf accuracy    <       0.00569935 Ry

     iteration # 10     ecut=    50.00 Ry     beta= 0.30
     Davidson diagonalization with overlap
     ethr =  1.58E-05,  avg # of iterations =  4.0

     total cpu time spent up to now is       13.1 secs

     total energy              =    -361.62116670 Ry
     estimated scf accuracy    <       0.00050549 Ry

     iteration # 11     ecut=    50.00 Ry     beta= 0.30
     Davidson diagonalization with overlap
     ethr =  1.40E-06,  avg # of iterations =  6.3

     total cpu time spent up to now is       14.6 secs

     total energy              =    -361.62166286 Ry
     estimated scf accuracy    <       0.00017080 Ry

     iteration # 12     ecut=    50.00 Ry     beta= 0.30
     Davidson diagonalization with overlap
     ethr =  4.74E-07,  avg # of iterations =  2.2

     total cpu time spent up to now is       15.5 secs

     total energy              =    -361.62186578 Ry
     estimated scf accuracy    <       0.00014416 Ry

     iteration # 13     ecut=    50.00 Ry     beta= 0.30
     Davidson diagonalization with overlap
     ethr =  4.00E-07,  avg # of iterations =  6.3

     total cpu time spent up to now is       17.0 secs

     total energy              =    -361.62181592 Ry
     estimated scf accuracy    <       0.00128272 Ry

     iteration # 14     ecut=    50.00 Ry     beta= 0.30
     Davidson diagonalization with overlap
     ethr =  4.00E-07,  avg # of iterations =  1.8

     total cpu time spent up to now is       17.8 secs

     total energy              =    -361.62161110 Ry
     estimated scf accuracy    <       0.00094796 Ry

     iteration # 15     ecut=    50.00 Ry     beta= 0.30
     Davidson diagonalization with overlap
     ethr =  4.00E-07,  avg # of iterations =  4.9

     total cpu time spent up to now is       19.1 secs

     total energy              =    -361.62171441 Ry
     estimated scf accuracy    <       0.00024976 Ry

     iteration # 16     ecut=    50.00 Ry     beta= 0.30
     Davidson diagonalization with overlap
     ethr =  4.00E-07,  avg # of iterations =  1.0

     total cpu time spent up to now is       19.9 secs

     total energy              =    -361.62164340 Ry
     estimated scf accuracy    <       0.00032434 Ry

     iteration # 17     ecut=    50.00 Ry     beta= 0.30
     Davidson diagonalization with overlap
     ethr =  4.00E-07,  avg # of iterations =  1.5

     total cpu time spent up to now is       20.7 secs

     total energy              =    -361.62156276 Ry
     estimated scf accuracy    <       0.00018465 Ry

     iteration # 18     ecut=    50.00 Ry     beta= 0.30
     Davidson diagonalization with overlap
     ethr =  4.00E-07,  avg # of iterations =  4.9

     total cpu time spent up to now is       22.0 secs

     total energy              =    -361.62162833 Ry
     estimated scf accuracy    <       0.00001280 Ry

     iteration # 19     ecut=    50.00 Ry     beta= 0.30
     Davidson diagonalization with overlap
     ethr =  3.56E-08,  avg # of iterations =  5.2

     total cpu time spent up to now is       23.4 secs

     total energy              =    -361.62166936 Ry
     estimated scf accuracy    <       0.00000412 Ry

     iteration # 20     ecut=    50.00 Ry     beta= 0.30
     Davidson diagonalization with overlap
     ethr =  1.14E-08,  avg # of iterations = 11.4

     total cpu time spent up to now is       25.9 secs

     total energy              =    -361.62166374 Ry
     estimated scf accuracy    <       0.00030764 Ry

     iteration # 21     ecut=    50.00 Ry     beta= 0.30
     Davidson diagonalization with overlap
     ethr =  1.14E-08,  avg # of iterations =  7.4

     total cpu time spent up to now is       27.7 secs

     total energy              =    -361.62164539 Ry
     estimated scf accuracy    <       0.00014329 Ry

     iteration # 22     ecut=    50.00 Ry     beta= 0.30
     Davidson diagonalization with overlap
     ethr =  1.14E-08,  avg # of iterations =  6.6

     total cpu time spent up to now is       29.3 secs

     total energy              =    -361.62164396 Ry
     estimated scf accuracy    <       0.00006018 Ry

     iteration # 23     ecut=    50.00 Ry     beta= 0.30
     Davidson diagonalization with overlap
     ethr =  1.14E-08,  avg # of iterations =  1.9

     total cpu time spent up to now is       30.2 secs

     total energy              =    -361.62163619 Ry
     estimated scf accuracy    <       0.00004858 Ry

     iteration # 24     ecut=    50.00 Ry     beta= 0.30
     Davidson diagonalization with overlap
     ethr =  1.14E-08,  avg # of iterations =  5.3

     total cpu time spent up to now is       31.5 secs

     total energy              =    -361.62163241 Ry
     estimated scf accuracy    <       0.00001742 Ry

     iteration # 25     ecut=    50.00 Ry     beta= 0.30
     Davidson diagonalization with overlap
     ethr =  1.14E-08,  avg # of iterations =  5.1

     total cpu time spent up to now is       32.8 secs

     total energy              =    -361.62163413 Ry
     estimated scf accuracy    <       0.00000151 Ry

     iteration # 26     ecut=    50.00 Ry     beta= 0.30
     Davidson diagonalization with overlap
     ethr =  4.21E-09,  avg # of iterations =  3.8

     total cpu time spent up to now is       33.8 secs

     total energy              =    -361.62163424 Ry
     estimated scf accuracy    <       0.00000040 Ry

     iteration # 27     ecut=    50.00 Ry     beta= 0.30
     Davidson diagonalization with overlap
     ethr =  1.11E-09,  avg # of iterations =  5.5

     total cpu time spent up to now is       35.1 secs

     total energy              =    -361.62163449 Ry
     estimated scf accuracy    <       0.00000005 Ry

     iteration # 28     ecut=    50.00 Ry     beta= 0.30
     Davidson diagonalization with overlap
     ethr =  1.26E-10,  avg # of iterations =  4.9

     total cpu time spent up to now is       36.3 secs

     total energy              =    -361.62163449 Ry
     estimated scf accuracy    <       0.00000011 Ry

     iteration # 29     ecut=    50.00 Ry     beta= 0.30
     Davidson diagonalization with overlap
     ethr =  1.26E-10,  avg # of iterations =  1.2

     total cpu time spent up to now is       37.0 secs

     total energy              =    -361.62163446 Ry
     estimated scf accuracy    <       0.00000008 Ry

     iteration # 30     ecut=    50.00 Ry     beta= 0.30
     Davidson diagonalization with overlap
     ethr =  1.26E-10,  avg # of iterations =  2.3

     total cpu time spent up to now is       37.9 secs

     total energy              =    -361.62163446 Ry
     estimated scf accuracy    <       0.00000003 Ry

     iteration # 31     ecut=    50.00 Ry     beta= 0.30
     Davidson diagonalization with overlap
     ethr =  7.35E-11,  avg # of iterations =  3.0

     total cpu time spent up to now is       38.9 secs

     End of self-consistent calculation

          k = 0.0000 0.0000 0.0000 (  1943 PWs)   bands (ev):

   -10.7746 -10.1772   1.5094   1.6135   1.6135   1.6879   1.7647   1.7647
     2.9181   2.9181   3.0754   3.0754   3.4498   6.9247   6.9247   7.1718
     7.5318   7.5318

          k = 0.0000 0.0000 0.0947 (  1907 PWs)   bands (ev):

   -10.7369 -10.2197   1.4747   1.6213   1.6213   1.6497   1.7519   1.7519
     2.9312   2.9312   3.0678   3.0678   3.6694   6.6082   6.9655   6.9655
     7.4914   7.4914

          k = 0.0000 0.0000 0.1894 (  1914 PWs)   bands (ev):

   -10.6323 -10.3339   1.4379   1.5574   1.6435   1.6435   1.7185   1.7185
     2.9645   2.9645   3.0433   3.0433   4.2271   5.7794   7.0769   7.0769
     7.3806   7.3806

          k = 0.0000 0.0000-0.2841 (  1896 PWs)   bands (ev):

   -10.4855 -10.4855   1.4687   1.4687   1.6784   1.6784   1.6784   1.6784
     3.0065   3.0065   3.0065   3.0065   4.9647   4.9647   7.2289   7.2289
     7.2289   7.2289

          k = 0.0000 0.1925 0.0000 (  1917 PWs)   bands (ev):

   -10.6103 -10.0831   1.4356   1.7043   1.7095   1.7905   1.8217   1.8945
     2.8456   2.9140   3.0822   3.1782   3.4152   5.9055   6.3792   6.5776
     7.0450   7.3090

          k = 0.0000 0.1925 0.0947 (  1914 PWs)   bands (ev):

   -10.5765 -10.1200   1.4170   1.5874   1.7193   1.7952   1.8376   1.8793
     2.8684   2.9265   3.0723   3.1227   3.7018   5.9145   6.2394   6.6273
     6.9437   7.2605

          k = 0.0000 0.1925 0.1894 (  1899 PWs)   bands (ev):

   -10.4832 -10.2196   1.3777   1.4423   1.7481   1.7920   1.8291   1.8399
     2.9250   2.9600   3.0441   3.0613   4.3044   5.6190   6.2160   6.7045
     6.7625   7.1279

          k = 0.0000 0.1925-0.2841 (  1904 PWs)   bands (ev):

   -10.3530 -10.3530   1.3716   1.3716   1.7913   1.7913   1.8055   1.8055
     2.9947   2.9947   3.0033   3.0033   4.9976   4.9976   6.4321   6.4321
     6.9458   6.9458

          k = 0.0000 0.3849 0.0000 (  1888 PWs)   bands (ev):

   -10.2466  -9.9072   1.2558   1.6065   1.8703   2.1356   2.1937   2.3413
     2.7745   2.9905   3.1083   3.3113   3.5287   4.2481   5.1732   5.8556
     6.5325   6.8282

          k = 0.0000 0.3849 0.0947 (  1890 PWs)   bands (ev):

   -10.2238  -9.9297   1.2411   1.5299   1.8888   2.1199   2.1681   2.2611
     2.8139   2.9975   3.0988   3.2226   3.8041   4.3336   5.1464   5.9242
     6.4903   6.7651

          k = 0.0000 0.3849 0.1894 (  1898 PWs)   bands (ev):

   -10.1615  -9.9916   1.2221   1.3705   1.9411   2.0993   2.1016   2.1633
     2.9061   3.0169   3.0745   3.1226   4.1487   4.4738   5.2869   6.1081
     6.2662   6.5919

          k = 0.0000 0.3849-0.2841 (  1888 PWs)   bands (ev):

   -10.0764 -10.0764   1.2537   1.2537   2.0179   2.0179   2.1111   2.1111
     3.0157   3.0157   3.0447   3.0447   4.3757   4.3757   5.7941   5.7941
     6.3526   6.3526

          k = 0.0000-0.5774 0.0000 (  1882 PWs)   bands (ev):

   -10.0250  -9.8465   1.3675   1.4673   1.9255   2.3579   2.3646   2.4659
     2.9372   3.0932   3.1444   3.2350   3.5603   3.7169   4.6471   5.4526
     6.0564   6.5638

          k = 0.0000-0.5774 0.0947 (  1898 PWs)   bands (ev):

   -10.0121  -9.8574   1.3348   1.4117   1.9495   2.3288   2.3487   2.4206
     2.9922   3.0948   3.1378   3.2314   3.5465   3.6844   4.8576   5.5340
     6.0932   6.4932

          k = 0.0000-0.5774 0.1894 (  1898 PWs)   bands (ev):

    -9.9775  -9.8881   1.2713   1.3053   2.0192   2.2366   2.3334   2.3599
     3.0885   3.1006   3.1235   3.2138   3.5375   3.6167   5.3383   5.7486
     6.0767   6.2991

          k = 0.0000-0.5774-0.2841 (  1912 PWs)   bands (ev):

    -9.9319  -9.9319   1.2474   1.2474   2.1221   2.1221   2.3324   2.3324
     3.1099   3.1099   3.1676   3.1676   3.5601   3.5601   5.8174   5.8174
     6.0287   6.0287

          k = 0.1667 0.2887 0.0000 (  1893 PWs)   bands (ev):

   -10.3449  -9.9481   1.3872   1.6106   1.8631   1.8837   2.1483   2.2148
     2.7788   2.9356   3.0972   3.3286   3.4760   4.9850   5.2380   5.8713
     6.7466   6.7766

          k = 0.1667 0.2887 0.0947 (  1891 PWs)   bands (ev):

   -10.3187  -9.9750   1.3663   1.5556   1.8474   1.8767   2.1312   2.1462
     2.8145   2.9569   3.0874   3.2176   3.8139   5.0740   5.1922   5.8948
     6.6745   6.7097

          k = 0.1667 0.2887 0.1894 (  1897 PWs)   bands (ev):

   -10.2467 -10.0482   1.3285   1.4231   1.8448   1.8666   2.0751   2.0908
     2.9027   2.9906   3.0619   3.1179   4.3376   5.0299   5.3655   5.9999
     6.4150   6.5311

          k = 0.1667 0.2887-0.2841 (  1894 PWs)   bands (ev):

   -10.1477 -10.1477   1.3333   1.3333   1.8582   1.8582   2.0602   2.0602
     3.0059   3.0059   3.0331   3.0331   4.7525   4.7525   5.8373   5.8373
     6.3130   6.3130

          k = 0.1667 0.4811 0.0000 (  1906 PWs)   bands (ev):

   -10.0337  -9.8435   1.4706   1.6865   1.9263   2.2292   2.3745   2.4383
     2.8342   2.9610   3.1691   3.4075   3.4994   4.0987   4.6220   4.9679
     6.0280   6.2686

          k = 0.1667 0.4811 0.0947 (  1896 PWs)   bands (ev):

   -10.0201  -9.8552   1.4521   1.6279   1.9251   2.2027   2.3342   2.3766
     2.8594   3.0157   3.1683   3.3788   3.5492   4.1121   4.7359   5.0883
     6.0011   6.2427

          k = 0.1667 0.4811 0.1894 (  1899 PWs)   bands (ev):

    -9.9834  -9.8882   1.4141   1.5035   1.9477   2.1189   2.2786   2.3123
     2.9462   3.0498   3.1747   3.2906   3.7001   4.0279   5.0576   5.3979
     5.8491   6.1771

          k = 0.1667 0.4811-0.2841 (  1904 PWs)   bands (ev):

    -9.9349  -9.9349   1.4172   1.4172   2.0188   2.0188   2.2764   2.2764
     3.0260   3.0260   3.2106   3.2106   3.8724   3.8724   5.3937   5.3937
     5.9517   5.9517

          k = 0.3333 0.5774 0.0000 (  1893 PWs)   bands (ev):

    -9.8700  -9.8700   1.5524   2.1215   2.1253   2.1253   2.7267   2.7267
     2.7974   2.9120   2.9120   2.9154   3.8276   3.8276   3.9005   5.5062
     5.5062   5.5086

          k = 0.3333 0.5774 0.0947 (  1890 PWs)   bands (ev):

    -9.8687  -9.8687   1.5777   2.0410   2.0410   2.0582   2.6255   2.6255
     2.8119   2.9098   3.0870   3.0870   3.7840   3.7840   4.0157   5.3972
     5.6202   5.6202

          k = 0.3333 0.5774 0.1894 (  1899 PWs)   bands (ev):

    -9.8662  -9.8662   1.6519   1.8879   1.8879   1.9175   2.5625   2.5625
     2.8403   2.8933   3.3069   3.3069   3.6800   3.6800   4.3153   5.1010
     5.8453   5.8453

          k = 0.3333 0.5774-0.2841 (  1902 PWs)   bands (ev):

    -9.8650  -9.8650   1.7701   1.7701   1.8188   1.8188   2.5467   2.5467
     2.8689   2.8689   3.4356   3.4356   3.5891   3.5891   4.7082   4.7082
     5.9574   5.9574

     highest occupied level (ev):     7.5318

!    total energy              =    -361.62163446 Ry
     estimated scf accuracy    <          7.4E-09 Ry

     The total energy is the sum of the following terms:
     one-electron contribution =    -150.85861940 Ry
     hartree contribution      =     117.04719670 Ry
     xc contribution           =    -109.62805991 Ry
     ewald contribution        =    -218.18215185 Ry

     convergence has been achieved in  31 iterations

     Forces acting on atoms (cartesian axes, Ry/au):

     atom    1 type  1   force =     0.00000000    0.00000000    0.02463007
     atom    2 type  1   force =    -0.00000000   -0.00000000    0.02463007
     atom    3 type  2   force =     0.00000000    0.00000000   -0.02463007
     atom    4 type  2   force =     0.00000000   -0.00000000   -0.02463007
     The non-local contrib.  to forces
     atom    1 type  1   force =    -0.00000000    0.00000000    0.23730130
     atom    2 type  1   force =    -0.00000000   -0.00000000    0.23730130
     atom    3 type  2   force =    -0.00000000   -0.00000000    0.21771859
     atom    4 type  2   force =     0.00000000   -0.00000000    0.21771859
     The ionic contribution  to forces
     atom    1 type  1   force =    -0.00000000    0.00000000    1.89326444
     atom    2 type  1   force =     0.00000000   -0.00000000    1.89326444
     atom    3 type  2   force =    -0.00000000    0.00000000   -1.89326444
     atom    4 type  2   force =     0.00000000   -0.00000000   -1.89326444
     The local contribution  to forces
     atom    1 type  1   force =    -0.00000002    0.00000001   -2.08843243
     atom    2 type  1   force =     0.00000006   -0.00000004   -2.08843243
     atom    3 type  2   force =    -0.00000001    0.00000000    1.65264043
     atom    4 type  2   force =     0.00000002   -0.00000001    1.65264043
     The core correction contribution to forces
     atom    1 type  1   force =    -0.00000000    0.00000000   -0.01746985
     atom    2 type  1   force =     0.00000001   -0.00000000   -0.01746985
     atom    3 type  2   force =     0.00000000   -0.00000000   -0.00172898
     atom    4 type  2   force =    -0.00000000    0.00000000   -0.00172898
     The Hubbard contrib.    to forces
     atom    1 type  1   force =     0.00000000    0.00000000    0.00000000
     atom    2 type  1   force =     0.00000000    0.00000000    0.00000000
     atom    3 type  2   force =     0.00000000    0.00000000    0.00000000
     atom    4 type  2   force =     0.00000000    0.00000000    0.00000000
     The SCF correction term to forces
     atom    1 type  1   force =    -0.00000000    0.00000000   -0.00003823
     atom    2 type  1   force =     0.00000000   -0.00000000   -0.00003823
     atom    3 type  2   force =    -0.00000000    0.00000000   -0.00000049
     atom    4 type  2   force =     0.00000000   -0.00000000   -0.00000049

     Total force =     0.049260     Total SCF correction =     0.000054


     Computing stress (Cartesian axis) and pressure

          total   stress  (Ry/bohr**3)                   (kbar)     P=       67.14
   0.00088446  -0.00000000   0.00000000          130.11       -0.00        0.00
  -0.00000000   0.00088446   0.00000000           -0.00      130.11        0.00
   0.00000000   0.00000000  -0.00039971            0.00        0.00      -58.80


     Writing all to output data dir ./ZnO_ANN.save/

     init_run     :      1.82s CPU      1.24s WALL (       1 calls)
     electrons    :    100.02s CPU     37.32s WALL (       1 calls)
     forces       :      0.64s CPU      0.30s WALL (       1 calls)
     stress       :      2.25s CPU      1.13s WALL (       1 calls)

     Called by init_run:
     wfcinit      :      0.96s CPU      0.38s WALL (       1 calls)
     potinit      :      0.22s CPU      0.22s WALL (       1 calls)
     hinit0       :      0.52s CPU      0.53s WALL (       1 calls)

     Called by electrons:
     c_bands      :     81.56s CPU     30.07s WALL (      31 calls)
     sum_band     :     13.62s CPU      5.28s WALL (      31 calls)
     v_of_rho     :      1.11s CPU      0.49s WALL (      32 calls)
     newd         :      3.48s CPU      1.40s WALL (      32 calls)
     mix_rho      :      0.17s CPU      0.08s WALL (      31 calls)

     Called by c_bands:
     init_us_2    :      1.29s CPU      0.44s WALL (    1820 calls)
     init_us_2:cp :      1.27s CPU      0.44s WALL (    1820 calls)
     cegterg      :     78.73s CPU     29.00s WALL (     868 calls)

     Called by *egterg:
     cdiaghg      :     13.01s CPU      4.24s WALL (    4507 calls)
     h_psi        :     53.84s CPU     21.77s WALL (    4535 calls)
     s_psi        :      1.25s CPU      0.37s WALL (    4535 calls)
     g_psi        :      0.40s CPU      0.10s WALL (    3639 calls)

     Called by h_psi:
     h_psi:calbec :      1.82s CPU      0.65s WALL (    4535 calls)
     vloc_psi     :     50.31s CPU     20.57s WALL (    4535 calls)
     add_vuspsi   :      1.24s CPU      0.40s WALL (    4535 calls)

     General routines
     calbec       :      2.30s CPU      0.82s WALL (    5543 calls)
     fft          :      0.90s CPU      0.54s WALL (     439 calls)
     ffts         :      0.14s CPU      0.11s WALL (      63 calls)
     fftw         :     50.81s CPU     20.83s WALL (  120796 calls)
     interpolate  :      0.17s CPU      0.13s WALL (      32 calls)

     Parallel routines

     PWSCF        :   1m45.29s CPU     40.46s WALL


   This run was terminated on:  16:25:36  13Jun2025            

=------------------------------------------------------------------------------=
   JOB DONE.
=------------------------------------------------------------------------------=
Note: The following floating-point exceptions are signalling: IEEE_INVALID_FLAG
