Authorization required, but no authorization protocol specified

Authorization required, but no authorization protocol specified

Authorization required, but no authorization protocol specified

Authorization required, but no authorization protocol specified

Authorization required, but no authorization protocol specified

Authorization required, but no authorization protocol specified

Authorization required, but no authorization protocol specified

Authorization required, but no authorization protocol specified

Authorization required, but no authorization protocol specified

Authorization required, but no authorization protocol specified


     Program PWSCF v.7.2 starts on 13Jun2025 at 19:44:20 

     This program is part of the open-source Quantum ESPRESSO suite
     for quantum simulation of materials; please cite
         "P. Giannozzi et al., J. Phys.:Condens. Matter 21 395502 (2009);
         "P. Giannozzi et al., J. Phys.:Condens. Matter 29 465901 (2017);
         "P. Giannozzi et al., J. Chem. Phys. 152 154105 (2020);
          URL http://www.quantum-espresso.org", 
     in publications or presentations arising from this work. More details at
     http://www.quantum-espresso.org/quote

     Parallel version (MPI), running on     8 processors

     MPI processes distributed on     1 nodes
     120704 MiB available memory on the printing compute node when the environment starts

     Reading input from /home/jvc/QEspresso7.2/ZnO_database_python/SCFs.in/scf-6.73-1.65.in

     Current dimensions of program PWSCF are:
     Max number of different atomic species (ntypx) = 10
     Max number of k-points (npk) =  40000
     Max angular momentum in pseudopotentials (lmaxx) =  4
     file Zn.upf: wavefunction(s)  3D renormalized

     R & G space division:  proc/nbgrp/npool/nimage =       8
     Subspace diagonalization in iterative solution of the eigenvalue problem:
     a serial algorithm will be used


     Parallelization info
     --------------------
     sticks:   dense  smooth     PW     G-vecs:    dense   smooth      PW
     Min         157      79     23                 7363     2593     423
     Max         158      80     24                 7368     2596     428
     Sum        1261     637    187                58919    20761    3405

     Using Slab Decomposition



     bravais-lattice index     =            4
     lattice parameter (alat)  =       6.7349  a.u.
     unit-cell volume          =     435.6394 (a.u.)^3
     number of atoms/cell      =            4
     number of atomic types    =            2
     number of electrons       =        36.00
     number of Kohn-Sham states=           18
     kinetic-energy cutoff     =      50.0000  Ry
     charge density cutoff     =     400.0000  Ry
     scf convergence threshold =      1.0E-08
     mixing beta               =       0.3000
     number of iterations used =            8  plain     mixing
     Exchange-correlation= PBE
                           (   1   4   3   4   0   0   0)

     celldm(1)=   6.734915  celldm(2)=   0.000000  celldm(3)=   1.646646
     celldm(4)=   0.000000  celldm(5)=   0.000000  celldm(6)=   0.000000

     crystal axes: (cart. coord. in units of alat)
               a(1) = (   1.000000   0.000000   0.000000 )  
               a(2) = (  -0.500000   0.866025   0.000000 )  
               a(3) = (   0.000000   0.000000   1.646646 )  

     reciprocal axes: (cart. coord. in units 2 pi/alat)
               b(1) = (  1.000000  0.577350 -0.000000 )  
               b(2) = (  0.000000  1.154701  0.000000 )  
               b(3) = (  0.000000 -0.000000  0.607295 )  


     PseudoPot. # 1 for Zn read from file:
     /home/jvc/QEspresso7.2/ZnO_database/pseudos/Zn.upf
     MD5 check sum: 7f56cabf9682ed8c977c2f7d0c5985c5
     Pseudo is Ultrasoft + core correction, Zval = 12.0
     Generated using &quot;atomic&quot; code by A. Dal Corso  v.6.2.2
     Using radial grid of 1201 points,  6 beta functions with: 
                l(1) =   0
                l(2) =   0
                l(3) =   1
                l(4) =   1
                l(5) =   2
                l(6) =   2
     Q(r) pseudized with 0 coefficients 


     PseudoPot. # 2 for O  read from file:
     /home/jvc/QEspresso7.2/ZnO_database/pseudos/O.upf
     MD5 check sum: 91400c9766925bcf19f520983a725ff0
     Pseudo is Ultrasoft + core correction, Zval =  6.0
     Generated using &quot;atomic&quot; code by A. Dal Corso  v.6.3MaX
     Using radial grid of 1095 points,  4 beta functions with: 
                l(1) =   0
                l(2) =   0
                l(3) =   1
                l(4) =   1
     Q(r) pseudized with 0 coefficients 


     atomic species   valence    mass     pseudopotential
        Zn            12.00    63.38000     Zn( 1.00)
        O              6.00    15.99900     O ( 1.00)

     12 Sym. Ops. (no inversion) found ( 6 have fractional translation)



   Cartesian axes

     site n.     atom                  positions (alat units)
         1           Zn  tau(   1) = (   0.5000000   0.2886751   0.8243661  )
         2           Zn  tau(   2) = (  -0.0000000   0.5773503   0.0010433  )
         3           O   tau(   3) = (   0.5000000   0.2886751   1.4485152  )
         4           O   tau(   4) = (  -0.0000000   0.5773503   0.6251925  )

     number of k points=    28
                       cart. coord. in units 2pi/alat
        k(    1) = (   0.0000000   0.0000000   0.0000000), wk =   0.0092593
        k(    2) = (   0.0000000   0.0000000   0.1012159), wk =   0.0185185
        k(    3) = (   0.0000000   0.0000000   0.2024317), wk =   0.0185185
        k(    4) = (   0.0000000   0.0000000  -0.3036476), wk =   0.0092593
        k(    5) = (   0.0000000   0.1924501   0.0000000), wk =   0.0555556
        k(    6) = (   0.0000000   0.1924501   0.1012159), wk =   0.1111111
        k(    7) = (   0.0000000   0.1924501   0.2024317), wk =   0.1111111
        k(    8) = (   0.0000000   0.1924501  -0.3036476), wk =   0.0555556
        k(    9) = (   0.0000000   0.3849002   0.0000000), wk =   0.0555556
        k(   10) = (   0.0000000   0.3849002   0.1012159), wk =   0.1111111
        k(   11) = (   0.0000000   0.3849002   0.2024317), wk =   0.1111111
        k(   12) = (   0.0000000   0.3849002  -0.3036476), wk =   0.0555556
        k(   13) = (   0.0000000  -0.5773503   0.0000000), wk =   0.0277778
        k(   14) = (   0.0000000  -0.5773503   0.1012159), wk =   0.0555556
        k(   15) = (   0.0000000  -0.5773503   0.2024317), wk =   0.0555556
        k(   16) = (   0.0000000  -0.5773503  -0.3036476), wk =   0.0277778
        k(   17) = (   0.1666667   0.2886751   0.0000000), wk =   0.0555556
        k(   18) = (   0.1666667   0.2886751   0.1012159), wk =   0.1111111
        k(   19) = (   0.1666667   0.2886751   0.2024317), wk =   0.1111111
        k(   20) = (   0.1666667   0.2886751  -0.3036476), wk =   0.0555556
        k(   21) = (   0.1666667   0.4811252   0.0000000), wk =   0.1111111
        k(   22) = (   0.1666667   0.4811252   0.1012159), wk =   0.2222222
        k(   23) = (   0.1666667   0.4811252   0.2024317), wk =   0.2222222
        k(   24) = (   0.1666667   0.4811252  -0.3036476), wk =   0.1111111
        k(   25) = (   0.3333333   0.5773503   0.0000000), wk =   0.0185185
        k(   26) = (   0.3333333   0.5773503   0.1012159), wk =   0.0370370
        k(   27) = (   0.3333333   0.5773503   0.2024317), wk =   0.0370370
        k(   28) = (   0.3333333   0.5773503  -0.3036476), wk =   0.0185185

     Dense  grid:    58919 G-vectors     FFT dimensions: (  45,  45,  72)

     Smooth grid:    20761 G-vectors     FFT dimensions: (  32,  32,  50)

     Estimated max dynamical RAM per process >      33.15 MB

     Estimated total dynamical RAM >     265.18 MB

     Check: negative core charge=   -0.000002

     Initial potential from superposition of free atoms

     starting charge      35.9925, renormalised to      36.0000
     Starting wfcs are   26 randomized atomic wfcs

     total cpu time spent up to now is        1.7 secs

     Self-consistent Calculation

     iteration #  1     ecut=    50.00 Ry     beta= 0.30
     Davidson diagonalization with overlap
     ethr =  1.00E-02,  avg # of iterations =  1.2

     total cpu time spent up to now is        2.5 secs

     total energy              =    -361.34761808 Ry
     estimated scf accuracy    <       0.84399495 Ry

     iteration #  2     ecut=    50.00 Ry     beta= 0.30
     Davidson diagonalization with overlap
     ethr =  2.34E-03,  avg # of iterations =  2.3

     total cpu time spent up to now is        3.5 secs

     total energy              =    -361.46850957 Ry
     estimated scf accuracy    <       0.09841750 Ry

     iteration #  3     ecut=    50.00 Ry     beta= 0.30
     Davidson diagonalization with overlap
     ethr =  2.73E-04,  avg # of iterations =  5.5

     total cpu time spent up to now is        5.0 secs

     total energy              =    -361.46383451 Ry
     estimated scf accuracy    <       0.18013679 Ry

     iteration #  4     ecut=    50.00 Ry     beta= 0.30
     Davidson diagonalization with overlap
     ethr =  2.73E-04,  avg # of iterations =  9.5

     total cpu time spent up to now is        7.2 secs

     total energy              =    -361.62645541 Ry
     estimated scf accuracy    <       0.36657983 Ry

     iteration #  5     ecut=    50.00 Ry     beta= 0.30
     Davidson diagonalization with overlap
     ethr =  2.73E-04,  avg # of iterations =  1.1

     total cpu time spent up to now is        8.1 secs

     total energy              =    -361.48661670 Ry
     estimated scf accuracy    <       0.33228810 Ry

     iteration #  6     ecut=    50.00 Ry     beta= 0.30
     Davidson diagonalization with overlap
     ethr =  2.73E-04,  avg # of iterations =  6.1

     total cpu time spent up to now is        9.5 secs

     total energy              =    -361.55063504 Ry
     estimated scf accuracy    <       0.00013287 Ry

     iteration #  7     ecut=    50.00 Ry     beta= 0.30
     Davidson diagonalization with overlap
     c_bands:  1 eigenvalues not converged
     ethr =  3.69E-07,  avg # of iterations = 12.5

     total cpu time spent up to now is       12.0 secs

     total energy              =    -361.55162340 Ry
     estimated scf accuracy    <       0.00135847 Ry

     iteration #  8     ecut=    50.00 Ry     beta= 0.30
     Davidson diagonalization with overlap
     ethr =  3.69E-07,  avg # of iterations =  7.2

     total cpu time spent up to now is       13.6 secs

     total energy              =    -361.55184909 Ry
     estimated scf accuracy    <       0.00003125 Ry

     iteration #  9     ecut=    50.00 Ry     beta= 0.30
     Davidson diagonalization with overlap
     ethr =  8.68E-08,  avg # of iterations =  6.4

     total cpu time spent up to now is       15.2 secs

     total energy              =    -361.55184493 Ry
     estimated scf accuracy    <       0.00011953 Ry

     iteration # 10     ecut=    50.00 Ry     beta= 0.30
     Davidson diagonalization with overlap
     ethr =  8.68E-08,  avg # of iterations =  1.6

     total cpu time spent up to now is       16.1 secs

     total energy              =    -361.55180563 Ry
     estimated scf accuracy    <       0.00007178 Ry

     iteration # 11     ecut=    50.00 Ry     beta= 0.30
     Davidson diagonalization with overlap
     ethr =  8.68E-08,  avg # of iterations =  7.9

     total cpu time spent up to now is       17.8 secs

     total energy              =    -361.55182939 Ry
     estimated scf accuracy    <       0.00004767 Ry

     iteration # 12     ecut=    50.00 Ry     beta= 0.30
     Davidson diagonalization with overlap
     ethr =  8.68E-08,  avg # of iterations =  5.2

     total cpu time spent up to now is       19.1 secs

     total energy              =    -361.55184101 Ry
     estimated scf accuracy    <       0.00000229 Ry

     iteration # 13     ecut=    50.00 Ry     beta= 0.30
     Davidson diagonalization with overlap
     ethr =  6.37E-09,  avg # of iterations =  5.1

     total cpu time spent up to now is       20.4 secs

     total energy              =    -361.55184172 Ry
     estimated scf accuracy    <       0.00000006 Ry

     iteration # 14     ecut=    50.00 Ry     beta= 0.30
     Davidson diagonalization with overlap
     ethr =  1.74E-10,  avg # of iterations =  6.7

     total cpu time spent up to now is       22.0 secs

     total energy              =    -361.55184183 Ry
     estimated scf accuracy    <       0.00000003 Ry

     iteration # 15     ecut=    50.00 Ry     beta= 0.30
     Davidson diagonalization with overlap
     ethr =  9.05E-11,  avg # of iterations =  1.8

     total cpu time spent up to now is       22.9 secs

     total energy              =    -361.55184185 Ry
     estimated scf accuracy    <       0.00000002 Ry

     iteration # 16     ecut=    50.00 Ry     beta= 0.30
     Davidson diagonalization with overlap
     c_bands:  1 eigenvalues not converged
     ethr =  6.48E-11,  avg # of iterations = 13.1

     total cpu time spent up to now is       25.6 secs

     total energy              =    -361.55184177 Ry
     estimated scf accuracy    <       0.00000120 Ry

     iteration # 17     ecut=    50.00 Ry     beta= 0.30
     Davidson diagonalization with overlap
     ethr =  6.48E-11,  avg # of iterations =  9.9

     total cpu time spent up to now is       27.8 secs

     total energy              =    -361.55184182 Ry
     estimated scf accuracy    <       0.00000016 Ry

     iteration # 18     ecut=    50.00 Ry     beta= 0.30
     Davidson diagonalization with overlap
     ethr =  6.48E-11,  avg # of iterations =  6.8

     total cpu time spent up to now is       29.2 secs

     total energy              =    -361.55184184 Ry
     estimated scf accuracy    <       0.00000004 Ry

     iteration # 19     ecut=    50.00 Ry     beta= 0.30
     Davidson diagonalization with overlap
     ethr =  6.48E-11,  avg # of iterations =  1.2

     total cpu time spent up to now is       30.1 secs

     total energy              =    -361.55184185 Ry
     estimated scf accuracy    <       0.00000006 Ry

     iteration # 20     ecut=    50.00 Ry     beta= 0.30
     Davidson diagonalization with overlap
     ethr =  6.48E-11,  avg # of iterations =  2.9

     total cpu time spent up to now is       31.1 secs

     total energy              =    -361.55184183 Ry
     estimated scf accuracy    <       0.00000010 Ry

     iteration # 21     ecut=    50.00 Ry     beta= 0.30
     Davidson diagonalization with overlap
     ethr =  6.48E-11,  avg # of iterations =  2.0

     total cpu time spent up to now is       32.0 secs

     total energy              =    -361.55184182 Ry
     estimated scf accuracy    <       0.00000006 Ry

     iteration # 22     ecut=    50.00 Ry     beta= 0.30
     Davidson diagonalization with overlap
     ethr =  6.48E-11,  avg # of iterations =  4.5

     total cpu time spent up to now is       33.1 secs

     total energy              =    -361.55184182 Ry
     estimated scf accuracy    <       0.00000002 Ry

     iteration # 23     ecut=    50.00 Ry     beta= 0.30
     Davidson diagonalization with overlap
     ethr =  4.30E-11,  avg # of iterations =  5.8

     total cpu time spent up to now is       34.4 secs

     End of self-consistent calculation

          k = 0.0000 0.0000 0.0000 (  2599 PWs)   bands (ev):

   -12.7350 -12.3982  -1.3850  -1.3850  -1.3655  -1.2891  -1.2891  -0.8961
    -0.8961  -0.8362  -0.8031  -0.8031  -0.0495   2.9970   2.9970   3.3993
     3.4547   3.4547

          k = 0.0000 0.0000 0.1012 (  2611 PWs)   bands (ev):

   -12.7130 -12.4214  -1.3811  -1.3811  -1.3705  -1.2984  -1.2984  -0.9946
    -0.8880  -0.8880  -0.8074  -0.8074   0.2269   2.7858   3.0282   3.0282
     3.4246   3.4246

          k = 0.0000 0.0000 0.2024 (  2611 PWs)   bands (ev):

   -12.6526 -12.4842  -1.3709  -1.3685  -1.3685  -1.3210  -1.3210  -1.2055
    -0.8670  -0.8670  -0.8204  -0.8204   0.7742   2.0797   3.1130   3.1130
     3.3419   3.3419

          k = 0.0000 0.0000-0.3036 (  2604 PWs)   bands (ev):

   -12.5690 -12.5690  -1.3473  -1.3473  -1.3473  -1.3473  -1.3284  -1.3284
    -0.8417  -0.8417  -0.8417  -0.8417   1.4072   1.4072   3.2280   3.2280
     3.2280   3.2280

          k = 0.0000 0.1925 0.0000 (  2621 PWs)   bands (ev):

   -12.6593 -12.3628  -1.4044  -1.3389  -1.3228  -1.2583  -1.2221  -0.9221
    -0.9126  -0.8958  -0.7989  -0.7082   0.1511   2.1659   2.4324   2.7756
     3.2948   3.3308

          k = 0.0000 0.1925 0.1012 (  2614 PWs)   bands (ev):

   -12.6397 -12.3829  -1.4074  -1.3332  -1.3254  -1.2676  -1.2323  -1.0050
    -0.9070  -0.8881  -0.8039  -0.7586   0.3816   2.0823   2.4248   2.8134
     3.2254   3.2941

          k = 0.0000 0.1925 0.2024 (  2612 PWs)   bands (ev):

   -12.5861 -12.4378  -1.4070  -1.3370  -1.3161  -1.2829  -1.2581  -1.1708
    -0.8759  -0.8680  -0.8193  -0.8013   0.8414   1.7663   2.5519   2.9161
     3.0359   3.1935

          k = 0.0000 0.1925-0.3036 (  2608 PWs)   bands (ev):

   -12.5122 -12.5122  -1.3793  -1.3793  -1.2892  -1.2892  -1.2612  -1.2612
    -0.8423  -0.8423  -0.8381  -0.8381   1.3282   1.3282   2.7842   2.7842
     3.0553   3.0553

          k = 0.0000 0.3849 0.0000 (  2601 PWs)   bands (ev):

   -12.4930 -12.3019  -1.3889  -1.2691  -1.2588  -1.0989  -1.0734  -0.9779
    -0.8976  -0.8569  -0.7889  -0.6681   0.5357   1.0211   1.5903   2.3409
     2.9457   3.0687

          k = 0.0000 0.3849 0.1012 (  2610 PWs)   bands (ev):

   -12.4800 -12.3144  -1.3949  -1.2774  -1.2576  -1.1051  -1.0880  -1.0052
    -0.8967  -0.8531  -0.7945  -0.7007   0.5550   1.0497   1.6849   2.3909
     2.9434   3.0206

          k = 0.0000 0.3849 0.2024 (  2600 PWs)   bands (ev):

   -12.4445 -12.3489  -1.4006  -1.3255  -1.2248  -1.1267  -1.1173  -1.0786
    -0.8607  -0.8422  -0.8088  -0.7559   0.6406   0.9558   2.0540   2.5261
     2.8325   2.8890

          k = 0.0000 0.3849-0.3036 (  2596 PWs)   bands (ev):

   -12.3964 -12.3964  -1.3789  -1.3789  -1.1773  -1.1773  -1.1169  -1.1169
    -0.8263  -0.8263  -0.8095  -0.8095   0.7875   0.7875   2.5098   2.5098
     2.7084   2.7084

          k = 0.0000-0.5774 0.0000 (  2594 PWs)   bands (ev):

   -12.3913 -12.2876  -1.3731  -1.2490  -1.1505  -1.0514  -0.9960  -0.9232
    -0.8109  -0.7867  -0.7791  -0.7364   0.2528   0.7477   1.5413   2.1203
     2.6203   2.9320

          k = 0.0000-0.5774 0.1012 (  2594 PWs)   bands (ev):

   -12.3838 -12.2940  -1.3815  -1.2339  -1.2030  -1.0460  -1.0141  -0.9169
    -0.8101  -0.7881  -0.7840  -0.7363   0.2269   0.6626   1.7325   2.1767
     2.6810   2.8786

          k = 0.0000-0.5774 0.2024 (  2604 PWs)   bands (ev):

   -12.3638 -12.3118  -1.3914  -1.2996  -1.1912  -1.0636  -1.0272  -0.9444
    -0.8071  -0.7936  -0.7719  -0.7397   0.2316   0.4858   2.1472   2.3285
     2.7182   2.7326

          k = 0.0000-0.5774-0.3036 (  2592 PWs)   bands (ev):

   -12.3372 -12.3372  -1.3700  -1.3700  -1.1293  -1.1293  -0.9913  -0.9913
    -0.8016  -0.8016  -0.7507  -0.7507   0.3241   0.3241   2.5320   2.5320
     2.5362   2.5362

          k = 0.1667 0.2887 0.0000 (  2623 PWs)   bands (ev):

   -12.5377 -12.3150  -1.3474  -1.3250  -1.2529  -1.1952  -1.0993  -0.9439
    -0.9317  -0.8793  -0.7924  -0.6697   0.4739   1.4459   1.6895   2.3390
     3.0114   3.0738

          k = 0.1667 0.2887 0.1012 (  2616 PWs)   bands (ev):

   -12.5227 -12.3297  -1.3545  -1.3204  -1.2571  -1.2031  -1.1115  -1.0030
    -0.9231  -0.8665  -0.7976  -0.7075   0.5846   1.3858   1.8179   2.3616
     2.9606   3.0554

          k = 0.1667 0.2887 0.2024 (  2601 PWs)   bands (ev):

   -12.4817 -12.3702  -1.3641  -1.3195  -1.2544  -1.2194  -1.1424  -1.1259
    -0.8753  -0.8503  -0.8113  -0.7631   0.8006   1.2269   2.1594   2.4576
     2.8250   2.9183

          k = 0.1667 0.2887-0.3036 (  2600 PWs)   bands (ev):

   -12.4258 -12.4258  -1.3477  -1.3477  -1.2367  -1.2367  -1.1692  -1.1692
    -0.8354  -0.8354  -0.8140  -0.8140   1.0211   1.0211   2.5414   2.5414
     2.6791   2.6791

          k = 0.1667 0.4811 0.0000 (  2594 PWs)   bands (ev):

   -12.3941 -12.2860  -1.3489  -1.2354  -1.1070  -1.0434  -0.9833  -0.9692
    -0.8859  -0.8490  -0.7625  -0.6582   0.4663   0.8192   1.5410   1.8149
     2.6167   2.6938

          k = 0.1667 0.4811 0.1012 (  2593 PWs)   bands (ev):

   -12.3863 -12.2927  -1.3426  -1.2403  -1.1454  -1.0505  -0.9995  -0.9864
    -0.8821  -0.8334  -0.7612  -0.6683   0.4353   0.7674   1.6491   1.9427
     2.5743   2.7281

          k = 0.1667 0.4811 0.2024 (  2597 PWs)   bands (ev):

   -12.3655 -12.3114  -1.3329  -1.2590  -1.1905  -1.0771  -1.0402  -1.0236
    -0.8502  -0.8221  -0.7515  -0.6947   0.4314   0.6370   1.8666   2.2655
     2.4120   2.7733

          k = 0.1667 0.4811-0.3036 (  2592 PWs)   bands (ev):

   -12.3379 -12.3379  -1.3103  -1.3103  -1.1457  -1.1457  -1.0433  -1.0433
    -0.8270  -0.8270  -0.7268  -0.7268   0.5066   0.5066   2.1250   2.1250
     2.6330   2.6330

          k = 0.3333 0.5774 0.0000 (  2586 PWs)   bands (ev):

   -12.3115 -12.3115  -1.3600  -1.1163  -1.1163  -0.9653  -0.9171  -0.9171
    -0.8778  -0.8648  -0.6918  -0.6918   0.6656   0.6656   0.9808   2.1964
     2.1964   2.2870

          k = 0.3333 0.5774 0.1012 (  2592 PWs)   bands (ev):

   -12.3109 -12.3109  -1.3400  -1.1432  -1.1432  -0.9957  -0.9233  -0.9233
    -0.8862  -0.8672  -0.6786  -0.6786   0.6074   0.6074   1.0739   2.1983
     2.3255   2.3255

          k = 0.3333 0.5774 0.2024 (  2589 PWs)   bands (ev):

   -12.3095 -12.3095  -1.2815  -1.1955  -1.1955  -1.0842  -0.9325  -0.9325
    -0.8888  -0.8737  -0.6563  -0.6563   0.5137   0.5137   1.3183   1.9603
     2.5651   2.5651

          k = 0.3333 0.5774-0.3036 (  2634 PWs)   bands (ev):

   -12.3089 -12.3089  -1.2212  -1.2212  -1.1913  -1.1913  -0.9368  -0.9368
    -0.8826  -0.8826  -0.6470  -0.6470   0.4748   0.4748   1.6403   1.6403
     2.6791   2.6791

     highest occupied level (ev):     3.4547

!    total energy              =    -361.55184183 Ry
     estimated scf accuracy    <          3.1E-09 Ry

     The total energy is the sum of the following terms:
     one-electron contribution =    -185.28513017 Ry
     hartree contribution      =     129.52694172 Ry
     xc contribution           =    -109.05810267 Ry
     ewald contribution        =    -196.73555070 Ry

     convergence has been achieved in  23 iterations

     Forces acting on atoms (cartesian axes, Ry/au):

     atom    1 type  1   force =     0.00000000    0.00000000   -0.00202118
     atom    2 type  1   force =     0.00000000   -0.00000000   -0.00202118
     atom    3 type  2   force =     0.00000000   -0.00000000    0.00202118
     atom    4 type  2   force =     0.00000000    0.00000000    0.00202118
     The non-local contrib.  to forces
     atom    1 type  1   force =     0.00000000    0.00000000    0.04363121
     atom    2 type  1   force =     0.00000000   -0.00000000    0.04363121
     atom    3 type  2   force =    -0.00000000    0.00000000    0.05942386
     atom    4 type  2   force =     0.00000000    0.00000000    0.05942386
     The ionic contribution  to forces
     atom    1 type  1   force =    -0.00000000    0.00000000    0.39141925
     atom    2 type  1   force =     0.00000000   -0.00000000    0.39141925
     atom    3 type  2   force =    -0.00000000    0.00000000   -0.39141925
     atom    4 type  2   force =     0.00000000   -0.00000000   -0.39141925
     The local contribution  to forces
     atom    1 type  1   force =    -0.00000002    0.00000001   -0.43456193
     atom    2 type  1   force =     0.00000007   -0.00000004   -0.43456192
     atom    3 type  2   force =    -0.00000001    0.00000000    0.33457228
     atom    4 type  2   force =     0.00000002   -0.00000001    0.33457227
     The core correction contribution to forces
     atom    1 type  1   force =    -0.00000000    0.00000000   -0.00251088
     atom    2 type  1   force =     0.00000001   -0.00000001   -0.00251088
     atom    3 type  2   force =     0.00000000   -0.00000000   -0.00056099
     atom    4 type  2   force =    -0.00000000    0.00000000   -0.00056099
     The Hubbard contrib.    to forces
     atom    1 type  1   force =     0.00000000    0.00000000    0.00000000
     atom    2 type  1   force =     0.00000000    0.00000000    0.00000000
     atom    3 type  2   force =     0.00000000    0.00000000    0.00000000
     atom    4 type  2   force =     0.00000000    0.00000000    0.00000000
     The SCF correction term to forces
     atom    1 type  1   force =    -0.00000000    0.00000000    0.00000085
     atom    2 type  1   force =     0.00000000   -0.00000000    0.00000085
     atom    3 type  2   force =    -0.00000000    0.00000000    0.00000497
     atom    4 type  2   force =     0.00000000   -0.00000000    0.00000497

     Total force =     0.004042     Total SCF correction =     0.000007


     Computing stress (Cartesian axis) and pressure

          total   stress  (Ry/bohr**3)                   (kbar)     P=     -200.37
  -0.00134113  -0.00000000   0.00000000         -197.29       -0.00        0.00
  -0.00000000  -0.00134113   0.00000000           -0.00     -197.29        0.00
   0.00000000   0.00000000  -0.00140406            0.00        0.00     -206.54


     Writing all to output data dir ./ZnO_ANN.save/

     init_run     :      1.98s CPU      1.32s WALL (       1 calls)
     electrons    :     89.61s CPU     32.81s WALL (       1 calls)
     forces       :      0.82s CPU      0.40s WALL (       1 calls)
     stress       :      3.05s CPU      1.49s WALL (       1 calls)

     Called by init_run:
     wfcinit      :      1.07s CPU      0.40s WALL (       1 calls)
     potinit      :      0.26s CPU      0.27s WALL (       1 calls)
     hinit0       :      0.46s CPU      0.47s WALL (       1 calls)

     Called by electrons:
     c_bands      :     72.78s CPU     26.28s WALL (      23 calls)
     sum_band     :     12.13s CPU      4.60s WALL (      23 calls)
     v_of_rho     :      1.08s CPU      0.47s WALL (      24 calls)
     newd         :      3.41s CPU      1.40s WALL (      24 calls)
     mix_rho      :      0.17s CPU      0.07s WALL (      23 calls)

     Called by c_bands:
     init_us_2    :      1.37s CPU      0.46s WALL (    1372 calls)
     init_us_2:cp :      1.36s CPU      0.46s WALL (    1372 calls)
     cegterg      :     69.93s CPU     25.19s WALL (     644 calls)

     Called by *egterg:
     cdiaghg      :     12.02s CPU      4.03s WALL (    4182 calls)
     h_psi        :     44.99s CPU     18.06s WALL (    4210 calls)
     s_psi        :      1.25s CPU      0.35s WALL (    4210 calls)
     g_psi        :      0.46s CPU      0.12s WALL (    3538 calls)

     Called by h_psi:
     h_psi:calbec :      1.89s CPU      0.66s WALL (    4210 calls)
     vloc_psi     :     41.31s CPU     16.84s WALL (    4210 calls)
     add_vuspsi   :      1.29s CPU      0.41s WALL (    4210 calls)

     General routines
     calbec       :      2.41s CPU      0.83s WALL (    4994 calls)
     fft          :      0.79s CPU      0.44s WALL (     335 calls)
     ffts         :      0.14s CPU      0.12s WALL (      47 calls)
     fftw         :     39.84s CPU     16.32s WALL (   96236 calls)
     interpolate  :      0.16s CPU      0.13s WALL (      24 calls)

     Parallel routines

     PWSCF        :   1m36.01s CPU     36.51s WALL


   This run was terminated on:  19:44:57  13Jun2025            

=------------------------------------------------------------------------------=
   JOB DONE.
=------------------------------------------------------------------------------=
Note: The following floating-point exceptions are signalling: IEEE_INVALID_FLAG
