Authorization required, but no authorization protocol specified

Authorization required, but no authorization protocol specified

Authorization required, but no authorization protocol specified

Authorization required, but no authorization protocol specified

Authorization required, but no authorization protocol specified

Authorization required, but no authorization protocol specified

Authorization required, but no authorization protocol specified

Authorization required, but no authorization protocol specified

Authorization required, but no authorization protocol specified

Authorization required, but no authorization protocol specified


     Program PWSCF v.7.2 starts on 13Jun2025 at 15:24:39 

     This program is part of the open-source Quantum ESPRESSO suite
     for quantum simulation of materials; please cite
         "P. Giannozzi et al., J. Phys.:Condens. Matter 21 395502 (2009);
         "P. Giannozzi et al., J. Phys.:Condens. Matter 29 465901 (2017);
         "P. Giannozzi et al., J. Chem. Phys. 152 154105 (2020);
          URL http://www.quantum-espresso.org", 
     in publications or presentations arising from this work. More details at
     http://www.quantum-espresso.org/quote

     Parallel version (MPI), running on     8 processors

     MPI processes distributed on     1 nodes
     120729 MiB available memory on the printing compute node when the environment starts

     Reading input from /home/jvc/QEspresso7.2/ZnO_database_python/SCFs.in/scf-5.62-1.53.in

     Current dimensions of program PWSCF are:
     Max number of different atomic species (ntypx) = 10
     Max number of k-points (npk) =  40000
     Max angular momentum in pseudopotentials (lmaxx) =  4
     file Zn.upf: wavefunction(s)  3D renormalized

     R & G space division:  proc/nbgrp/npool/nimage =       8
     Subspace diagonalization in iterative solution of the eigenvalue problem:
     a serial algorithm will be used


     Parallelization info
     --------------------
     sticks:   dense  smooth     PW     G-vecs:    dense   smooth      PW
     Min         107      54     16                 3983     1410     243
     Max         108      55     18                 3990     1415     246
     Sum         859     433    139                31885    11295    1959

     Using Slab Decomposition



     bravais-lattice index     =            4
     lattice parameter (alat)  =       5.6227  a.u.
     unit-cell volume          =     236.0996 (a.u.)^3
     number of atoms/cell      =            4
     number of atomic types    =            2
     number of electrons       =        36.00
     number of Kohn-Sham states=           18
     kinetic-energy cutoff     =      50.0000  Ry
     charge density cutoff     =     400.0000  Ry
     scf convergence threshold =      1.0E-08
     mixing beta               =       0.3000
     number of iterations used =            8  plain     mixing
     Exchange-correlation= PBE
                           (   1   4   3   4   0   0   0)

     celldm(1)=   5.622727  celldm(2)=   0.000000  celldm(3)=   1.533640
     celldm(4)=   0.000000  celldm(5)=   0.000000  celldm(6)=   0.000000

     crystal axes: (cart. coord. in units of alat)
               a(1) = (   1.000000   0.000000   0.000000 )  
               a(2) = (  -0.500000   0.866025   0.000000 )  
               a(3) = (   0.000000   0.000000   1.533640 )  

     reciprocal axes: (cart. coord. in units 2 pi/alat)
               b(1) = (  1.000000  0.577350 -0.000000 )  
               b(2) = (  0.000000  1.154701  0.000000 )  
               b(3) = (  0.000000 -0.000000  0.652043 )  


     PseudoPot. # 1 for Zn read from file:
     /home/jvc/QEspresso7.2/ZnO_database/pseudos/Zn.upf
     MD5 check sum: 7f56cabf9682ed8c977c2f7d0c5985c5
     Pseudo is Ultrasoft + core correction, Zval = 12.0
     Generated using &quot;atomic&quot; code by A. Dal Corso  v.6.2.2
     Using radial grid of 1201 points,  6 beta functions with: 
                l(1) =   0
                l(2) =   0
                l(3) =   1
                l(4) =   1
                l(5) =   2
                l(6) =   2
     Q(r) pseudized with 0 coefficients 


     PseudoPot. # 2 for O  read from file:
     /home/jvc/QEspresso7.2/ZnO_database/pseudos/O.upf
     MD5 check sum: 91400c9766925bcf19f520983a725ff0
     Pseudo is Ultrasoft + core correction, Zval =  6.0
     Generated using &quot;atomic&quot; code by A. Dal Corso  v.6.3MaX
     Using radial grid of 1095 points,  4 beta functions with: 
                l(1) =   0
                l(2) =   0
                l(3) =   1
                l(4) =   1
     Q(r) pseudized with 0 coefficients 


     atomic species   valence    mass     pseudopotential
        Zn            12.00    63.38000     Zn( 1.00)
        O              6.00    15.99900     O ( 1.00)

     12 Sym. Ops. (no inversion) found ( 6 have fractional translation)



   Cartesian axes

     site n.     atom                  positions (alat units)
         1           Zn  tau(   1) = (   0.5000000   0.2886751   0.7677919  )
         2           Zn  tau(   2) = (  -0.0000000   0.5773503   0.0009717  )
         3           O   tau(   3) = (   0.5000000   0.2886751   1.3491073  )
         4           O   tau(   4) = (  -0.0000000   0.5773503   0.5822871  )

     number of k points=    28
                       cart. coord. in units 2pi/alat
        k(    1) = (   0.0000000   0.0000000   0.0000000), wk =   0.0092593
        k(    2) = (   0.0000000   0.0000000   0.1086739), wk =   0.0185185
        k(    3) = (   0.0000000   0.0000000   0.2173478), wk =   0.0185185
        k(    4) = (   0.0000000   0.0000000  -0.3260217), wk =   0.0092593
        k(    5) = (   0.0000000   0.1924501   0.0000000), wk =   0.0555556
        k(    6) = (   0.0000000   0.1924501   0.1086739), wk =   0.1111111
        k(    7) = (   0.0000000   0.1924501   0.2173478), wk =   0.1111111
        k(    8) = (   0.0000000   0.1924501  -0.3260217), wk =   0.0555556
        k(    9) = (   0.0000000   0.3849002   0.0000000), wk =   0.0555556
        k(   10) = (   0.0000000   0.3849002   0.1086739), wk =   0.1111111
        k(   11) = (   0.0000000   0.3849002   0.2173478), wk =   0.1111111
        k(   12) = (   0.0000000   0.3849002  -0.3260217), wk =   0.0555556
        k(   13) = (   0.0000000  -0.5773503   0.0000000), wk =   0.0277778
        k(   14) = (   0.0000000  -0.5773503   0.1086739), wk =   0.0555556
        k(   15) = (   0.0000000  -0.5773503   0.2173478), wk =   0.0555556
        k(   16) = (   0.0000000  -0.5773503  -0.3260217), wk =   0.0277778
        k(   17) = (   0.1666667   0.2886751   0.0000000), wk =   0.0555556
        k(   18) = (   0.1666667   0.2886751   0.1086739), wk =   0.1111111
        k(   19) = (   0.1666667   0.2886751   0.2173478), wk =   0.1111111
        k(   20) = (   0.1666667   0.2886751  -0.3260217), wk =   0.0555556
        k(   21) = (   0.1666667   0.4811252   0.0000000), wk =   0.1111111
        k(   22) = (   0.1666667   0.4811252   0.1086739), wk =   0.2222222
        k(   23) = (   0.1666667   0.4811252   0.2173478), wk =   0.2222222
        k(   24) = (   0.1666667   0.4811252  -0.3260217), wk =   0.1111111
        k(   25) = (   0.3333333   0.5773503   0.0000000), wk =   0.0185185
        k(   26) = (   0.3333333   0.5773503   0.1086739), wk =   0.0370370
        k(   27) = (   0.3333333   0.5773503   0.2173478), wk =   0.0370370
        k(   28) = (   0.3333333   0.5773503  -0.3260217), wk =   0.0185185

     Dense  grid:    31885 G-vectors     FFT dimensions: (  36,  36,  60)

     Smooth grid:    11295 G-vectors     FFT dimensions: (  25,  25,  40)

     Estimated max dynamical RAM per process >      19.45 MB

     Estimated total dynamical RAM >     155.56 MB

     Check: negative core charge=   -0.000001

     Initial potential from superposition of free atoms

     starting charge      35.9925, renormalised to      36.0000
     Starting wfcs are   26 randomized atomic wfcs

     total cpu time spent up to now is        1.4 secs

     Self-consistent Calculation

     iteration #  1     ecut=    50.00 Ry     beta= 0.30
     Davidson diagonalization with overlap
     ethr =  1.00E-02,  avg # of iterations =  2.1

     total cpu time spent up to now is        2.0 secs

     total energy              =    -361.27015856 Ry
     estimated scf accuracy    <       0.69092946 Ry

     iteration #  2     ecut=    50.00 Ry     beta= 0.30
     Davidson diagonalization with overlap
     ethr =  1.92E-03,  avg # of iterations =  2.0

     total cpu time spent up to now is        2.6 secs

     total energy              =    -361.29528235 Ry
     estimated scf accuracy    <       0.15092949 Ry

     iteration #  3     ecut=    50.00 Ry     beta= 0.30
     Davidson diagonalization with overlap
     ethr =  4.19E-04,  avg # of iterations =  6.3

     total cpu time spent up to now is        3.8 secs

     total energy              =    -361.38891641 Ry
     estimated scf accuracy    <       0.09556702 Ry

     iteration #  4     ecut=    50.00 Ry     beta= 0.30
     Davidson diagonalization with overlap
     ethr =  2.65E-04,  avg # of iterations =  2.0

     total cpu time spent up to now is        4.4 secs

     total energy              =    -361.38445267 Ry
     estimated scf accuracy    <       0.02952477 Ry

     iteration #  5     ecut=    50.00 Ry     beta= 0.30
     Davidson diagonalization with overlap
     ethr =  8.20E-05,  avg # of iterations =  8.9

     total cpu time spent up to now is        6.0 secs

     total energy              =    -361.43442671 Ry
     estimated scf accuracy    <       0.48585050 Ry

     iteration #  6     ecut=    50.00 Ry     beta= 0.30
     Davidson diagonalization with overlap
     ethr =  8.20E-05,  avg # of iterations =  5.1

     total cpu time spent up to now is        7.0 secs

     total energy              =    -361.35480549 Ry
     estimated scf accuracy    <       0.18841161 Ry

     iteration #  7     ecut=    50.00 Ry     beta= 0.30
     Davidson diagonalization with overlap
     ethr =  8.20E-05,  avg # of iterations =  7.0

     total cpu time spent up to now is        8.3 secs

     total energy              =    -361.39645877 Ry
     estimated scf accuracy    <       0.00038049 Ry

     iteration #  8     ecut=    50.00 Ry     beta= 0.30
     Davidson diagonalization with overlap
     ethr =  1.06E-06,  avg # of iterations =  7.2

     total cpu time spent up to now is        9.5 secs

     total energy              =    -361.39661307 Ry
     estimated scf accuracy    <       0.00122973 Ry

     iteration #  9     ecut=    50.00 Ry     beta= 0.30
     Davidson diagonalization with overlap
     ethr =  1.06E-06,  avg # of iterations =  3.9

     total cpu time spent up to now is       10.3 secs

     total energy              =    -361.39660850 Ry
     estimated scf accuracy    <       0.00017720 Ry

     iteration # 10     ecut=    50.00 Ry     beta= 0.30
     Davidson diagonalization with overlap
     ethr =  4.92E-07,  avg # of iterations =  6.2

     total cpu time spent up to now is       11.5 secs

     total energy              =    -361.39673891 Ry
     estimated scf accuracy    <       0.00014122 Ry

     iteration # 11     ecut=    50.00 Ry     beta= 0.30
     Davidson diagonalization with overlap
     ethr =  3.92E-07,  avg # of iterations =  1.1

     total cpu time spent up to now is       12.0 secs

     total energy              =    -361.39672175 Ry
     estimated scf accuracy    <       0.00007096 Ry

     iteration # 12     ecut=    50.00 Ry     beta= 0.30
     Davidson diagonalization with overlap
     ethr =  1.97E-07,  avg # of iterations =  2.0

     total cpu time spent up to now is       12.6 secs

     total energy              =    -361.39672464 Ry
     estimated scf accuracy    <       0.00001436 Ry

     iteration # 13     ecut=    50.00 Ry     beta= 0.30
     Davidson diagonalization with overlap
     ethr =  3.99E-08,  avg # of iterations =  5.0

     total cpu time spent up to now is       13.7 secs

     total energy              =    -361.39673243 Ry
     estimated scf accuracy    <       0.00000059 Ry

     iteration # 14     ecut=    50.00 Ry     beta= 0.30
     Davidson diagonalization with overlap
     ethr =  1.63E-09,  avg # of iterations =  5.8

     total cpu time spent up to now is       14.7 secs

     total energy              =    -361.39673341 Ry
     estimated scf accuracy    <       0.00000153 Ry

     iteration # 15     ecut=    50.00 Ry     beta= 0.30
     Davidson diagonalization with overlap
     ethr =  1.63E-09,  avg # of iterations =  1.5

     total cpu time spent up to now is       15.3 secs

     total energy              =    -361.39673281 Ry
     estimated scf accuracy    <       0.00000232 Ry

     iteration # 16     ecut=    50.00 Ry     beta= 0.30
     Davidson diagonalization with overlap
     ethr =  1.63E-09,  avg # of iterations =  2.0

     total cpu time spent up to now is       15.8 secs

     total energy              =    -361.39673265 Ry
     estimated scf accuracy    <       0.00000127 Ry

     iteration # 17     ecut=    50.00 Ry     beta= 0.30
     Davidson diagonalization with overlap
     ethr =  1.63E-09,  avg # of iterations =  1.9

     total cpu time spent up to now is       16.4 secs

     total energy              =    -361.39673271 Ry
     estimated scf accuracy    <       0.00000070 Ry

     iteration # 18     ecut=    50.00 Ry     beta= 0.30
     Davidson diagonalization with overlap
     ethr =  1.63E-09,  avg # of iterations =  1.0

     total cpu time spent up to now is       17.0 secs

     total energy              =    -361.39673250 Ry
     estimated scf accuracy    <       0.00000063 Ry

     iteration # 19     ecut=    50.00 Ry     beta= 0.30
     Davidson diagonalization with overlap
     ethr =  1.63E-09,  avg # of iterations =  2.0

     total cpu time spent up to now is       17.6 secs

     total energy              =    -361.39673245 Ry
     estimated scf accuracy    <       0.00000017 Ry

     iteration # 20     ecut=    50.00 Ry     beta= 0.30
     Davidson diagonalization with overlap
     ethr =  4.82E-10,  avg # of iterations =  6.2

     total cpu time spent up to now is       18.8 secs

     total energy              =    -361.39673255 Ry
     estimated scf accuracy    <       0.00000018 Ry

     iteration # 21     ecut=    50.00 Ry     beta= 0.30
     Davidson diagonalization with overlap
     ethr =  4.82E-10,  avg # of iterations =  3.1

     total cpu time spent up to now is       19.5 secs

     End of self-consistent calculation

          k = 0.0000 0.0000 0.0000 (  1423 PWs)   bands (ev):

    -8.3689  -6.9359   4.4126   5.0112   5.0112   5.0920   5.3559   5.3559
     7.2397   7.2397   7.7147   7.7147   8.1437  11.3937  11.3937  12.6966
    12.7716  12.7716

          k = 0.0000 0.0000 0.1087 (  1423 PWs)   bands (ev):

    -8.2796  -7.0385   4.3320   4.9644   5.0184   5.0184   5.3145   5.3145
     7.2883   7.2883   7.7034   7.7034   8.5365  11.4849  11.4849  12.2224
    12.6810  12.6810

          k = 0.0000 0.0000 0.2173 (  1394 PWs)   bands (ev):

    -8.0309  -7.3141   4.2624   4.6663   5.0495   5.0495   5.2178   5.2178
     7.4105   7.4105   7.6549   7.6549   9.4531  11.4243  11.7372  11.7372
    12.4310  12.4310

          k = 0.0000 0.0000-0.3260 (  1412 PWs)   bands (ev):

    -7.6794  -7.6794   4.3811   4.3811   5.1174   5.1174   5.1174   5.1174
     7.5498   7.5498   7.5498   7.5498  10.4894  10.4894  12.0848  12.0848
    12.0848  12.0848

          k = 0.0000 0.1925 0.0000 (  1429 PWs)   bands (ev):

    -8.1226  -6.8487   4.5881   4.7873   5.1267   5.1909   5.3618   5.5301
     7.1142   7.2390   7.7106   7.7478   8.2026  10.3614  10.8842  11.6730
    12.4214  12.5072

          k = 0.0000 0.1925 0.1087 (  1419 PWs)   bands (ev):

    -8.0407  -6.9363   4.4498   4.6604   5.1385   5.1763   5.3417   5.4846
     7.1886   7.2851   7.7282   7.7468   8.5744  10.4626  10.9970  11.4653
    12.3722  12.4033

          k = 0.0000 0.1925 0.2173 (  1409 PWs)   bands (ev):

    -7.8139  -7.1749   4.2455   4.4362   5.1531   5.1807   5.2717   5.3768
     7.3594   7.4023   7.6606   7.6931   9.5013  10.7425  11.0672  11.3029
    11.9986  12.1155

          k = 0.0000 0.1925-0.3260 (  1416 PWs)   bands (ev):

    -7.4975  -7.4975   4.2458   4.2458   5.1905   5.1905   5.2628   5.2628
     7.5431   7.5431   7.5481   7.5481  10.4029  10.4029  11.3510  11.3510
    11.7138  11.7138

          k = 0.0000 0.3849 0.0000 (  1405 PWs)   bands (ev):

    -7.5507  -6.7174   4.2717   4.7833   5.3114   5.3518   5.8737   5.9738
     7.0082   7.3957   7.5754   7.7961   8.4403   8.8139   9.8209  10.1560
    11.6505  11.9034

          k = 0.0000 0.3849 0.1087 (  1413 PWs)   bands (ev):

    -7.4907  -6.7670   4.1934   4.5377   5.3395   5.3527   5.7528   5.9065
     7.1267   7.4213   7.7629   7.7743   8.5357   9.0462   9.9862  10.0543
    11.7288  11.7781

          k = 0.0000 0.3849 0.2173 (  1409 PWs)   bands (ev):

    -7.3288  -6.9085   4.0318   4.1657   5.3625   5.4262   5.5700   5.7461
     7.3591   7.4911   7.6835   7.7818   8.9002   9.4346  10.1901  10.4072
    11.4298  11.6356

          k = 0.0000 0.3849-0.3260 (  1410 PWs)   bands (ev):

    -7.1136  -7.1136   3.9818   3.9818   5.4322   5.4322   5.5685   5.5685
     7.5855   7.5855   7.5984   7.5984   9.2418   9.2418  10.9350  10.9350
    11.0348  11.0348

          k = 0.0000-0.5774 0.0000 (  1396 PWs)   bands (ev):

    -7.1685  -6.7272   4.3681   4.3990   5.3687   5.5096   6.0255   6.2837
     7.2981   7.6022   7.8191   7.8893   8.1072   8.5844   9.0800   9.1811
    11.0970  11.5547

          k = 0.0000-0.5774 0.1087 (  1394 PWs)   bands (ev):

    -7.1302  -6.7466   4.2442   4.2515   5.4097   5.4884   5.9245   6.1892
     7.4220   7.6090   7.7758   7.9027   8.1557   8.4742   9.3982   9.4995
    11.2207  11.4201

          k = 0.0000-0.5774 0.2173 (  1422 PWs)   bands (ev):

    -7.0312  -6.8080   3.9765   4.0131   5.5025   5.5300   5.7397   5.9669
     7.6250   7.6278   7.7080   7.8737   8.2574   8.3868   9.9064  10.3169
    11.0439  11.3473

          k = 0.0000-0.5774-0.3260 (  1424 PWs)   bands (ev):

    -6.9102  -6.9102   3.8768   3.8768   5.5892   5.5892   5.7249   5.7249
     7.6596   7.6596   7.7798   7.7798   8.3329   8.3329  10.5029  10.5029
    11.0544  11.0544

          k = 0.1667 0.2887 0.0000 (  1414 PWs)   bands (ev):

    -7.7103  -6.7404   4.4689   4.7548   5.3254   5.3299   5.5748   5.8615
     7.0157   7.2632   7.6596   7.7795   8.4253   9.3216   9.7349  10.6670
    11.8898  11.9101

          k = 0.1667 0.2887 0.1087 (  1405 PWs)   bands (ev):

    -7.6432  -6.8012   4.3916   4.5474   5.2776   5.2878   5.5535   5.8024
     7.1112   7.3540   7.7530   7.7897   8.6685   9.4740   9.8654  10.5323
    11.7575  11.9522

          k = 0.1667 0.2887 0.2173 (  1409 PWs)   bands (ev):

    -7.4605  -6.9721   4.2128   4.2172   5.2408   5.2613   5.5137   5.6701
     7.3287   7.4630   7.6817   7.7647   9.3090  10.0183  10.0549  10.4548
    11.4022  11.7622

          k = 0.1667 0.2887-0.3260 (  1406 PWs)   bands (ev):

    -7.2134  -7.2134   4.1013   4.1013   5.2462   5.2462   5.5491   5.5491
     7.5453   7.5453   7.6046   7.6046   9.7456   9.7456  10.8038  10.8038
    11.1327  11.1327

          k = 0.1667 0.4811 0.0000 (  1411 PWs)   bands (ev):

    -7.1873  -6.7167   4.4848   4.7487   5.2634   5.4546   6.0845   6.2458
     7.1547   7.2660   7.7966   7.8232   8.1821   8.5615   9.0429   9.4750
    10.9648  11.2457

          k = 0.1667 0.4811 0.1087 (  1408 PWs)   bands (ev):

    -7.1475  -6.7383   4.3843   4.5748   5.2403   5.4133   5.9702   6.1359
     7.1999   7.4853   7.7973   7.9334   8.1515   8.7368   9.0806   9.6796
    10.9328  11.2679

          k = 0.1667 0.4811 0.2173 (  1408 PWs)   bands (ev):

    -7.0437  -6.8056   4.1748   4.2463   5.2538   5.3555   5.8489   5.9537
     7.3689   7.5558   7.8056   8.0035   8.3191   8.8194   9.3869  10.2573
    10.6533  11.3714

          k = 0.1667 0.4811-0.3260 (  1410 PWs)   bands (ev):

    -6.9155  -6.9155   4.0841   4.0841   5.3055   5.3055   5.8380   5.8380
     7.5055   7.5055   7.8813   7.8813   8.6169   8.6169   9.9515   9.9515
    11.1043  11.1043

          k = 0.3333 0.5774 0.0000 (  1392 PWs)   bands (ev):

    -6.8614  -6.8614   4.7926   5.1735   5.1735   5.3585   6.2689   6.2689
     7.0993   7.2981   7.2981   7.4266   7.9880   8.8115   8.8115  10.2033
    10.2033  10.3481

          k = 0.3333 0.5774 0.1087 (  1404 PWs)   bands (ev):

    -6.8506  -6.8506   4.8161   4.9561   4.9561   5.2964   6.1705   6.1705
     7.1233   7.4056   7.5786   7.5786   8.1453   8.7350   8.7350  10.1715
    10.4345  10.4345

          k = 0.3333 0.5774 0.2173 (  1383 PWs)   bands (ev):

    -6.8288  -6.8288   4.5835   4.5835   4.8877   5.1549   6.0827   6.0827
     7.1864   7.3488   8.0039   8.0039   8.5635   8.5672   8.5672   9.7139
    10.8926  10.8926

          k = 0.3333 0.5774-0.3260 (  1392 PWs)   bands (ev):

    -6.8178  -6.8178   4.4208   4.4208   5.0049   5.0049   6.0562   6.0562
     7.2689   7.2689   8.2852   8.2852   8.3789   8.3789   9.1283   9.1283
    11.1239  11.1239

     highest occupied level (ev):    12.7716

!    total energy              =    -361.39673258 Ry
     estimated scf accuracy    <          5.3E-09 Ry

     The total energy is the sum of the following terms:
     one-electron contribution =    -114.84031439 Ry
     hartree contribution      =     104.87766684 Ry
     xc contribution           =    -110.39208142 Ry
     ewald contribution        =    -241.04200361 Ry

     convergence has been achieved in  21 iterations

     Forces acting on atoms (cartesian axes, Ry/au):

     atom    1 type  1   force =    -0.00000000   -0.00000000   -0.07236384
     atom    2 type  1   force =     0.00000000   -0.00000000   -0.07236384
     atom    3 type  2   force =     0.00000000    0.00000000    0.07236384
     atom    4 type  2   force =     0.00000000    0.00000000    0.07236384
     The non-local contrib.  to forces
     atom    1 type  1   force =    -0.00000000   -0.00000000   -0.18182166
     atom    2 type  1   force =     0.00000000    0.00000000   -0.18182166
     atom    3 type  2   force =     0.00000000    0.00000000   -0.10030469
     atom    4 type  2   force =    -0.00000000    0.00000000   -0.10030469
     The ionic contribution  to forces
     atom    1 type  1   force =    -0.00000000    0.00000000   -1.24122196
     atom    2 type  1   force =     0.00000000   -0.00000000   -1.24122196
     atom    3 type  2   force =    -0.00000000    0.00000000    1.24122196
     atom    4 type  2   force =     0.00000000   -0.00000000    1.24122196
     The local contribution  to forces
     atom    1 type  1   force =    -0.00000002    0.00000001    1.33194301
     atom    2 type  1   force =     0.00000006   -0.00000003    1.33194302
     atom    3 type  2   force =    -0.00000001    0.00000000   -1.06898517
     atom    4 type  2   force =     0.00000002   -0.00000001   -1.06898518
     The core correction contribution to forces
     atom    1 type  1   force =    -0.00000000    0.00000000    0.01874737
     atom    2 type  1   force =     0.00000001   -0.00000000    0.01874737
     atom    3 type  2   force =     0.00000000   -0.00000000    0.00047254
     atom    4 type  2   force =    -0.00000000    0.00000000    0.00047254
     The Hubbard contrib.    to forces
     atom    1 type  1   force =     0.00000000    0.00000000    0.00000000
     atom    2 type  1   force =     0.00000000    0.00000000    0.00000000
     atom    3 type  2   force =     0.00000000    0.00000000    0.00000000
     atom    4 type  2   force =     0.00000000    0.00000000    0.00000000
     The SCF correction term to forces
     atom    1 type  1   force =     0.00000000   -0.00000000   -0.00001806
     atom    2 type  1   force =    -0.00000000    0.00000000   -0.00001806
     atom    3 type  2   force =     0.00000000   -0.00000000   -0.00004826
     atom    4 type  2   force =    -0.00000000    0.00000000   -0.00004826

     Total force =     0.144728     Total SCF correction =     0.000073


     Computing stress (Cartesian axis) and pressure

          total   stress  (Ry/bohr**3)                   (kbar)     P=      951.59
   0.00566825   0.00000000   0.00000000          833.83        0.00        0.00
   0.00000000   0.00566825   0.00000000            0.00      833.83        0.00
   0.00000000   0.00000000   0.00806985            0.00        0.00     1187.12


     Writing all to output data dir ./ZnO_ANN.save/

     init_run     :      1.42s CPU      1.02s WALL (       1 calls)
     electrons    :     48.26s CPU     18.12s WALL (       1 calls)
     forces       :      0.52s CPU      0.26s WALL (       1 calls)
     stress       :      1.66s CPU      0.83s WALL (       1 calls)

     Called by init_run:
     wfcinit      :      0.68s CPU      0.27s WALL (       1 calls)
     potinit      :      0.18s CPU      0.18s WALL (       1 calls)
     hinit0       :      0.48s CPU      0.49s WALL (       1 calls)

     Called by electrons:
     c_bands      :     39.55s CPU     14.69s WALL (      21 calls)
     sum_band     :      6.28s CPU      2.44s WALL (      21 calls)
     v_of_rho     :      0.56s CPU      0.24s WALL (      22 calls)
     newd         :      1.75s CPU      0.71s WALL (      22 calls)
     mix_rho      :      0.08s CPU      0.04s WALL (      21 calls)

     Called by c_bands:
     init_us_2    :      0.68s CPU      0.24s WALL (    1260 calls)
     init_us_2:cp :      0.66s CPU      0.23s WALL (    1260 calls)
     cegterg      :     38.10s CPU     14.14s WALL (     588 calls)

     Called by *egterg:
     cdiaghg      :      7.94s CPU      2.76s WALL (    2894 calls)
     h_psi        :     24.23s CPU      9.73s WALL (    2922 calls)
     s_psi        :      0.68s CPU      0.22s WALL (    2922 calls)
     g_psi        :      0.20s CPU      0.05s WALL (    2306 calls)

     Called by h_psi:
     h_psi:calbec :      1.04s CPU      0.41s WALL (    2922 calls)
     vloc_psi     :     22.29s CPU      9.00s WALL (    2922 calls)
     add_vuspsi   :      0.66s CPU      0.24s WALL (    2922 calls)

     General routines
     calbec       :      1.38s CPU      0.53s WALL (    3650 calls)
     fft          :      0.53s CPU      0.37s WALL (     309 calls)
     ffts         :      0.09s CPU      0.08s WALL (      43 calls)
     fftw         :     21.93s CPU      8.86s WALL (   82220 calls)
     interpolate  :      0.11s CPU      0.09s WALL (      22 calls)

     Parallel routines

     PWSCF        :     52.41s CPU     20.68s WALL


   This run was terminated on:  15:25: 0  13Jun2025            

=------------------------------------------------------------------------------=
   JOB DONE.
=------------------------------------------------------------------------------=
Note: The following floating-point exceptions are signalling: IEEE_INVALID_FLAG
