Authorization required, but no authorization protocol specified

Authorization required, but no authorization protocol specified

Authorization required, but no authorization protocol specified

Authorization required, but no authorization protocol specified

Authorization required, but no authorization protocol specified

Authorization required, but no authorization protocol specified

Authorization required, but no authorization protocol specified

Authorization required, but no authorization protocol specified

Authorization required, but no authorization protocol specified

Authorization required, but no authorization protocol specified


     Program PWSCF v.7.2 starts on 13Jun2025 at 17:41:22 

     This program is part of the open-source Quantum ESPRESSO suite
     for quantum simulation of materials; please cite
         "P. Giannozzi et al., J. Phys.:Condens. Matter 21 395502 (2009);
         "P. Giannozzi et al., J. Phys.:Condens. Matter 29 465901 (2017);
         "P. Giannozzi et al., J. Chem. Phys. 152 154105 (2020);
          URL http://www.quantum-espresso.org", 
     in publications or presentations arising from this work. More details at
     http://www.quantum-espresso.org/quote

     Parallel version (MPI), running on     8 processors

     MPI processes distributed on     1 nodes
     120705 MiB available memory on the printing compute node when the environment starts

     Reading input from /home/jvc/QEspresso7.2/ZnO_database_python/SCFs.in/scf-6.30-1.55.in

     Current dimensions of program PWSCF are:
     Max number of different atomic species (ntypx) = 10
     Max number of k-points (npk) =  40000
     Max angular momentum in pseudopotentials (lmaxx) =  4
     file Zn.upf: wavefunction(s)  3D renormalized

     R & G space division:  proc/nbgrp/npool/nimage =       8
     Subspace diagonalization in iterative solution of the eigenvalue problem:
     a serial algorithm will be used


     Parallelization info
     --------------------
     sticks:   dense  smooth     PW     G-vecs:    dense   smooth      PW
     Min         137      68     20                 5658     2002     334
     Max         138      69     21                 5660     2009     341
     Sum        1099     547    163                45273    16033    2695

     Using Slab Decomposition



     bravais-lattice index     =            4
     lattice parameter (alat)  =       6.3024  a.u.
     unit-cell volume          =     335.9845 (a.u.)^3
     number of atoms/cell      =            4
     number of atomic types    =            2
     number of electrons       =        36.00
     number of Kohn-Sham states=           18
     kinetic-energy cutoff     =      50.0000  Ry
     charge density cutoff     =     400.0000  Ry
     scf convergence threshold =      1.0E-08
     mixing beta               =       0.3000
     number of iterations used =            8  plain     mixing
     Exchange-correlation= PBE
                           (   1   4   3   4   0   0   0)

     celldm(1)=   6.302398  celldm(2)=   0.000000  celldm(3)=   1.549784
     celldm(4)=   0.000000  celldm(5)=   0.000000  celldm(6)=   0.000000

     crystal axes: (cart. coord. in units of alat)
               a(1) = (   1.000000   0.000000   0.000000 )  
               a(2) = (  -0.500000   0.866025   0.000000 )  
               a(3) = (   0.000000   0.000000   1.549784 )  

     reciprocal axes: (cart. coord. in units 2 pi/alat)
               b(1) = (  1.000000  0.577350 -0.000000 )  
               b(2) = (  0.000000  1.154701  0.000000 )  
               b(3) = (  0.000000 -0.000000  0.645251 )  


     PseudoPot. # 1 for Zn read from file:
     /home/jvc/QEspresso7.2/ZnO_database/pseudos/Zn.upf
     MD5 check sum: 7f56cabf9682ed8c977c2f7d0c5985c5
     Pseudo is Ultrasoft + core correction, Zval = 12.0
     Generated using &quot;atomic&quot; code by A. Dal Corso  v.6.2.2
     Using radial grid of 1201 points,  6 beta functions with: 
                l(1) =   0
                l(2) =   0
                l(3) =   1
                l(4) =   1
                l(5) =   2
                l(6) =   2
     Q(r) pseudized with 0 coefficients 


     PseudoPot. # 2 for O  read from file:
     /home/jvc/QEspresso7.2/ZnO_database/pseudos/O.upf
     MD5 check sum: 91400c9766925bcf19f520983a725ff0
     Pseudo is Ultrasoft + core correction, Zval =  6.0
     Generated using &quot;atomic&quot; code by A. Dal Corso  v.6.3MaX
     Using radial grid of 1095 points,  4 beta functions with: 
                l(1) =   0
                l(2) =   0
                l(3) =   1
                l(4) =   1
     Q(r) pseudized with 0 coefficients 


     atomic species   valence    mass     pseudopotential
        Zn            12.00    63.38000     Zn( 1.00)
        O              6.00    15.99900     O ( 1.00)

     12 Sym. Ops. (no inversion) found ( 6 have fractional translation)



   Cartesian axes

     site n.     atom                  positions (alat units)
         1           Zn  tau(   1) = (   0.5000000   0.2886751   0.7758739  )
         2           Zn  tau(   2) = (  -0.0000000   0.5773503   0.0009819  )
         3           O   tau(   3) = (   0.5000000   0.2886751   1.3633085  )
         4           O   tau(   4) = (  -0.0000000   0.5773503   0.5884164  )

     number of k points=    28
                       cart. coord. in units 2pi/alat
        k(    1) = (   0.0000000   0.0000000   0.0000000), wk =   0.0092593
        k(    2) = (   0.0000000   0.0000000   0.1075419), wk =   0.0185185
        k(    3) = (   0.0000000   0.0000000   0.2150837), wk =   0.0185185
        k(    4) = (   0.0000000   0.0000000  -0.3226256), wk =   0.0092593
        k(    5) = (   0.0000000   0.1924501   0.0000000), wk =   0.0555556
        k(    6) = (   0.0000000   0.1924501   0.1075419), wk =   0.1111111
        k(    7) = (   0.0000000   0.1924501   0.2150837), wk =   0.1111111
        k(    8) = (   0.0000000   0.1924501  -0.3226256), wk =   0.0555556
        k(    9) = (   0.0000000   0.3849002   0.0000000), wk =   0.0555556
        k(   10) = (   0.0000000   0.3849002   0.1075419), wk =   0.1111111
        k(   11) = (   0.0000000   0.3849002   0.2150837), wk =   0.1111111
        k(   12) = (   0.0000000   0.3849002  -0.3226256), wk =   0.0555556
        k(   13) = (   0.0000000  -0.5773503   0.0000000), wk =   0.0277778
        k(   14) = (   0.0000000  -0.5773503   0.1075419), wk =   0.0555556
        k(   15) = (   0.0000000  -0.5773503   0.2150837), wk =   0.0555556
        k(   16) = (   0.0000000  -0.5773503  -0.3226256), wk =   0.0277778
        k(   17) = (   0.1666667   0.2886751   0.0000000), wk =   0.0555556
        k(   18) = (   0.1666667   0.2886751   0.1075419), wk =   0.1111111
        k(   19) = (   0.1666667   0.2886751   0.2150837), wk =   0.1111111
        k(   20) = (   0.1666667   0.2886751  -0.3226256), wk =   0.0555556
        k(   21) = (   0.1666667   0.4811252   0.0000000), wk =   0.1111111
        k(   22) = (   0.1666667   0.4811252   0.1075419), wk =   0.2222222
        k(   23) = (   0.1666667   0.4811252   0.2150837), wk =   0.2222222
        k(   24) = (   0.1666667   0.4811252  -0.3226256), wk =   0.1111111
        k(   25) = (   0.3333333   0.5773503   0.0000000), wk =   0.0185185
        k(   26) = (   0.3333333   0.5773503   0.1075419), wk =   0.0370370
        k(   27) = (   0.3333333   0.5773503   0.2150837), wk =   0.0370370
        k(   28) = (   0.3333333   0.5773503  -0.3226256), wk =   0.0185185

     Dense  grid:    45273 G-vectors     FFT dimensions: (  45,  45,  64)

     Smooth grid:    16033 G-vectors     FFT dimensions: (  30,  30,  48)

     Estimated max dynamical RAM per process >      26.37 MB

     Estimated total dynamical RAM >     210.96 MB

     Check: negative core charge=   -0.000002

     Initial potential from superposition of free atoms

     starting charge      35.9925, renormalised to      36.0000
     Starting wfcs are   26 randomized atomic wfcs

     total cpu time spent up to now is        1.6 secs

     Self-consistent Calculation

     iteration #  1     ecut=    50.00 Ry     beta= 0.30
     Davidson diagonalization with overlap
     ethr =  1.00E-02,  avg # of iterations =  1.9

     total cpu time spent up to now is        2.4 secs

     total energy              =    -361.47258212 Ry
     estimated scf accuracy    <       0.70365015 Ry

     iteration #  2     ecut=    50.00 Ry     beta= 0.30
     Davidson diagonalization with overlap
     ethr =  1.95E-03,  avg # of iterations =  2.0

     total cpu time spent up to now is        3.4 secs

     total energy              =    -361.57356889 Ry
     estimated scf accuracy    <       0.08963721 Ry

     iteration #  3     ecut=    50.00 Ry     beta= 0.30
     Davidson diagonalization with overlap
     ethr =  2.49E-04,  avg # of iterations =  6.4

     total cpu time spent up to now is        5.1 secs

     total energy              =    -361.60378275 Ry
     estimated scf accuracy    <       0.06595349 Ry

     iteration #  4     ecut=    50.00 Ry     beta= 0.30
     Davidson diagonalization with overlap
     ethr =  1.83E-04,  avg # of iterations =  8.5

     total cpu time spent up to now is        7.1 secs

     total energy              =    -361.65584584 Ry
     estimated scf accuracy    <       0.31804476 Ry

     iteration #  5     ecut=    50.00 Ry     beta= 0.30
     Davidson diagonalization with overlap
     ethr =  1.83E-04,  avg # of iterations =  2.0

     total cpu time spent up to now is        8.0 secs

     total energy              =    -361.54019800 Ry
     estimated scf accuracy    <       0.19471989 Ry

     iteration #  6     ecut=    50.00 Ry     beta= 0.30
     Davidson diagonalization with overlap
     ethr =  1.83E-04,  avg # of iterations =  7.9

     total cpu time spent up to now is        9.9 secs

     total energy              =    -361.64146396 Ry
     estimated scf accuracy    <       0.10968102 Ry

     iteration #  7     ecut=    50.00 Ry     beta= 0.30
     Davidson diagonalization with overlap
     ethr =  1.83E-04,  avg # of iterations =  1.0

     total cpu time spent up to now is       10.7 secs

     total energy              =    -361.63581314 Ry
     estimated scf accuracy    <       0.06503560 Ry

     iteration #  8     ecut=    50.00 Ry     beta= 0.30
     Davidson diagonalization with overlap
     ethr =  1.81E-04,  avg # of iterations =  1.8

     total cpu time spent up to now is       11.6 secs

     total energy              =    -361.64004044 Ry
     estimated scf accuracy    <       0.03396594 Ry

     iteration #  9     ecut=    50.00 Ry     beta= 0.30
     Davidson diagonalization with overlap
     ethr =  9.43E-05,  avg # of iterations =  1.0

     total cpu time spent up to now is       12.4 secs

     total energy              =    -361.64035088 Ry
     estimated scf accuracy    <       0.03422092 Ry

     iteration # 10     ecut=    50.00 Ry     beta= 0.30
     Davidson diagonalization with overlap
     ethr =  9.43E-05,  avg # of iterations =  1.0

     total cpu time spent up to now is       13.2 secs

     total energy              =    -361.63468060 Ry
     estimated scf accuracy    <       0.03064174 Ry

     iteration # 11     ecut=    50.00 Ry     beta= 0.30
     Davidson diagonalization with overlap
     ethr =  8.51E-05,  avg # of iterations =  1.1

     total cpu time spent up to now is       14.0 secs

     total energy              =    -361.63747833 Ry
     estimated scf accuracy    <       0.01694958 Ry

     iteration # 12     ecut=    50.00 Ry     beta= 0.30
     Davidson diagonalization with overlap
     ethr =  4.71E-05,  avg # of iterations =  1.0

     total cpu time spent up to now is       14.8 secs

     total energy              =    -361.64578235 Ry
     estimated scf accuracy    <       0.02053013 Ry

     iteration # 13     ecut=    50.00 Ry     beta= 0.30
     Davidson diagonalization with overlap
     ethr =  4.71E-05,  avg # of iterations =  1.7

     total cpu time spent up to now is       15.7 secs

     total energy              =    -361.63250400 Ry
     estimated scf accuracy    <       0.03632791 Ry

     iteration # 14     ecut=    50.00 Ry     beta= 0.30
     Davidson diagonalization with overlap
     ethr =  4.71E-05,  avg # of iterations =  2.2

     total cpu time spent up to now is       16.5 secs

     total energy              =    -361.62910937 Ry
     estimated scf accuracy    <       0.01375766 Ry

     iteration # 15     ecut=    50.00 Ry     beta= 0.30
     Davidson diagonalization with overlap
     ethr =  3.82E-05,  avg # of iterations =  4.1

     total cpu time spent up to now is       17.8 secs

     total energy              =    -361.63484735 Ry
     estimated scf accuracy    <       0.00005689 Ry

     iteration # 16     ecut=    50.00 Ry     beta= 0.30
     Davidson diagonalization with overlap
     c_bands:  1 eigenvalues not converged
     c_bands:  1 eigenvalues not converged
     ethr =  1.58E-07,  avg # of iterations = 14.4

     total cpu time spent up to now is       21.1 secs

     total energy              =    -361.63611801 Ry
     estimated scf accuracy    <       0.01360350 Ry

     iteration # 17     ecut=    50.00 Ry     beta= 0.30
     Davidson diagonalization with overlap
     ethr =  1.58E-07,  avg # of iterations =  8.9

     total cpu time spent up to now is       23.3 secs

     total energy              =    -361.63063606 Ry
     estimated scf accuracy    <       0.00759877 Ry

     iteration # 18     ecut=    50.00 Ry     beta= 0.30
     Davidson diagonalization with overlap
     c_bands:  2 eigenvalues not converged
     ethr =  1.58E-07,  avg # of iterations = 14.5

     total cpu time spent up to now is       26.8 secs

     total energy              =    -361.63467089 Ry
     estimated scf accuracy    <       0.01105699 Ry

     iteration # 19     ecut=    50.00 Ry     beta= 0.30
     Davidson diagonalization with overlap
     ethr =  1.58E-07,  avg # of iterations = 10.6

     total cpu time spent up to now is       29.4 secs

     total energy              =    -361.63475097 Ry
     estimated scf accuracy    <       0.00300148 Ry

     iteration # 20     ecut=    50.00 Ry     beta= 0.30
     Davidson diagonalization with overlap
     ethr =  1.58E-07,  avg # of iterations =  5.5

     total cpu time spent up to now is       30.9 secs

     total energy              =    -361.63466722 Ry
     estimated scf accuracy    <       0.00167948 Ry

     iteration # 21     ecut=    50.00 Ry     beta= 0.30
     Davidson diagonalization with overlap
     ethr =  1.58E-07,  avg # of iterations =  2.0

     total cpu time spent up to now is       31.8 secs

     total energy              =    -361.63504592 Ry
     estimated scf accuracy    <       0.00140295 Ry

     iteration # 22     ecut=    50.00 Ry     beta= 0.30
     Davidson diagonalization with overlap
     ethr =  1.58E-07,  avg # of iterations =  5.2

     total cpu time spent up to now is       33.2 secs

     total energy              =    -361.63441456 Ry
     estimated scf accuracy    <       0.00263056 Ry

     iteration # 23     ecut=    50.00 Ry     beta= 0.30
     Davidson diagonalization with overlap
     ethr =  1.58E-07,  avg # of iterations =  8.1

     total cpu time spent up to now is       35.2 secs

     total energy              =    -361.63429732 Ry
     estimated scf accuracy    <       0.00064942 Ry

     iteration # 24     ecut=    50.00 Ry     beta= 0.30
     Davidson diagonalization with overlap
     ethr =  1.58E-07,  avg # of iterations =  7.9

     total cpu time spent up to now is       37.1 secs

     total energy              =    -361.63438400 Ry
     estimated scf accuracy    <       0.00001934 Ry

     iteration # 25     ecut=    50.00 Ry     beta= 0.30
     Davidson diagonalization with overlap
     ethr =  5.37E-08,  avg # of iterations =  2.2

     total cpu time spent up to now is       38.0 secs

     total energy              =    -361.63437788 Ry
     estimated scf accuracy    <       0.00001238 Ry

     iteration # 26     ecut=    50.00 Ry     beta= 0.30
     Davidson diagonalization with overlap
     ethr =  3.44E-08,  avg # of iterations =  5.8

     total cpu time spent up to now is       39.5 secs

     total energy              =    -361.63438365 Ry
     estimated scf accuracy    <       0.00000596 Ry

     iteration # 27     ecut=    50.00 Ry     beta= 0.30
     Davidson diagonalization with overlap
     ethr =  1.65E-08,  avg # of iterations =  2.0

     total cpu time spent up to now is       40.4 secs

     total energy              =    -361.63438348 Ry
     estimated scf accuracy    <       0.00000124 Ry

     iteration # 28     ecut=    50.00 Ry     beta= 0.30
     Davidson diagonalization with overlap
     ethr =  3.46E-09,  avg # of iterations =  6.1

     total cpu time spent up to now is       42.0 secs

     total energy              =    -361.63438435 Ry
     estimated scf accuracy    <       0.00000107 Ry

     iteration # 29     ecut=    50.00 Ry     beta= 0.30
     Davidson diagonalization with overlap
     ethr =  2.98E-09,  avg # of iterations =  2.1

     total cpu time spent up to now is       42.9 secs

     total energy              =    -361.63438444 Ry
     estimated scf accuracy    <       0.00000010 Ry

     iteration # 30     ecut=    50.00 Ry     beta= 0.30
     Davidson diagonalization with overlap
     ethr =  2.65E-10,  avg # of iterations =  9.2

     total cpu time spent up to now is       45.0 secs

     total energy              =    -361.63438467 Ry
     estimated scf accuracy    <       0.00000046 Ry

     iteration # 31     ecut=    50.00 Ry     beta= 0.30
     Davidson diagonalization with overlap
     ethr =  2.65E-10,  avg # of iterations =  1.7

     total cpu time spent up to now is       45.9 secs

     total energy              =    -361.63438454 Ry
     estimated scf accuracy    <       0.00000031 Ry

     iteration # 32     ecut=    50.00 Ry     beta= 0.30
     Davidson diagonalization with overlap
     ethr =  2.65E-10,  avg # of iterations =  6.4

     total cpu time spent up to now is       47.6 secs

     total energy              =    -361.63438463 Ry
     estimated scf accuracy    <       0.00000001 Ry

     iteration # 33     ecut=    50.00 Ry     beta= 0.30
     Davidson diagonalization with overlap
     ethr =  2.99E-11,  avg # of iterations =  3.0

     total cpu time spent up to now is       48.6 secs

     End of self-consistent calculation

          k = 0.0000 0.0000 0.0000 (  1971 PWs)   bands (ev):

   -11.1293 -10.4162   1.1489   1.1489   1.1648   1.3498   1.3498   1.3919
     2.1704   2.1704   2.3843   2.3843   2.6056   5.7432   5.7432   6.5822
     6.5822   6.5875

          k = 0.0000 0.0000 0.1075 (  2002 PWs)   bands (ev):

   -11.0835 -10.4659   1.1125   1.1543   1.1543   1.2077   1.3272   1.3272
     2.1910   2.1910   2.3775   2.3775   2.9721   5.8013   5.8013   6.0230
     6.5282   6.5282

          k = 0.0000 0.0000 0.2151 (  2002 PWs)   bands (ev):

   -10.9569 -10.6002   0.9881   1.0006   1.1751   1.1751   1.2736   1.2736
     2.2438   2.2438   2.3526   2.3526   3.6987   5.2631   5.9589   5.9589
     6.3789   6.3789

          k = 0.0000 0.0000-0.3226 (  2026 PWs)   bands (ev):

   -10.7805 -10.7805   0.9274   0.9274   1.2161   1.2161   1.2161   1.2161
     2.3048   2.3048   2.3048   2.3048   4.4900   4.4900   6.1709   6.1709
     6.1709   6.1709

          k = 0.0000 0.1925 0.0000 (  1990 PWs)   bands (ev):

   -11.0011 -10.3706   1.0220   1.2178   1.2382   1.3342   1.4600   1.5904
     2.1208   2.1710   2.3972   2.4919   2.6027   4.9010   5.4137   5.4910
     6.4002   6.4183

          k = 0.0000 0.1925 0.1075 (  1998 PWs)   bands (ev):

   -10.9597 -10.4135   0.9865   1.1819   1.2263   1.2703   1.4348   1.4446
     2.1541   2.1906   2.3872   2.4272   3.0414   4.9652   5.3363   5.4844
     6.3426   6.3539

          k = 0.0000 0.1925 0.2151 (  2008 PWs)   bands (ev):

   -10.8461 -10.5305   0.9030   0.9682   1.2492   1.2550   1.3442   1.3739
     2.2280   2.2410   2.3550   2.3791   3.7409   4.8534   5.3151   5.6747
     6.0901   6.1762

          k = 0.0000 0.1925-0.3226 (  1994 PWs)   bands (ev):

   -10.6891 -10.6891   0.8663   0.8663   1.2813   1.2813   1.3068   1.3068
     2.3026   2.3026   2.3110   2.3110   4.3750   4.3750   5.6845   5.6845
     5.9285   5.9285

          k = 0.0000 0.3849 0.0000 (  1994 PWs)   bands (ev):

   -10.7109 -10.3016   0.9056   1.2380   1.3254   1.5003   1.7300   1.8492
     2.1333   2.2429   2.4170   2.5498   2.8491   3.5899   4.4058   4.7410
     5.8633   6.0583

          k = 0.0000 0.3849 0.1075 (  2000 PWs)   bands (ev):

   -10.6822 -10.3273   0.8669   1.1410   1.3451   1.4699   1.6933   1.6940
     2.1584   2.2533   2.4022   2.5107   3.1005   3.7559   4.3807   4.8397
     5.9106   5.9762

          k = 0.0000 0.3849 0.2151 (  2014 PWs)   bands (ev):

   -10.6044 -10.3992   0.7923   0.9214   1.4029   1.4402   1.5404   1.6016
     2.2485   2.2820   2.3661   2.4419   3.3861   3.8222   4.7521   5.0978
     5.7492   5.8340

          k = 0.0000 0.3849-0.3226 (  2012 PWs)   bands (ev):

   -10.5003 -10.5003   0.7853   0.7853   1.4633   1.4633   1.4940   1.4940
     2.3226   2.3226   2.3516   2.3516   3.6242   3.6242   5.4075   5.4075
     5.4308   5.4308

          k = 0.0000-0.5774 0.0000 (  1996 PWs)   bands (ev):

   -10.5238 -10.3029   0.9567   1.2331   1.3591   1.6930   1.7173   1.9002
     2.2159   2.3310   2.4272   2.4836   2.9964   3.2931   3.9158   4.3690
     5.4241   5.8625

          k = 0.0000-0.5774 0.1075 (  2004 PWs)   bands (ev):

   -10.5065 -10.3150   0.9069   1.1075   1.3858   1.6569   1.6895   1.8523
     2.2823   2.3338   2.4097   2.4837   2.9504   3.2285   4.2324   4.4883
     5.5400   5.7721

          k = 0.0000-0.5774 0.2151 (  2012 PWs)   bands (ev):

   -10.4609 -10.3500   0.8076   0.8870   1.4642   1.6193   1.6405   1.7307
     2.3419   2.3791   2.3817   2.4763   2.9368   3.1056   4.7904   4.8686
     5.5217   5.6531

          k = 0.0000-0.5774-0.3226 (  2016 PWs)   bands (ev):

   -10.4028 -10.4028   0.7739   0.7739   1.5866   1.5866   1.6127   1.6127
     2.3561   2.3561   2.4469   2.4469   2.9979   2.9979   5.1677   5.1677
     5.4302   5.4302

          k = 0.1667 0.2887 0.0000 (  1985 PWs)   bands (ev):

   -10.7905 -10.3139   0.9952   1.1712   1.3348   1.4121   1.6643   1.8428
     2.0800   2.1952   2.4109   2.5395   2.7957   4.1666   4.3342   4.9319
     6.0118   6.0487

          k = 0.1667 0.2887 0.1075 (  2003 PWs)   bands (ev):

   -10.7578 -10.3448   0.9511   1.1243   1.3232   1.3805   1.6275   1.6310
     2.1241   2.2310   2.3980   2.4965   3.1527   4.3219   4.3265   4.9202
     5.9252   6.0697

          k = 0.1667 0.2887 0.2151 (  2007 PWs)   bands (ev):

   -10.6689 -10.4301   0.8615   0.9509   1.3203   1.3570   1.4767   1.5519
     2.2234   2.2716   2.3659   2.4308   3.6172   4.1868   4.8234   5.0584
     5.6914   5.9379

          k = 0.1667 0.2887-0.3226 (  2012 PWs)   bands (ev):

   -10.5486 -10.5486   0.8350   0.8350   1.3439   1.3439   1.4742   1.4742
     2.3080   2.3080   2.3470   2.3470   3.9410   3.9410   5.3257   5.3257
     5.5130   5.5130

          k = 0.1667 0.4811 0.0000 (  2011 PWs)   bands (ev):

   -10.5306 -10.2988   1.0480   1.2770   1.4282   1.5600   1.8515   1.9374
     2.1779   2.2211   2.4350   2.5991   2.8644   3.4539   3.8603   4.1843
     5.4053   5.5835

          k = 0.1667 0.4811 0.1075 (  2015 PWs)   bands (ev):

   -10.5126 -10.3116   1.0093   1.2112   1.3715   1.5472   1.7689   1.8541
     2.1807   2.2905   2.4297   2.5985   2.9058   3.4823   3.9465   4.4209
     5.4089   5.5889

          k = 0.1667 0.4811 0.2151 (  2012 PWs)   bands (ev):

   -10.4651 -10.3487   0.9158   1.0091   1.3837   1.5201   1.6684   1.7162
     2.2529   2.3145   2.4420   2.5532   3.0416   3.3737   4.2760   4.9464
     5.1678   5.6949

          k = 0.1667 0.4811-0.3226 (  2008 PWs)   bands (ev):

   -10.4043 -10.4043   0.8865   0.8865   1.4638   1.4638   1.6384   1.6384
     2.3015   2.3015   2.4899   2.4899   3.2087   3.2087   4.7003   4.7003
     5.5153   5.5153

          k = 0.3333 0.5774 0.0000 (  2055 PWs)   bands (ev):

   -10.3691 -10.3691   1.1149   1.4302   1.4302   1.9524   2.0210   2.0210
     2.1294   2.2525   2.3309   2.3309   2.9164   3.2088   3.2088   4.8011
     4.8011   5.0881

          k = 0.3333 0.5774 0.1075 (  2022 PWs)   bands (ev):

   -10.3660 -10.3660   1.1435   1.3379   1.3379   1.8139   1.9126   1.9126
     2.1452   2.2457   2.4583   2.4583   3.1239   3.1635   3.1635   4.9515
     5.0029   5.0029

          k = 0.3333 0.5774 0.2151 (  2004 PWs)   bands (ev):

   -10.3598 -10.3598   1.1518   1.1518   1.2298   1.5795   1.8241   1.8241
     2.1697   2.2260   2.6004   2.6004   3.0913   3.0913   3.5715   4.5861
     5.3804   5.3804

          k = 0.3333 0.5774-0.3226 (  2010 PWs)   bands (ev):

   -10.3568 -10.3568   1.0635   1.0635   1.3759   1.3759   1.7998   1.7998
     2.1983   2.1983   2.6540   2.6540   3.0596   3.0596   4.0918   4.0918
     5.5616   5.5616

     highest occupied level (ev):     6.5875

!    total energy              =    -361.63438463 Ry
     estimated scf accuracy    <          2.2E-09 Ry

     The total energy is the sum of the following terms:
     one-electron contribution =    -156.95746060 Ry
     hartree contribution      =     119.20227480 Ry
     xc contribution           =    -109.51161552 Ry
     ewald contribution        =    -214.36758331 Ry

     convergence has been achieved in  33 iterations

     Forces acting on atoms (cartesian axes, Ry/au):

     atom    1 type  1   force =     0.00000000    0.00000000   -0.01300788
     atom    2 type  1   force =     0.00000000   -0.00000000   -0.01300788
     atom    3 type  2   force =     0.00000000    0.00000000    0.01300788
     atom    4 type  2   force =     0.00000000    0.00000000    0.01300788
     The non-local contrib.  to forces
     atom    1 type  1   force =     0.00000000    0.00000000   -0.12135478
     atom    2 type  1   force =    -0.00000000    0.00000000   -0.12135478
     atom    3 type  2   force =    -0.00000000    0.00000000   -0.09176693
     atom    4 type  2   force =    -0.00000000    0.00000000   -0.09176693
     The ionic contribution  to forces
     atom    1 type  1   force =    -0.00000000    0.00000000   -0.76825097
     atom    2 type  1   force =     0.00000000   -0.00000000   -0.76825097
     atom    3 type  2   force =    -0.00000000    0.00000000    0.76825097
     atom    4 type  2   force =     0.00000000   -0.00000000    0.76825097
     The local contribution  to forces
     atom    1 type  1   force =    -0.00000002    0.00000001    0.86766943
     atom    2 type  1   force =     0.00000007   -0.00000004    0.86766943
     atom    3 type  2   force =    -0.00000001    0.00000000   -0.66416768
     atom    4 type  2   force =     0.00000002   -0.00000001   -0.66416768
     The core correction contribution to forces
     atom    1 type  1   force =    -0.00000000    0.00000000    0.00891999
     atom    2 type  1   force =     0.00000001   -0.00000000    0.00891999
     atom    3 type  2   force =     0.00000000   -0.00000000    0.00069403
     atom    4 type  2   force =    -0.00000000    0.00000000    0.00069403
     The Hubbard contrib.    to forces
     atom    1 type  1   force =     0.00000000    0.00000000    0.00000000
     atom    2 type  1   force =     0.00000000    0.00000000    0.00000000
     atom    3 type  2   force =     0.00000000    0.00000000    0.00000000
     atom    4 type  2   force =     0.00000000    0.00000000    0.00000000
     The SCF correction term to forces
     atom    1 type  1   force =     0.00000000   -0.00000000    0.00000984
     atom    2 type  1   force =    -0.00000000    0.00000000    0.00000984
     atom    3 type  2   force =     0.00000000   -0.00000000   -0.00000112
     atom    4 type  2   force =    -0.00000000    0.00000000   -0.00000112

     Total force =     0.026016     Total SCF correction =     0.000014


     Computing stress (Cartesian axis) and pressure

          total   stress  (Ry/bohr**3)                   (kbar)     P=      -22.01
  -0.00033804   0.00000000  -0.00000000          -49.73        0.00       -0.00
   0.00000000  -0.00033804  -0.00000000            0.00      -49.73       -0.00
  -0.00000000  -0.00000000   0.00022732           -0.00       -0.00       33.44


     Writing all to output data dir ./ZnO_ANN.save/

     init_run     :      1.78s CPU      1.22s WALL (       1 calls)
     electrons    :    126.54s CPU     47.02s WALL (       1 calls)
     forces       :      0.69s CPU      0.32s WALL (       1 calls)
     stress       :      2.40s CPU      1.18s WALL (       1 calls)

     Called by init_run:
     wfcinit      :      0.95s CPU      0.39s WALL (       1 calls)
     potinit      :      0.27s CPU      0.27s WALL (       1 calls)
     hinit0       :      0.43s CPU      0.44s WALL (       1 calls)

     Called by electrons:
     c_bands      :    105.51s CPU     38.83s WALL (      33 calls)
     sum_band     :     15.49s CPU      5.95s WALL (      33 calls)
     v_of_rho     :      1.32s CPU      0.57s WALL (      34 calls)
     newd         :      3.93s CPU      1.57s WALL (      34 calls)
     mix_rho      :      0.21s CPU      0.09s WALL (      33 calls)

     Called by c_bands:
     init_us_2    :      1.41s CPU      0.49s WALL (    1932 calls)
     init_us_2:cp :      1.39s CPU      0.48s WALL (    1932 calls)
     cegterg      :    102.45s CPU     37.65s WALL (     924 calls)

     Called by *egterg:
     cdiaghg      :     16.06s CPU      5.27s WALL (    5391 calls)
     h_psi        :     70.11s CPU     28.37s WALL (    5419 calls)
     s_psi        :      1.57s CPU      0.46s WALL (    5419 calls)
     g_psi        :      0.56s CPU      0.14s WALL (    4467 calls)

     Called by h_psi:
     h_psi:calbec :      2.40s CPU      0.87s WALL (    5419 calls)
     vloc_psi     :     65.52s CPU     26.82s WALL (    5419 calls)
     add_vuspsi   :      1.56s CPU      0.50s WALL (    5419 calls)

     General routines
     calbec       :      3.02s CPU      1.07s WALL (    6483 calls)
     fft          :      0.87s CPU      0.45s WALL (     465 calls)
     ffts         :      0.18s CPU      0.15s WALL (      67 calls)
     fftw         :     64.40s CPU     26.42s WALL (  147326 calls)
     interpolate  :      0.22s CPU      0.16s WALL (      34 calls)

     Parallel routines

     PWSCF        :   2m11.98s CPU     50.22s WALL


   This run was terminated on:  17:42:12  13Jun2025            

=------------------------------------------------------------------------------=
   JOB DONE.
=------------------------------------------------------------------------------=
Note: The following floating-point exceptions are signalling: IEEE_INVALID_FLAG
