Authorization required, but no authorization protocol specified

Authorization required, but no authorization protocol specified

Authorization required, but no authorization protocol specified

Authorization required, but no authorization protocol specified

Authorization required, but no authorization protocol specified

Authorization required, but no authorization protocol specified

Authorization required, but no authorization protocol specified

Authorization required, but no authorization protocol specified

Authorization required, but no authorization protocol specified

Authorization required, but no authorization protocol specified


     Program PWSCF v.7.2 starts on 13Jun2025 at 17:27: 6 

     This program is part of the open-source Quantum ESPRESSO suite
     for quantum simulation of materials; please cite
         "P. Giannozzi et al., J. Phys.:Condens. Matter 21 395502 (2009);
         "P. Giannozzi et al., J. Phys.:Condens. Matter 29 465901 (2017);
         "P. Giannozzi et al., J. Chem. Phys. 152 154105 (2020);
          URL http://www.quantum-espresso.org", 
     in publications or presentations arising from this work. More details at
     http://www.quantum-espresso.org/quote

     Parallel version (MPI), running on     8 processors

     MPI processes distributed on     1 nodes
     120712 MiB available memory on the printing compute node when the environment starts

     Reading input from /home/jvc/QEspresso7.2/ZnO_database_python/SCFs.in/scf-6.24-1.57.in

     Current dimensions of program PWSCF are:
     Max number of different atomic species (ntypx) = 10
     Max number of k-points (npk) =  40000
     Max angular momentum in pseudopotentials (lmaxx) =  4
     file Zn.upf: wavefunction(s)  3D renormalized

     R & G space division:  proc/nbgrp/npool/nimage =       8
     Subspace diagonalization in iterative solution of the eigenvalue problem:
     a serial algorithm will be used


     Parallelization info
     --------------------
     sticks:   dense  smooth     PW     G-vecs:    dense   smooth      PW
     Min         133      66     20                 5553     1953     332
     Max         134      68     21                 5560     1956     337
     Sum        1069     535    163                44451    15637    2671

     Using Slab Decomposition



     bravais-lattice index     =            4
     lattice parameter (alat)  =       6.2406  a.u.
     unit-cell volume          =     329.5971 (a.u.)^3
     number of atoms/cell      =            4
     number of atomic types    =            2
     number of electrons       =        36.00
     number of Kohn-Sham states=           18
     kinetic-energy cutoff     =      50.0000  Ry
     charge density cutoff     =     400.0000  Ry
     scf convergence threshold =      1.0E-08
     mixing beta               =       0.3000
     number of iterations used =            8  plain     mixing
     Exchange-correlation= PBE
                           (   1   4   3   4   0   0   0)

     celldm(1)=   6.240610  celldm(2)=   0.000000  celldm(3)=   1.565928
     celldm(4)=   0.000000  celldm(5)=   0.000000  celldm(6)=   0.000000

     crystal axes: (cart. coord. in units of alat)
               a(1) = (   1.000000   0.000000   0.000000 )  
               a(2) = (  -0.500000   0.866025   0.000000 )  
               a(3) = (   0.000000   0.000000   1.565928 )  

     reciprocal axes: (cart. coord. in units 2 pi/alat)
               b(1) = (  1.000000  0.577350 -0.000000 )  
               b(2) = (  0.000000  1.154701  0.000000 )  
               b(3) = (  0.000000 -0.000000  0.638599 )  


     PseudoPot. # 1 for Zn read from file:
     /home/jvc/QEspresso7.2/ZnO_database/pseudos/Zn.upf
     MD5 check sum: 7f56cabf9682ed8c977c2f7d0c5985c5
     Pseudo is Ultrasoft + core correction, Zval = 12.0
     Generated using &quot;atomic&quot; code by A. Dal Corso  v.6.2.2
     Using radial grid of 1201 points,  6 beta functions with: 
                l(1) =   0
                l(2) =   0
                l(3) =   1
                l(4) =   1
                l(5) =   2
                l(6) =   2
     Q(r) pseudized with 0 coefficients 


     PseudoPot. # 2 for O  read from file:
     /home/jvc/QEspresso7.2/ZnO_database/pseudos/O.upf
     MD5 check sum: 91400c9766925bcf19f520983a725ff0
     Pseudo is Ultrasoft + core correction, Zval =  6.0
     Generated using &quot;atomic&quot; code by A. Dal Corso  v.6.3MaX
     Using radial grid of 1095 points,  4 beta functions with: 
                l(1) =   0
                l(2) =   0
                l(3) =   1
                l(4) =   1
     Q(r) pseudized with 0 coefficients 


     atomic species   valence    mass     pseudopotential
        Zn            12.00    63.38000     Zn( 1.00)
        O              6.00    15.99900     O ( 1.00)

     12 Sym. Ops. (no inversion) found ( 6 have fractional translation)



   Cartesian axes

     site n.     atom                  positions (alat units)
         1           Zn  tau(   1) = (   0.5000000   0.2886751   0.7839560  )
         2           Zn  tau(   2) = (  -0.0000000   0.5773503   0.0009921  )
         3           O   tau(   3) = (   0.5000000   0.2886751   1.3775096  )
         4           O   tau(   4) = (  -0.0000000   0.5773503   0.5945458  )

     number of k points=    28
                       cart. coord. in units 2pi/alat
        k(    1) = (   0.0000000   0.0000000   0.0000000), wk =   0.0092593
        k(    2) = (   0.0000000   0.0000000   0.1064332), wk =   0.0185185
        k(    3) = (   0.0000000   0.0000000   0.2128664), wk =   0.0185185
        k(    4) = (   0.0000000   0.0000000  -0.3192996), wk =   0.0092593
        k(    5) = (   0.0000000   0.1924501   0.0000000), wk =   0.0555556
        k(    6) = (   0.0000000   0.1924501   0.1064332), wk =   0.1111111
        k(    7) = (   0.0000000   0.1924501   0.2128664), wk =   0.1111111
        k(    8) = (   0.0000000   0.1924501  -0.3192996), wk =   0.0555556
        k(    9) = (   0.0000000   0.3849002   0.0000000), wk =   0.0555556
        k(   10) = (   0.0000000   0.3849002   0.1064332), wk =   0.1111111
        k(   11) = (   0.0000000   0.3849002   0.2128664), wk =   0.1111111
        k(   12) = (   0.0000000   0.3849002  -0.3192996), wk =   0.0555556
        k(   13) = (   0.0000000  -0.5773503   0.0000000), wk =   0.0277778
        k(   14) = (   0.0000000  -0.5773503   0.1064332), wk =   0.0555556
        k(   15) = (   0.0000000  -0.5773503   0.2128664), wk =   0.0555556
        k(   16) = (   0.0000000  -0.5773503  -0.3192996), wk =   0.0277778
        k(   17) = (   0.1666667   0.2886751   0.0000000), wk =   0.0555556
        k(   18) = (   0.1666667   0.2886751   0.1064332), wk =   0.1111111
        k(   19) = (   0.1666667   0.2886751   0.2128664), wk =   0.1111111
        k(   20) = (   0.1666667   0.2886751  -0.3192996), wk =   0.0555556
        k(   21) = (   0.1666667   0.4811252   0.0000000), wk =   0.1111111
        k(   22) = (   0.1666667   0.4811252   0.1064332), wk =   0.2222222
        k(   23) = (   0.1666667   0.4811252   0.2128664), wk =   0.2222222
        k(   24) = (   0.1666667   0.4811252  -0.3192996), wk =   0.1111111
        k(   25) = (   0.3333333   0.5773503   0.0000000), wk =   0.0185185
        k(   26) = (   0.3333333   0.5773503   0.1064332), wk =   0.0370370
        k(   27) = (   0.3333333   0.5773503   0.2128664), wk =   0.0370370
        k(   28) = (   0.3333333   0.5773503  -0.3192996), wk =   0.0185185

     Dense  grid:    44451 G-vectors     FFT dimensions: (  40,  40,  64)

     Smooth grid:    15637 G-vectors     FFT dimensions: (  30,  30,  48)

     Estimated max dynamical RAM per process >      25.75 MB

     Estimated total dynamical RAM >     206.01 MB

     Check: negative core charge=   -0.000002

     Initial potential from superposition of free atoms

     starting charge      35.9925, renormalised to      36.0000
     Starting wfcs are   26 randomized atomic wfcs

     total cpu time spent up to now is        1.6 secs

     Self-consistent Calculation

     iteration #  1     ecut=    50.00 Ry     beta= 0.30
     Davidson diagonalization with overlap
     ethr =  1.00E-02,  avg # of iterations =  1.9

     total cpu time spent up to now is        2.4 secs

     total energy              =    -361.47789638 Ry
     estimated scf accuracy    <       0.69512319 Ry

     iteration #  2     ecut=    50.00 Ry     beta= 0.30
     Davidson diagonalization with overlap
     ethr =  1.93E-03,  avg # of iterations =  2.0

     total cpu time spent up to now is        3.4 secs

     total energy              =    -361.57601385 Ry
     estimated scf accuracy    <       0.08984999 Ry

     iteration #  3     ecut=    50.00 Ry     beta= 0.30
     Davidson diagonalization with overlap
     ethr =  2.50E-04,  avg # of iterations =  6.1

     total cpu time spent up to now is        5.0 secs

     total energy              =    -361.60692875 Ry
     estimated scf accuracy    <       0.06201405 Ry

     iteration #  4     ecut=    50.00 Ry     beta= 0.30
     Davidson diagonalization with overlap
     ethr =  1.72E-04,  avg # of iterations =  8.4

     total cpu time spent up to now is        7.0 secs

     total energy              =    -361.65606502 Ry
     estimated scf accuracy    <       0.28207941 Ry

     iteration #  5     ecut=    50.00 Ry     beta= 0.30
     Davidson diagonalization with overlap
     ethr =  1.72E-04,  avg # of iterations =  2.0

     total cpu time spent up to now is        7.9 secs

     total energy              =    -361.59415064 Ry
     estimated scf accuracy    <       0.17376965 Ry

     iteration #  6     ecut=    50.00 Ry     beta= 0.30
     Davidson diagonalization with overlap
     ethr =  1.72E-04,  avg # of iterations =  5.5

     total cpu time spent up to now is        9.4 secs

     total energy              =    -361.63423973 Ry
     estimated scf accuracy    <       0.00110218 Ry

     iteration #  7     ecut=    50.00 Ry     beta= 0.30
     Davidson diagonalization with overlap
     ethr =  3.06E-06,  avg # of iterations = 11.3

     total cpu time spent up to now is       12.0 secs

     total energy              =    -361.64385742 Ry
     estimated scf accuracy    <       0.03649521 Ry

     iteration #  8     ecut=    50.00 Ry     beta= 0.30
     Davidson diagonalization with overlap
     ethr =  3.06E-06,  avg # of iterations =  1.2

     total cpu time spent up to now is       12.8 secs

     total energy              =    -361.63412963 Ry
     estimated scf accuracy    <       0.03452849 Ry

     iteration #  9     ecut=    50.00 Ry     beta= 0.30
     Davidson diagonalization with overlap
     ethr =  3.06E-06,  avg # of iterations =  8.8

     total cpu time spent up to now is       14.8 secs

     total energy              =    -361.63489354 Ry
     estimated scf accuracy    <       0.00523837 Ry

     iteration # 10     ecut=    50.00 Ry     beta= 0.30
     Davidson diagonalization with overlap
     ethr =  3.06E-06,  avg # of iterations =  5.0

     total cpu time spent up to now is       16.1 secs

     total energy              =    -361.63539388 Ry
     estimated scf accuracy    <       0.00050042 Ry

     iteration # 11     ecut=    50.00 Ry     beta= 0.30
     Davidson diagonalization with overlap
     ethr =  1.39E-06,  avg # of iterations =  1.8

     total cpu time spent up to now is       17.0 secs

     total energy              =    -361.63539933 Ry
     estimated scf accuracy    <       0.00033608 Ry

     iteration # 12     ecut=    50.00 Ry     beta= 0.30
     Davidson diagonalization with overlap
     ethr =  9.34E-07,  avg # of iterations =  1.2

     total cpu time spent up to now is       17.8 secs

     total energy              =    -361.63534492 Ry
     estimated scf accuracy    <       0.00024279 Ry

     iteration # 13     ecut=    50.00 Ry     beta= 0.30
     Davidson diagonalization with overlap
     ethr =  6.74E-07,  avg # of iterations =  2.8

     total cpu time spent up to now is       18.7 secs

     total energy              =    -361.63535996 Ry
     estimated scf accuracy    <       0.00004360 Ry

     iteration # 14     ecut=    50.00 Ry     beta= 0.30
     Davidson diagonalization with overlap
     ethr =  1.21E-07,  avg # of iterations =  6.4

     total cpu time spent up to now is       20.2 secs

     total energy              =    -361.63538744 Ry
     estimated scf accuracy    <       0.00000393 Ry

     iteration # 15     ecut=    50.00 Ry     beta= 0.30
     Davidson diagonalization with overlap
     ethr =  1.09E-08,  avg # of iterations =  4.0

     total cpu time spent up to now is       21.2 secs

     total energy              =    -361.63538603 Ry
     estimated scf accuracy    <       0.00000259 Ry

     iteration # 16     ecut=    50.00 Ry     beta= 0.30
     Davidson diagonalization with overlap
     ethr =  7.20E-09,  avg # of iterations =  8.0

     total cpu time spent up to now is       23.2 secs

     total energy              =    -361.63538651 Ry
     estimated scf accuracy    <       0.00001185 Ry

     iteration # 17     ecut=    50.00 Ry     beta= 0.30
     Davidson diagonalization with overlap
     ethr =  7.20E-09,  avg # of iterations =  4.6

     total cpu time spent up to now is       24.5 secs

     total energy              =    -361.63538720 Ry
     estimated scf accuracy    <       0.00000110 Ry

     iteration # 18     ecut=    50.00 Ry     beta= 0.30
     Davidson diagonalization with overlap
     ethr =  3.07E-09,  avg # of iterations =  4.3

     total cpu time spent up to now is       25.7 secs

     End of self-consistent calculation

          k = 0.0000 0.0000 0.0000 (  1923 PWs)   bands (ev):

   -10.9975 -10.2702   1.3385   1.3385   1.3634   1.5069   1.5410   1.5410
     2.4240   2.4240   2.6408   2.6408   2.8776   6.0309   6.0309   6.8502
     6.8673   6.8673

          k = 0.0000 0.0000 0.1064 (  1948 PWs)   bands (ev):

   -10.9509 -10.3211   1.3097   1.3444   1.3444   1.3493   1.5189   1.5189
     2.4446   2.4446   2.6335   2.6335   3.2228   6.0886   6.0886   6.2903
     6.8131   6.8131

          k = 0.0000 0.0000 0.2129 (  1948 PWs)   bands (ev):

   -10.8222 -10.4586   1.1557   1.1928   1.3663   1.3663   1.4658   1.4658
     2.4974   2.4974   2.6078   2.6078   3.9387   5.5212   6.2451   6.2451
     6.6638   6.6638

          k = 0.0000 0.0000-0.3193 (  1930 PWs)   bands (ev):

   -10.6426 -10.6426   1.1105   1.1105   1.4087   1.4087   1.4087   1.4087
     2.5592   2.5592   2.5592   2.5592   4.7360   4.7360   6.4563   6.4563
     6.4563   6.4563

          k = 0.0000 0.1925 0.0000 (  1938 PWs)   bands (ev):

   -10.8625 -10.2195   1.2015   1.4117   1.4344   1.5200   1.6553   1.7293
     2.3706   2.4243   2.6540   2.7455   2.8683   5.1669   5.6929   5.7716
     6.6606   6.6944

          k = 0.0000 0.1925 0.1064 (  1942 PWs)   bands (ev):

   -10.8206 -10.2635   1.1660   1.3569   1.4208   1.4616   1.6234   1.6304
     2.4041   2.4439   2.6434   2.6850   3.2851   5.2303   5.6159   5.7632
     6.5968   6.6300

          k = 0.0000 0.1925 0.2129 (  1955 PWs)   bands (ev):

   -10.7050 -10.3832   1.0817   1.1398   1.4471   1.4505   1.5391   1.5700
     2.4791   2.4944   2.6101   2.6344   3.9861   5.1286   5.5720   5.9524
     6.3360   6.4523

          k = 0.0000 0.1925-0.3193 (  1954 PWs)   bands (ev):

   -10.5451 -10.5451   1.0431   1.0431   1.4786   1.4786   1.5028   1.5028
     2.5566   2.5566   2.5639   2.5639   4.6376   4.6376   5.9306   5.9306
     6.2052   6.2052

          k = 0.0000 0.3849 0.0000 (  1962 PWs)   bands (ev):

   -10.5576 -10.1402   1.0690   1.4128   1.5270   1.7054   1.9359   2.0519
     2.3687   2.4982   2.6742   2.8005   3.0916   3.8151   4.6603   5.0005
     6.1152   6.3150

          k = 0.0000 0.3849 0.1064 (  1964 PWs)   bands (ev):

   -10.5284 -10.1666   1.0309   1.3106   1.5471   1.6758   1.8992   1.8999
     2.4011   2.5088   2.6594   2.7690   3.3456   3.9772   4.6292   5.0988
     6.1547   6.2329

          k = 0.0000 0.3849 0.2129 (  1973 PWs)   bands (ev):

   -10.4494 -10.2402   0.9578   1.0884   1.6061   1.6479   1.7496   1.8070
     2.4963   2.5379   2.6228   2.6992   3.6410   4.0718   4.9676   5.3559
     6.0061   6.0631

          k = 0.0000 0.3849-0.3193 (  1976 PWs)   bands (ev):

   -10.3434 -10.3434   0.9522   0.9522   1.6721   1.6721   1.6984   1.6984
     2.5787   2.5787   2.6042   2.6042   3.8810   3.8810   5.6235   5.6235
     5.6881   5.6881

          k = 0.0000-0.5774 0.0000 (  1956 PWs)   bands (ev):

   -10.3617 -10.1371   1.1285   1.3756   1.5637   1.9056   1.9378   2.1136
     2.4661   2.5908   2.6859   2.7481   3.2451   3.4894   4.1388   4.6154
     5.6669   6.1081

          k = 0.0000-0.5774 0.1064 (  1960 PWs)   bands (ev):

   -10.3442 -10.1494   1.0774   1.2567   1.5911   1.8681   1.9093   2.0649
     2.5338   2.5935   2.6689   2.7478   3.1988   3.4332   4.4509   4.7345
     5.7754   6.0177

          k = 0.0000-0.5774 0.2129 (  1980 PWs)   bands (ev):

   -10.2980 -10.1853   0.9754   1.0456   1.6710   1.8307   1.8579   1.9412
     2.6014   2.6372   2.6387   2.7395   3.1791   3.3245   5.0362   5.0832
     5.7672   5.8765

          k = 0.0000-0.5774-0.3193 (  1972 PWs)   bands (ev):

   -10.2390 -10.2390   0.9383   0.9383   1.7952   1.7952   1.8270   1.8270
     2.6161   2.6161   2.7072   2.7072   3.2296   3.2296   5.4133   5.4133
     5.6465   5.6465

          k = 0.1667 0.2887 0.0000 (  1973 PWs)   bands (ev):

   -10.6412 -10.1551   1.1661   1.3544   1.5349   1.6057   1.8680   2.0159
     2.3257   2.4469   2.6676   2.7953   3.0426   4.4016   4.6015   5.1901
     6.2690   6.3058

          k = 0.1667 0.2887 0.1064 (  1972 PWs)   bands (ev):

   -10.6080 -10.1867   1.1225   1.3003   1.5238   1.5743   1.8212   1.8354
     2.3708   2.4833   2.6545   2.7560   3.3947   4.5530   4.5909   5.1789
     6.1824   6.3181

          k = 0.1667 0.2887 0.2129 (  1968 PWs)   bands (ev):

   -10.5177 -10.2741   1.0336   1.1209   1.5206   1.5528   1.6835   1.7572
     2.4729   2.5255   2.6216   2.6881   3.8752   4.4576   5.0351   5.3154
     5.9489   6.1697

          k = 0.1667 0.2887-0.3193 (  1970 PWs)   bands (ev):

   -10.3951 -10.3951   1.0067   1.0067   1.5420   1.5420   1.6814   1.6814
     2.5629   2.5629   2.6004   2.6004   4.2091   4.2091   5.5667   5.5667
     5.7448   5.7448

          k = 0.1667 0.4811 0.0000 (  1975 PWs)   bands (ev):

   -10.3690 -10.1328   1.2239   1.4639   1.6071   1.7694   2.0636   2.1508
     2.4220   2.4715   2.6946   2.8655   3.0896   3.6923   4.0829   4.4122
     5.6431   5.8254

          k = 0.1667 0.4811 0.1064 (  1976 PWs)   bands (ev):

   -10.3507 -10.1460   1.1839   1.3860   1.5667   1.7533   1.9833   2.0636
     2.4274   2.5454   2.6896   2.8686   3.1328   3.7222   4.1740   4.6384
     5.6397   5.8303

          k = 0.1667 0.4811 0.2129 (  1975 PWs)   bands (ev):

   -10.3026 -10.1840   1.0896   1.1815   1.5839   1.7226   1.8839   1.9281
     2.5043   2.5717   2.7015   2.8192   3.2773   3.6157   4.5086   5.1537
     5.4029   5.9200

          k = 0.1667 0.4811-0.3193 (  1972 PWs)   bands (ev):

   -10.2408 -10.2408   1.0601   1.0601   1.6632   1.6632   1.8543   1.8543
     2.5576   2.5576   2.7509   2.7509   3.4497   3.4497   4.9318   4.9318
     5.7304   5.7304

          k = 0.3333 0.5774 0.0000 (  1965 PWs)   bands (ev):

   -10.2021 -10.2021   1.2996   1.6375   1.6375   2.1165   2.2521   2.2521
     2.3717   2.5027   2.5600   2.5600   3.1587   3.4440   3.4440   5.0363
     5.0363   5.2969

          k = 0.3333 0.5774 0.1064 (  1983 PWs)   bands (ev):

   -10.1991 -10.1991   1.3279   1.5402   1.5402   1.9859   2.1383   2.1383
     2.3891   2.4953   2.7029   2.7029   3.3545   3.3993   3.3993   5.1605
     5.2304   5.2304

          k = 0.3333 0.5774 0.2129 (  1971 PWs)   bands (ev):

   -10.1930 -10.1930   1.3483   1.3483   1.4138   1.7589   2.0500   2.0500
     2.4166   2.4750   2.8645   2.8645   3.3233   3.3233   3.7906   4.7962
     5.5973   5.5973

          k = 0.3333 0.5774-0.3193 (  1968 PWs)   bands (ev):

   -10.1899 -10.1899   1.2583   1.2583   1.5588   1.5588   2.0263   2.0263
     2.4467   2.4467   2.9283   2.9283   3.2864   3.2864   4.3048   4.3048
     5.7745   5.7745

     highest occupied level (ev):     6.8673

!    total energy              =    -361.63538768 Ry
     estimated scf accuracy    <          6.9E-09 Ry

     The total energy is the sum of the following terms:
     one-electron contribution =    -154.65034111 Ry
     hartree contribution      =     118.36480058 Ry
     xc contribution           =    -109.54916594 Ry
     ewald contribution        =    -215.80068121 Ry

     convergence has been achieved in  18 iterations

     Forces acting on atoms (cartesian axes, Ry/au):

     atom    1 type  1   force =     0.00000000    0.00000000   -0.01044215
     atom    2 type  1   force =     0.00000000   -0.00000000   -0.01044215
     atom    3 type  2   force =     0.00000000    0.00000000    0.01044215
     atom    4 type  2   force =     0.00000000    0.00000000    0.01044215
     The non-local contrib.  to forces
     atom    1 type  1   force =     0.00000000    0.00000000   -0.09239810
     atom    2 type  1   force =     0.00000000    0.00000000   -0.09239810
     atom    3 type  2   force =    -0.00000000   -0.00000000   -0.06698854
     atom    4 type  2   force =     0.00000000   -0.00000000   -0.06698854
     The ionic contribution  to forces
     atom    1 type  1   force =    -0.00000000    0.00000000   -0.56479823
     atom    2 type  1   force =     0.00000000   -0.00000000   -0.56479823
     atom    3 type  2   force =    -0.00000000    0.00000000    0.56479823
     atom    4 type  2   force =     0.00000000   -0.00000000    0.56479823
     The local contribution  to forces
     atom    1 type  1   force =    -0.00000002    0.00000001    0.63986393
     atom    2 type  1   force =     0.00000006   -0.00000004    0.63986393
     atom    3 type  2   force =    -0.00000001    0.00000000   -0.48785369
     atom    4 type  2   force =     0.00000002   -0.00000001   -0.48785369
     The core correction contribution to forces
     atom    1 type  1   force =    -0.00000000    0.00000000    0.00692530
     atom    2 type  1   force =     0.00000001   -0.00000000    0.00692530
     atom    3 type  2   force =     0.00000000   -0.00000000    0.00049504
     atom    4 type  2   force =    -0.00000000    0.00000000    0.00049504
     The Hubbard contrib.    to forces
     atom    1 type  1   force =     0.00000000    0.00000000    0.00000000
     atom    2 type  1   force =     0.00000000    0.00000000    0.00000000
     atom    3 type  2   force =     0.00000000    0.00000000    0.00000000
     atom    4 type  2   force =     0.00000000    0.00000000    0.00000000
     The SCF correction term to forces
     atom    1 type  1   force =     0.00000000   -0.00000000   -0.00006412
     atom    2 type  1   force =    -0.00000000    0.00000000   -0.00006412
     atom    3 type  2   force =     0.00000000   -0.00000000   -0.00003796
     atom    4 type  2   force =    -0.00000000    0.00000000   -0.00003796

     Total force =     0.020884     Total SCF correction =     0.000105


     Computing stress (Cartesian axis) and pressure

          total   stress  (Ry/bohr**3)                   (kbar)     P=        1.14
  -0.00014123   0.00000000   0.00000000          -20.78        0.00        0.00
   0.00000000  -0.00014123   0.00000000            0.00      -20.78        0.00
   0.00000000   0.00000000   0.00030564            0.00        0.00       44.96


     Writing all to output data dir ./ZnO_ANN.save/

     init_run     :      1.87s CPU      1.25s WALL (       1 calls)
     electrons    :     64.21s CPU     24.09s WALL (       1 calls)
     forces       :      0.74s CPU      0.35s WALL (       1 calls)
     stress       :      2.33s CPU      1.15s WALL (       1 calls)

     Called by init_run:
     wfcinit      :      1.02s CPU      0.39s WALL (       1 calls)
     potinit      :      0.27s CPU      0.27s WALL (       1 calls)
     hinit0       :      0.46s CPU      0.47s WALL (       1 calls)

     Called by electrons:
     c_bands      :     53.39s CPU     19.76s WALL (      18 calls)
     sum_band     :      8.01s CPU      3.18s WALL (      18 calls)
     v_of_rho     :      0.59s CPU      0.27s WALL (      19 calls)
     newd         :      2.10s CPU      0.87s WALL (      19 calls)
     mix_rho      :      0.10s CPU      0.04s WALL (      18 calls)

     Called by c_bands:
     init_us_2    :      0.75s CPU      0.27s WALL (    1092 calls)
     init_us_2:cp :      0.73s CPU      0.27s WALL (    1092 calls)
     cegterg      :     51.75s CPU     19.13s WALL (     504 calls)

     Called by *egterg:
     cdiaghg      :      8.53s CPU      2.80s WALL (    2893 calls)
     h_psi        :     35.67s CPU     14.45s WALL (    2921 calls)
     s_psi        :      0.79s CPU      0.24s WALL (    2921 calls)
     g_psi        :      0.26s CPU      0.07s WALL (    2389 calls)

     Called by h_psi:
     h_psi:calbec :      1.22s CPU      0.45s WALL (    2921 calls)
     vloc_psi     :     33.36s CPU     13.65s WALL (    2921 calls)
     add_vuspsi   :      0.79s CPU      0.26s WALL (    2921 calls)

     General routines
     calbec       :      1.60s CPU      0.58s WALL (    3565 calls)
     fft          :      0.57s CPU      0.38s WALL (     270 calls)
     ffts         :      0.15s CPU      0.14s WALL (      37 calls)
     fftw         :     33.40s CPU     13.72s WALL (   76678 calls)
     interpolate  :      0.17s CPU      0.15s WALL (      19 calls)

     Parallel routines

     PWSCF        :   1m 9.71s CPU     27.30s WALL


   This run was terminated on:  17:27:34  13Jun2025            

=------------------------------------------------------------------------------=
   JOB DONE.
=------------------------------------------------------------------------------=
Note: The following floating-point exceptions are signalling: IEEE_INVALID_FLAG
