Authorization required, but no authorization protocol specified

Authorization required, but no authorization protocol specified

Authorization required, but no authorization protocol specified

Authorization required, but no authorization protocol specified

Authorization required, but no authorization protocol specified

Authorization required, but no authorization protocol specified

Authorization required, but no authorization protocol specified

Authorization required, but no authorization protocol specified

Authorization required, but no authorization protocol specified

Authorization required, but no authorization protocol specified


     Program PWSCF v.7.2 starts on 13Jun2025 at 16:49:16 

     This program is part of the open-source Quantum ESPRESSO suite
     for quantum simulation of materials; please cite
         "P. Giannozzi et al., J. Phys.:Condens. Matter 21 395502 (2009);
         "P. Giannozzi et al., J. Phys.:Condens. Matter 29 465901 (2017);
         "P. Giannozzi et al., J. Chem. Phys. 152 154105 (2020);
          URL http://www.quantum-espresso.org", 
     in publications or presentations arising from this work. More details at
     http://www.quantum-espresso.org/quote

     Parallel version (MPI), running on     8 processors

     MPI processes distributed on     1 nodes
     120709 MiB available memory on the printing compute node when the environment starts

     Reading input from /home/jvc/QEspresso7.2/ZnO_database_python/SCFs.in/scf-6.06-1.73.in

     Current dimensions of program PWSCF are:
     Max number of different atomic species (ntypx) = 10
     Max number of k-points (npk) =  40000
     Max angular momentum in pseudopotentials (lmaxx) =  4
     file Zn.upf: wavefunction(s)  3D renormalized

     R & G space division:  proc/nbgrp/npool/nimage =       8
     Subspace diagonalization in iterative solution of the eigenvalue problem:
     a serial algorithm will be used


     Parallelization info
     --------------------
     sticks:   dense  smooth     PW     G-vecs:    dense   smooth      PW
     Min         126      63     18                 5610     1978     326
     Max         127      65     19                 5613     1983     333
     Sum        1015     511    151                44893    15845    2649

     Using Slab Decomposition



     bravais-lattice index     =            4
     lattice parameter (alat)  =       6.0552  a.u.
     unit-cell volume          =     332.1311 (a.u.)^3
     number of atoms/cell      =            4
     number of atomic types    =            2
     number of electrons       =        36.00
     number of Kohn-Sham states=           18
     kinetic-energy cutoff     =      50.0000  Ry
     charge density cutoff     =     400.0000  Ry
     scf convergence threshold =      1.0E-08
     mixing beta               =       0.3000
     number of iterations used =            8  plain     mixing
     Exchange-correlation= PBE
                           (   1   4   3   4   0   0   0)

     celldm(1)=   6.055245  celldm(2)=   0.000000  celldm(3)=   1.727363
     celldm(4)=   0.000000  celldm(5)=   0.000000  celldm(6)=   0.000000

     crystal axes: (cart. coord. in units of alat)
               a(1) = (   1.000000   0.000000   0.000000 )  
               a(2) = (  -0.500000   0.866025   0.000000 )  
               a(3) = (   0.000000   0.000000   1.727363 )  

     reciprocal axes: (cart. coord. in units 2 pi/alat)
               b(1) = (  1.000000  0.577350 -0.000000 )  
               b(2) = (  0.000000  1.154701  0.000000 )  
               b(3) = (  0.000000 -0.000000  0.578917 )  


     PseudoPot. # 1 for Zn read from file:
     /home/jvc/QEspresso7.2/ZnO_database/pseudos/Zn.upf
     MD5 check sum: 7f56cabf9682ed8c977c2f7d0c5985c5
     Pseudo is Ultrasoft + core correction, Zval = 12.0
     Generated using &quot;atomic&quot; code by A. Dal Corso  v.6.2.2
     Using radial grid of 1201 points,  6 beta functions with: 
                l(1) =   0
                l(2) =   0
                l(3) =   1
                l(4) =   1
                l(5) =   2
                l(6) =   2
     Q(r) pseudized with 0 coefficients 


     PseudoPot. # 2 for O  read from file:
     /home/jvc/QEspresso7.2/ZnO_database/pseudos/O.upf
     MD5 check sum: 91400c9766925bcf19f520983a725ff0
     Pseudo is Ultrasoft + core correction, Zval =  6.0
     Generated using &quot;atomic&quot; code by A. Dal Corso  v.6.3MaX
     Using radial grid of 1095 points,  4 beta functions with: 
                l(1) =   0
                l(2) =   0
                l(3) =   1
                l(4) =   1
     Q(r) pseudized with 0 coefficients 


     atomic species   valence    mass     pseudopotential
        Zn            12.00    63.38000     Zn( 1.00)
        O              6.00    15.99900     O ( 1.00)

     12 Sym. Ops. (no inversion) found ( 6 have fractional translation)



   Cartesian axes

     site n.     atom                  positions (alat units)
         1           Zn  tau(   1) = (   0.5000000   0.2886751   0.8647762  )
         2           Zn  tau(   2) = (  -0.0000000   0.5773503   0.0010944  )
         3           O   tau(   3) = (   0.5000000   0.2886751   1.5195209  )
         4           O   tau(   4) = (  -0.0000000   0.5773503   0.6558392  )

     number of k points=    28
                       cart. coord. in units 2pi/alat
        k(    1) = (   0.0000000   0.0000000   0.0000000), wk =   0.0092593
        k(    2) = (   0.0000000   0.0000000   0.0964862), wk =   0.0185185
        k(    3) = (   0.0000000   0.0000000   0.1929723), wk =   0.0185185
        k(    4) = (   0.0000000   0.0000000  -0.2894585), wk =   0.0092593
        k(    5) = (   0.0000000   0.1924501   0.0000000), wk =   0.0555556
        k(    6) = (   0.0000000   0.1924501   0.0964862), wk =   0.1111111
        k(    7) = (   0.0000000   0.1924501   0.1929723), wk =   0.1111111
        k(    8) = (   0.0000000   0.1924501  -0.2894585), wk =   0.0555556
        k(    9) = (   0.0000000   0.3849002   0.0000000), wk =   0.0555556
        k(   10) = (   0.0000000   0.3849002   0.0964862), wk =   0.1111111
        k(   11) = (   0.0000000   0.3849002   0.1929723), wk =   0.1111111
        k(   12) = (   0.0000000   0.3849002  -0.2894585), wk =   0.0555556
        k(   13) = (   0.0000000  -0.5773503   0.0000000), wk =   0.0277778
        k(   14) = (   0.0000000  -0.5773503   0.0964862), wk =   0.0555556
        k(   15) = (   0.0000000  -0.5773503   0.1929723), wk =   0.0555556
        k(   16) = (   0.0000000  -0.5773503  -0.2894585), wk =   0.0277778
        k(   17) = (   0.1666667   0.2886751   0.0000000), wk =   0.0555556
        k(   18) = (   0.1666667   0.2886751   0.0964862), wk =   0.1111111
        k(   19) = (   0.1666667   0.2886751   0.1929723), wk =   0.1111111
        k(   20) = (   0.1666667   0.2886751  -0.2894585), wk =   0.0555556
        k(   21) = (   0.1666667   0.4811252   0.0000000), wk =   0.1111111
        k(   22) = (   0.1666667   0.4811252   0.0964862), wk =   0.2222222
        k(   23) = (   0.1666667   0.4811252   0.1929723), wk =   0.2222222
        k(   24) = (   0.1666667   0.4811252  -0.2894585), wk =   0.1111111
        k(   25) = (   0.3333333   0.5773503   0.0000000), wk =   0.0185185
        k(   26) = (   0.3333333   0.5773503   0.0964862), wk =   0.0370370
        k(   27) = (   0.3333333   0.5773503   0.1929723), wk =   0.0370370
        k(   28) = (   0.3333333   0.5773503  -0.2894585), wk =   0.0185185

     Dense  grid:    44893 G-vectors     FFT dimensions: (  40,  40,  72)

     Smooth grid:    15845 G-vectors     FFT dimensions: (  27,  27,  48)

     Estimated max dynamical RAM per process >      26.06 MB

     Estimated total dynamical RAM >     208.44 MB

     Check: negative core charge=   -0.000002

     Initial potential from superposition of free atoms

     starting charge      35.9925, renormalised to      36.0000
     Starting wfcs are   26 randomized atomic wfcs

     total cpu time spent up to now is        1.6 secs

     Self-consistent Calculation

     iteration #  1     ecut=    50.00 Ry     beta= 0.30
     Davidson diagonalization with overlap
     ethr =  1.00E-02,  avg # of iterations =  1.8

     total cpu time spent up to now is        2.4 secs

     total energy              =    -361.47125781 Ry
     estimated scf accuracy    <       0.69740032 Ry

     iteration #  2     ecut=    50.00 Ry     beta= 0.30
     Davidson diagonalization with overlap
     ethr =  1.94E-03,  avg # of iterations =  2.0

     total cpu time spent up to now is        3.4 secs

     total energy              =    -361.57268552 Ry
     estimated scf accuracy    <       0.08787554 Ry

     iteration #  3     ecut=    50.00 Ry     beta= 0.30
     Davidson diagonalization with overlap
     ethr =  2.44E-04,  avg # of iterations =  6.2

     total cpu time spent up to now is        5.0 secs

     total energy              =    -361.60444915 Ry
     estimated scf accuracy    <       0.05653004 Ry

     iteration #  4     ecut=    50.00 Ry     beta= 0.30
     Davidson diagonalization with overlap
     ethr =  1.57E-04,  avg # of iterations =  7.6

     total cpu time spent up to now is        6.9 secs

     total energy              =    -361.63360253 Ry
     estimated scf accuracy    <       0.17638218 Ry

     iteration #  5     ecut=    50.00 Ry     beta= 0.30
     Davidson diagonalization with overlap
     ethr =  1.57E-04,  avg # of iterations =  2.0

     total cpu time spent up to now is        7.7 secs

     total energy              =    -361.56048314 Ry
     estimated scf accuracy    <       0.09224993 Ry

     iteration #  6     ecut=    50.00 Ry     beta= 0.30
     Davidson diagonalization with overlap
     ethr =  1.57E-04,  avg # of iterations =  9.6

     total cpu time spent up to now is        9.8 secs

     total energy              =    -361.58817218 Ry
     estimated scf accuracy    <       0.56324416 Ry

     iteration #  7     ecut=    50.00 Ry     beta= 0.30
     Davidson diagonalization with overlap
     ethr =  1.57E-04,  avg # of iterations =  5.9

     total cpu time spent up to now is       11.4 secs

     total energy              =    -361.62602256 Ry
     estimated scf accuracy    <       0.05327490 Ry

     iteration #  8     ecut=    50.00 Ry     beta= 0.30
     Davidson diagonalization with overlap
     ethr =  1.48E-04,  avg # of iterations =  1.6

     total cpu time spent up to now is       12.2 secs

     total energy              =    -361.62932142 Ry
     estimated scf accuracy    <       0.02483091 Ry

     iteration #  9     ecut=    50.00 Ry     beta= 0.30
     Davidson diagonalization with overlap
     ethr =  6.90E-05,  avg # of iterations =  1.8

     total cpu time spent up to now is       13.0 secs

     total energy              =    -361.62504827 Ry
     estimated scf accuracy    <       0.02133534 Ry

     iteration # 10     ecut=    50.00 Ry     beta= 0.30
     Davidson diagonalization with overlap
     ethr =  5.93E-05,  avg # of iterations =  2.8

     total cpu time spent up to now is       13.9 secs

     total energy              =    -361.62571926 Ry
     estimated scf accuracy    <       0.00582889 Ry

     iteration # 11     ecut=    50.00 Ry     beta= 0.30
     Davidson diagonalization with overlap
     ethr =  1.62E-05,  avg # of iterations =  6.5

     total cpu time spent up to now is       15.4 secs

     total energy              =    -361.63059876 Ry
     estimated scf accuracy    <       0.00112209 Ry

     iteration # 12     ecut=    50.00 Ry     beta= 0.30
     Davidson diagonalization with overlap
     ethr =  3.12E-06,  avg # of iterations =  2.7

     total cpu time spent up to now is       16.3 secs

     total energy              =    -361.63059482 Ry
     estimated scf accuracy    <       0.00148756 Ry

     iteration # 13     ecut=    50.00 Ry     beta= 0.30
     Davidson diagonalization with overlap
     ethr =  3.12E-06,  avg # of iterations =  1.2

     total cpu time spent up to now is       17.1 secs

     total energy              =    -361.63020504 Ry
     estimated scf accuracy    <       0.00132084 Ry

     iteration # 14     ecut=    50.00 Ry     beta= 0.30
     Davidson diagonalization with overlap
     ethr =  3.12E-06,  avg # of iterations =  1.2

     total cpu time spent up to now is       17.9 secs

     total energy              =    -361.63000673 Ry
     estimated scf accuracy    <       0.00052455 Ry

     iteration # 15     ecut=    50.00 Ry     beta= 0.30
     Davidson diagonalization with overlap
     ethr =  1.46E-06,  avg # of iterations =  4.4

     total cpu time spent up to now is       19.1 secs

     total energy              =    -361.63028045 Ry
     estimated scf accuracy    <       0.00005541 Ry

     iteration # 16     ecut=    50.00 Ry     beta= 0.30
     Davidson diagonalization with overlap
     ethr =  1.54E-07,  avg # of iterations =  4.8

     total cpu time spent up to now is       20.3 secs

     total energy              =    -361.63040952 Ry
     estimated scf accuracy    <       0.00008936 Ry

     iteration # 17     ecut=    50.00 Ry     beta= 0.30
     Davidson diagonalization with overlap
     ethr =  1.54E-07,  avg # of iterations =  7.0

     total cpu time spent up to now is       22.0 secs

     total energy              =    -361.63003337 Ry
     estimated scf accuracy    <       0.00071905 Ry

     iteration # 18     ecut=    50.00 Ry     beta= 0.30
     Davidson diagonalization with overlap
     ethr =  1.54E-07,  avg # of iterations = 10.0

     total cpu time spent up to now is       24.3 secs

     total energy              =    -361.63031366 Ry
     estimated scf accuracy    <       0.00020972 Ry

     iteration # 19     ecut=    50.00 Ry     beta= 0.30
     Davidson diagonalization with overlap
     ethr =  1.54E-07,  avg # of iterations =  1.4

     total cpu time spent up to now is       25.1 secs

     total energy              =    -361.63031238 Ry
     estimated scf accuracy    <       0.00016700 Ry

     iteration # 20     ecut=    50.00 Ry     beta= 0.30
     Davidson diagonalization with overlap
     ethr =  1.54E-07,  avg # of iterations =  1.0

     total cpu time spent up to now is       25.8 secs

     total energy              =    -361.63027537 Ry
     estimated scf accuracy    <       0.00015985 Ry

     iteration # 21     ecut=    50.00 Ry     beta= 0.30
     Davidson diagonalization with overlap
     ethr =  1.54E-07,  avg # of iterations =  2.0

     total cpu time spent up to now is       26.7 secs

     total energy              =    -361.63025999 Ry
     estimated scf accuracy    <       0.00008505 Ry

     iteration # 22     ecut=    50.00 Ry     beta= 0.30
     Davidson diagonalization with overlap
     ethr =  1.54E-07,  avg # of iterations =  4.0

     total cpu time spent up to now is       27.8 secs

     total energy              =    -361.63027896 Ry
     estimated scf accuracy    <       0.00000786 Ry

     iteration # 23     ecut=    50.00 Ry     beta= 0.30
     Davidson diagonalization with overlap
     ethr =  2.18E-08,  avg # of iterations =  3.8

     total cpu time spent up to now is       28.8 secs

     total energy              =    -361.63028869 Ry
     estimated scf accuracy    <       0.00000861 Ry

     iteration # 24     ecut=    50.00 Ry     beta= 0.30
     Davidson diagonalization with overlap
     ethr =  2.18E-08,  avg # of iterations =  4.9

     total cpu time spent up to now is       30.1 secs

     total energy              =    -361.63028522 Ry
     estimated scf accuracy    <       0.00004245 Ry

     iteration # 25     ecut=    50.00 Ry     beta= 0.30
     Davidson diagonalization with overlap
     ethr =  2.18E-08,  avg # of iterations =  1.0

     total cpu time spent up to now is       30.8 secs

     total energy              =    -361.63028348 Ry
     estimated scf accuracy    <       0.00003134 Ry

     iteration # 26     ecut=    50.00 Ry     beta= 0.30
     Davidson diagonalization with overlap
     ethr =  2.18E-08,  avg # of iterations =  1.8

     total cpu time spent up to now is       31.7 secs

     total energy              =    -361.63028194 Ry
     estimated scf accuracy    <       0.00002503 Ry

     iteration # 27     ecut=    50.00 Ry     beta= 0.30
     Davidson diagonalization with overlap
     ethr =  2.18E-08,  avg # of iterations =  1.7

     total cpu time spent up to now is       32.5 secs

     total energy              =    -361.63028547 Ry
     estimated scf accuracy    <       0.00001872 Ry

     iteration # 28     ecut=    50.00 Ry     beta= 0.30
     Davidson diagonalization with overlap
     ethr =  2.18E-08,  avg # of iterations =  1.0

     total cpu time spent up to now is       33.2 secs

     total energy              =    -361.63028862 Ry
     estimated scf accuracy    <       0.00002455 Ry

     iteration # 29     ecut=    50.00 Ry     beta= 0.30
     Davidson diagonalization with overlap
     ethr =  2.18E-08,  avg # of iterations =  1.0

     total cpu time spent up to now is       34.0 secs

     total energy              =    -361.63028350 Ry
     estimated scf accuracy    <       0.00003234 Ry

     iteration # 30     ecut=    50.00 Ry     beta= 0.30
     Davidson diagonalization with overlap
     ethr =  2.18E-08,  avg # of iterations =  1.0

     total cpu time spent up to now is       34.8 secs

     total energy              =    -361.63026944 Ry
     estimated scf accuracy    <       0.00002327 Ry

     iteration # 31     ecut=    50.00 Ry     beta= 0.30
     Davidson diagonalization with overlap
     ethr =  2.18E-08,  avg # of iterations =  7.9

     total cpu time spent up to now is       36.6 secs

     total energy              =    -361.63027708 Ry
     estimated scf accuracy    <       0.00000941 Ry

     iteration # 32     ecut=    50.00 Ry     beta= 0.30
     Davidson diagonalization with overlap
     ethr =  2.18E-08,  avg # of iterations =  2.4

     total cpu time spent up to now is       37.5 secs

     total energy              =    -361.63027782 Ry
     estimated scf accuracy    <       0.00000143 Ry

     iteration # 33     ecut=    50.00 Ry     beta= 0.30
     Davidson diagonalization with overlap
     ethr =  3.96E-09,  avg # of iterations =  6.1

     total cpu time spent up to now is       39.0 secs

     total energy              =    -361.63027908 Ry
     estimated scf accuracy    <       0.00000030 Ry

     iteration # 34     ecut=    50.00 Ry     beta= 0.30
     Davidson diagonalization with overlap
     ethr =  8.34E-10,  avg # of iterations =  2.2

     total cpu time spent up to now is       39.9 secs

     total energy              =    -361.63027904 Ry
     estimated scf accuracy    <       0.00000010 Ry

     iteration # 35     ecut=    50.00 Ry     beta= 0.30
     Davidson diagonalization with overlap
     ethr =  2.77E-10,  avg # of iterations =  7.1

     total cpu time spent up to now is       41.6 secs

     total energy              =    -361.63027907 Ry
     estimated scf accuracy    <       0.00000018 Ry

     iteration # 36     ecut=    50.00 Ry     beta= 0.30
     Davidson diagonalization with overlap
     ethr =  2.77E-10,  avg # of iterations =  5.0

     total cpu time spent up to now is       43.0 secs

     total energy              =    -361.63027912 Ry
     estimated scf accuracy    <       0.00000001 Ry

     iteration # 37     ecut=    50.00 Ry     beta= 0.30
     Davidson diagonalization with overlap
     ethr =  3.14E-11,  avg # of iterations =  4.2

     total cpu time spent up to now is       44.2 secs

     End of self-consistent calculation

          k = 0.0000 0.0000 0.0000 (  1979 PWs)   bands (ev):

   -11.0647 -10.4950   1.1933   1.1933   1.2377   1.2600   1.3422   1.3422
     2.3474   2.3474   2.4997   2.4997   2.8463   6.2523   6.2523   6.5847
     6.8573   6.8573

          k = 0.0000 0.0000 0.0965 (  1991 PWs)   bands (ev):

   -11.0285 -10.5353   1.1737   1.2002   1.2002   1.2262   1.3290   1.3290
     2.3600   2.3600   2.4916   2.4916   3.0865   6.0193   6.2931   6.2931
     6.8170   6.8170

          k = 0.0000 0.0000 0.1930 (  1956 PWs)   bands (ev):

   -10.9284 -10.6438   1.0896   1.1479   1.2218   1.2218   1.2959   1.2959
     2.3932   2.3932   2.4692   2.4692   3.6679   5.2079   6.4045   6.4045
     6.7070   6.7070

          k = 0.0000 0.0000-0.2895 (  1980 PWs)   bands (ev):

   -10.7882 -10.7882   1.0832   1.0832   1.2558   1.2558   1.2558   1.2558
     2.4335   2.4335   2.4335   2.4335   4.4070   4.4070   6.5560   6.5560
     6.5560   6.5560

          k = 0.0000 0.1925 0.0000 (  1980 PWs)   bands (ev):

   -10.9172 -10.4145   1.0496   1.2802   1.2911   1.3848   1.4626   1.4769
     2.2850   2.3442   2.5065   2.6096   2.8211   5.2771   5.7195   5.9225
     6.4511   6.6520

          k = 0.0000 0.1925 0.0965 (  1971 PWs)   bands (ev):

   -10.8848 -10.4495   1.0326   1.2123   1.2897   1.3666   1.4472   1.4496
     2.3072   2.3567   2.4970   2.5477   3.1339   5.2859   5.5921   5.9723
     6.3537   6.6038

          k = 0.0000 0.1925 0.1930 (  1971 PWs)   bands (ev):

   -10.7954 -10.5442   0.9964   1.0673   1.3173   1.3584   1.4078   1.4106
     2.3610   2.3893   2.4703   2.4892   3.7459   5.0032   5.5944   6.1074
     6.1112   6.4718

          k = 0.0000 0.1925-0.2895 (  1984 PWs)   bands (ev):

   -10.6711 -10.6711   0.9916   0.9916   1.3596   1.3596   1.3758   1.3758
     2.4267   2.4267   2.4310   2.4310   4.4182   4.4182   5.8251   5.8251
     6.2903   6.2903

          k = 0.0000 0.3849 0.0000 (  1984 PWs)   bands (ev):

   -10.5907 -10.2668   0.9072   1.2280   1.4246   1.6725   1.7408   1.9129
     2.2319   2.4136   2.5285   2.7277   3.0006   3.7019   4.5638   5.2414
     5.9591   6.2104

          k = 0.0000 0.3849 0.0965 (  1984 PWs)   bands (ev):

   -10.5688 -10.2882   0.8916   1.1595   1.4424   1.6566   1.7156   1.8168
     2.2676   2.4204   2.5191   2.6440   3.2568   3.7976   4.5463   5.3100
     5.9287   6.1477

          k = 0.0000 0.3849 0.1930 (  1982 PWs)   bands (ev):

   -10.5091 -10.3470   0.8695   1.0094   1.4933   1.6353   1.6502   1.7034
     2.3522   2.4393   2.4954   2.5505   3.5652   3.9119   4.7442   5.4935
     5.7298   5.9754

          k = 0.0000 0.3849-0.2895 (  1984 PWs)   bands (ev):

   -10.4278 -10.4278   0.8971   0.8971   1.5681   1.5681   1.6470   1.6470
     2.4526   2.4526   2.4662   2.4662   3.7858   3.7858   5.2757   5.2757
     5.7372   5.7372

          k = 0.0000-0.5774 0.0000 (  1978 PWs)   bands (ev):

   -10.3909 -10.2194   1.0039   1.1451   1.4732   1.8708   1.9010   1.9926
     2.3770   2.5058   2.5569   2.6386   3.0060   3.2375   4.1100   4.8657
     5.5046   5.9699

          k = 0.0000-0.5774 0.0965 (  1984 PWs)   bands (ev):

   -10.3784 -10.2299   0.9735   1.0841   1.4970   1.8627   1.8661   1.9469
     2.4283   2.5075   2.5497   2.6364   2.9899   3.1942   4.3308   4.9468
     5.5506   5.8999

          k = 0.0000-0.5774 0.1930 (  1996 PWs)   bands (ev):

   -10.3451 -10.2593   0.9154   0.9666   1.5643   1.7762   1.8503   1.8849
     2.5127   2.5158   2.5352   2.6230   2.9849   3.1037   4.8233   5.1604
     5.5512   5.7071

          k = 0.0000-0.5774-0.2895 (  1984 PWs)   bands (ev):

   -10.3012 -10.3012   0.8990   0.8990   1.6649   1.6649   1.8536   1.8536
     2.5220   2.5220   2.5855   2.5855   3.0240   3.0240   5.3027   5.3027
     5.4387   5.4387

          k = 0.1667 0.2887 0.0000 (  1983 PWs)   bands (ev):

   -10.6789 -10.3005   1.0195   1.2153   1.4387   1.4454   1.6936   1.8167
     2.2277   2.3644   2.5194   2.7371   2.9350   4.4166   4.6065   5.2679
     6.1570   6.1571

          k = 0.1667 0.2887 0.0965 (  1984 PWs)   bands (ev):

   -10.6538 -10.3260   0.9981   1.1738   1.4277   1.4328   1.6753   1.7174
     2.2618   2.3857   2.5099   2.6364   3.2662   4.5154   4.5604   5.2910
     6.0906   6.0987

          k = 0.1667 0.2887 0.1930 (  1975 PWs)   bands (ev):

   -10.5849 -10.3956   0.9598   1.0546   1.4187   1.4274   1.6192   1.6320
     2.3451   2.4176   2.4857   2.5442   3.7596   4.4013   4.8354   5.4038
     5.8597   5.9131

          k = 0.1667 0.2887-0.2895 (  1988 PWs)   bands (ev):

   -10.4904 -10.4904   0.9651   0.9651   1.4264   1.4264   1.5983   1.5983
     2.4376   2.4376   2.4609   2.4609   4.1386   4.1386   5.3185   5.3185
     5.6985   5.6985

          k = 0.1667 0.4811 0.0000 (  1977 PWs)   bands (ev):

   -10.3984 -10.2164   1.0985   1.3264   1.4833   1.7637   1.9077   1.9748
     2.2870   2.3920   2.5792   2.7962   2.9746   3.5553   4.0926   4.4196
     5.4758   5.6833

          k = 0.1667 0.4811 0.0965 (  1982 PWs)   bands (ev):

   -10.3853 -10.2276   1.0821   1.2660   1.4819   1.7446   1.8678   1.9031
     2.3072   2.4413   2.5785   2.7717   3.0181   3.5582   4.2113   4.5515
     5.4468   5.6692

          k = 0.1667 0.4811 0.1930 (  1990 PWs)   bands (ev):

   -10.3501 -10.2590   1.0464   1.1386   1.5051   1.6765   1.7991   1.8326
     2.3854   2.4709   2.5861   2.6978   3.1497   3.4647   4.5217   4.8911
     5.2812   5.6336

          k = 0.1667 0.4811-0.2895 (  1984 PWs)   bands (ev):

   -10.3036 -10.3036   1.0503   1.0503   1.5782   1.5782   1.7951   1.7951
     2.4529   2.4529   2.6238   2.6238   3.3110   3.3110   4.8568   4.8568
     5.4180   5.4180

          k = 0.3333 0.5774 0.0000 (  2019 PWs)   bands (ev):

   -10.2473 -10.2473   1.1580   1.6591   1.6591   1.7585   2.2276   2.2276
     2.2554   2.3599   2.3985   2.3985   3.2585   3.2585   3.3480   4.9572
     4.9572   4.9936

          k = 0.3333 0.5774 0.0965 (  1989 PWs)   bands (ev):

   -10.2460 -10.2460   1.1838   1.5862   1.5862   1.6880   2.1250   2.1250
     2.2688   2.3549   2.5531   2.5531   3.2179   3.2179   3.4718   4.8822
     5.0806   5.0806

          k = 0.3333 0.5774 0.1930 (  1983 PWs)   bands (ev):

   -10.2435 -10.2435   1.2598   1.4469   1.4469   1.5363   2.0568   2.0568
     2.2936   2.3404   2.7350   2.7350   3.1298   3.1298   3.7855   4.5850
     5.3216   5.3216

          k = 0.3333 0.5774-0.2895 (  1974 PWs)   bands (ev):

   -10.2422 -10.2422   1.3816   1.3816   1.3824   1.3824   2.0394   2.0394
     2.3189   2.3189   2.8233   2.8233   3.0709   3.0709   4.1880   4.1880
     5.4407   5.4407

     highest occupied level (ev):     6.8573

!    total energy              =    -361.63027912 Ry
     estimated scf accuracy    <          1.2E-09 Ry

     The total energy is the sum of the following terms:
     one-electron contribution =    -155.60488917 Ry
     hartree contribution      =     118.69801842 Ry
     xc contribution           =    -109.53529459 Ry
     ewald contribution        =    -215.18811378 Ry

     convergence has been achieved in  37 iterations

     Forces acting on atoms (cartesian axes, Ry/au):

     atom    1 type  1   force =     0.00000000    0.00000000    0.01490579
     atom    2 type  1   force =     0.00000000    0.00000000    0.01490579
     atom    3 type  2   force =     0.00000000    0.00000000   -0.01490579
     atom    4 type  2   force =     0.00000000    0.00000000   -0.01490579
     The non-local contrib.  to forces
     atom    1 type  1   force =     0.00000000    0.00000000    0.18247074
     atom    2 type  1   force =     0.00000000    0.00000000    0.18247074
     atom    3 type  2   force =     0.00000000    0.00000000    0.17406546
     atom    4 type  2   force =    -0.00000000    0.00000000    0.17406546
     The ionic contribution  to forces
     atom    1 type  1   force =    -0.00000000    0.00000000    1.45553123
     atom    2 type  1   force =     0.00000000   -0.00000000    1.45553123
     atom    3 type  2   force =    -0.00000000    0.00000000   -1.45553123
     atom    4 type  2   force =     0.00000000   -0.00000000   -1.45553123
     The local contribution  to forces
     atom    1 type  1   force =    -0.00000002    0.00000001   -1.61012267
     atom    2 type  1   force =     0.00000006   -0.00000004   -1.61012267
     atom    3 type  2   force =    -0.00000001    0.00000000    1.26798197
     atom    4 type  2   force =     0.00000002   -0.00000001    1.26798198
     The core correction contribution to forces
     atom    1 type  1   force =    -0.00000000    0.00000000   -0.01296697
     atom    2 type  1   force =     0.00000001   -0.00000000   -0.01296697
     atom    3 type  2   force =     0.00000000   -0.00000000   -0.00142144
     atom    4 type  2   force =    -0.00000000    0.00000000   -0.00142144
     The Hubbard contrib.    to forces
     atom    1 type  1   force =     0.00000000    0.00000000    0.00000000
     atom    2 type  1   force =     0.00000000    0.00000000    0.00000000
     atom    3 type  2   force =     0.00000000    0.00000000    0.00000000
     atom    4 type  2   force =     0.00000000    0.00000000    0.00000000
     The SCF correction term to forces
     atom    1 type  1   force =    -0.00000000    0.00000000   -0.00000821
     atom    2 type  1   force =     0.00000000   -0.00000000   -0.00000821
     atom    3 type  2   force =    -0.00000000    0.00000000   -0.00000222
     atom    4 type  2   force =     0.00000000   -0.00000000   -0.00000222

     Total force =     0.029812     Total SCF correction =     0.000012


     Computing stress (Cartesian axis) and pressure

          total   stress  (Ry/bohr**3)                   (kbar)     P=       -1.38
   0.00028167   0.00000000   0.00000000           41.43        0.00        0.00
   0.00000000   0.00028167   0.00000000            0.00       41.43        0.00
   0.00000000   0.00000000  -0.00059153            0.00        0.00      -87.02


     Writing all to output data dir ./ZnO_ANN.save/

     init_run     :      1.91s CPU      1.31s WALL (       1 calls)
     electrons    :    113.60s CPU     42.57s WALL (       1 calls)
     forces       :      0.67s CPU      0.33s WALL (       1 calls)
     stress       :      2.43s CPU      1.21s WALL (       1 calls)

     Called by init_run:
     wfcinit      :      0.98s CPU      0.38s WALL (       1 calls)
     potinit      :      0.23s CPU      0.23s WALL (       1 calls)
     hinit0       :      0.56s CPU      0.57s WALL (       1 calls)

     Called by electrons:
     c_bands      :     90.89s CPU     33.68s WALL (      37 calls)
     sum_band     :     16.76s CPU      6.47s WALL (      37 calls)
     v_of_rho     :      1.33s CPU      0.58s WALL (      38 calls)
     newd         :      4.30s CPU      1.72s WALL (      38 calls)
     mix_rho      :      0.25s CPU      0.11s WALL (      37 calls)

     Called by c_bands:
     init_us_2    :      1.54s CPU      0.54s WALL (    2156 calls)
     init_us_2:cp :      1.51s CPU      0.53s WALL (    2156 calls)
     cegterg      :     87.53s CPU     32.36s WALL (    1036 calls)

     Called by *egterg:
     cdiaghg      :     14.03s CPU      4.60s WALL (    4922 calls)
     h_psi        :     60.02s CPU     24.39s WALL (    4950 calls)
     s_psi        :      1.42s CPU      0.41s WALL (    4950 calls)
     g_psi        :      0.45s CPU      0.12s WALL (    3886 calls)

     Called by h_psi:
     h_psi:calbec :      2.11s CPU      0.77s WALL (    4950 calls)
     vloc_psi     :     55.94s CPU     23.00s WALL (    4950 calls)
     add_vuspsi   :      1.43s CPU      0.46s WALL (    4950 calls)

     General routines
     calbec       :      2.81s CPU      0.99s WALL (    6126 calls)
     fft          :      1.04s CPU      0.60s WALL (     517 calls)
     ffts         :      0.16s CPU      0.12s WALL (      75 calls)
     fftw         :     57.03s CPU     23.48s WALL (  137174 calls)
     interpolate  :      0.18s CPU      0.13s WALL (      38 calls)

     Parallel routines

     PWSCF        :   1m59.18s CPU     45.89s WALL


   This run was terminated on:  16:50: 2  13Jun2025            

=------------------------------------------------------------------------------=
   JOB DONE.
=------------------------------------------------------------------------------=
Note: The following floating-point exceptions are signalling: IEEE_INVALID_FLAG
