Authorization required, but no authorization protocol specified

Authorization required, but no authorization protocol specified

Authorization required, but no authorization protocol specified

Authorization required, but no authorization protocol specified

Authorization required, but no authorization protocol specified

Authorization required, but no authorization protocol specified

Authorization required, but no authorization protocol specified

Authorization required, but no authorization protocol specified

Authorization required, but no authorization protocol specified

Authorization required, but no authorization protocol specified


     Program PWSCF v.7.2 starts on 13Jun2025 at 17:13: 6 

     This program is part of the open-source Quantum ESPRESSO suite
     for quantum simulation of materials; please cite
         "P. Giannozzi et al., J. Phys.:Condens. Matter 21 395502 (2009);
         "P. Giannozzi et al., J. Phys.:Condens. Matter 29 465901 (2017);
         "P. Giannozzi et al., J. Chem. Phys. 152 154105 (2020);
          URL http://www.quantum-espresso.org", 
     in publications or presentations arising from this work. More details at
     http://www.quantum-espresso.org/quote

     Parallel version (MPI), running on     8 processors

     MPI processes distributed on     1 nodes
     120710 MiB available memory on the printing compute node when the environment starts

     Reading input from /home/jvc/QEspresso7.2/ZnO_database_python/SCFs.in/scf-6.18-1.58.in

     Current dimensions of program PWSCF are:
     Max number of different atomic species (ntypx) = 10
     Max number of k-points (npk) =  40000
     Max angular momentum in pseudopotentials (lmaxx) =  4
     file Zn.upf: wavefunction(s)  3D renormalized

     R & G space division:  proc/nbgrp/npool/nimage =       8
     Subspace diagonalization in iterative solution of the eigenvalue problem:
     a serial algorithm will be used


     Parallelization info
     --------------------
     sticks:   dense  smooth     PW     G-vecs:    dense   smooth      PW
     Min         130      64     20                 5447     1916     330
     Max         131      65     21                 5449     1919     333
     Sum        1045     517    163                43587    15345    2647

     Using Slab Decomposition



     bravais-lattice index     =            4
     lattice parameter (alat)  =       6.1788  a.u.
     unit-cell volume          =     323.2017 (a.u.)^3
     number of atoms/cell      =            4
     number of atomic types    =            2
     number of electrons       =        36.00
     number of Kohn-Sham states=           18
     kinetic-energy cutoff     =      50.0000  Ry
     charge density cutoff     =     400.0000  Ry
     scf convergence threshold =      1.0E-08
     mixing beta               =       0.3000
     number of iterations used =            8  plain     mixing
     Exchange-correlation= PBE
                           (   1   4   3   4   0   0   0)

     celldm(1)=   6.178821  celldm(2)=   0.000000  celldm(3)=   1.582071
     celldm(4)=   0.000000  celldm(5)=   0.000000  celldm(6)=   0.000000

     crystal axes: (cart. coord. in units of alat)
               a(1) = (   1.000000   0.000000   0.000000 )  
               a(2) = (  -0.500000   0.866025   0.000000 )  
               a(3) = (   0.000000   0.000000   1.582071 )  

     reciprocal axes: (cart. coord. in units 2 pi/alat)
               b(1) = (  1.000000  0.577350 -0.000000 )  
               b(2) = (  0.000000  1.154701  0.000000 )  
               b(3) = (  0.000000 -0.000000  0.632083 )  


     PseudoPot. # 1 for Zn read from file:
     /home/jvc/QEspresso7.2/ZnO_database/pseudos/Zn.upf
     MD5 check sum: 7f56cabf9682ed8c977c2f7d0c5985c5
     Pseudo is Ultrasoft + core correction, Zval = 12.0
     Generated using &quot;atomic&quot; code by A. Dal Corso  v.6.2.2
     Using radial grid of 1201 points,  6 beta functions with: 
                l(1) =   0
                l(2) =   0
                l(3) =   1
                l(4) =   1
                l(5) =   2
                l(6) =   2
     Q(r) pseudized with 0 coefficients 


     PseudoPot. # 2 for O  read from file:
     /home/jvc/QEspresso7.2/ZnO_database/pseudos/O.upf
     MD5 check sum: 91400c9766925bcf19f520983a725ff0
     Pseudo is Ultrasoft + core correction, Zval =  6.0
     Generated using &quot;atomic&quot; code by A. Dal Corso  v.6.3MaX
     Using radial grid of 1095 points,  4 beta functions with: 
                l(1) =   0
                l(2) =   0
                l(3) =   1
                l(4) =   1
     Q(r) pseudized with 0 coefficients 


     atomic species   valence    mass     pseudopotential
        Zn            12.00    63.38000     Zn( 1.00)
        O              6.00    15.99900     O ( 1.00)

     12 Sym. Ops. (no inversion) found ( 6 have fractional translation)



   Cartesian axes

     site n.     atom                  positions (alat units)
         1           Zn  tau(   1) = (   0.5000000   0.2886751   0.7920380  )
         2           Zn  tau(   2) = (  -0.0000000   0.5773503   0.0010024  )
         3           O   tau(   3) = (   0.5000000   0.2886751   1.3917107  )
         4           O   tau(   4) = (  -0.0000000   0.5773503   0.6006751  )

     number of k points=    28
                       cart. coord. in units 2pi/alat
        k(    1) = (   0.0000000   0.0000000   0.0000000), wk =   0.0092593
        k(    2) = (   0.0000000   0.0000000   0.1053471), wk =   0.0185185
        k(    3) = (   0.0000000   0.0000000   0.2106943), wk =   0.0185185
        k(    4) = (   0.0000000   0.0000000  -0.3160414), wk =   0.0092593
        k(    5) = (   0.0000000   0.1924501   0.0000000), wk =   0.0555556
        k(    6) = (   0.0000000   0.1924501   0.1053471), wk =   0.1111111
        k(    7) = (   0.0000000   0.1924501   0.2106943), wk =   0.1111111
        k(    8) = (   0.0000000   0.1924501  -0.3160414), wk =   0.0555556
        k(    9) = (   0.0000000   0.3849002   0.0000000), wk =   0.0555556
        k(   10) = (   0.0000000   0.3849002   0.1053471), wk =   0.1111111
        k(   11) = (   0.0000000   0.3849002   0.2106943), wk =   0.1111111
        k(   12) = (   0.0000000   0.3849002  -0.3160414), wk =   0.0555556
        k(   13) = (   0.0000000  -0.5773503   0.0000000), wk =   0.0277778
        k(   14) = (   0.0000000  -0.5773503   0.1053471), wk =   0.0555556
        k(   15) = (   0.0000000  -0.5773503   0.2106943), wk =   0.0555556
        k(   16) = (   0.0000000  -0.5773503  -0.3160414), wk =   0.0277778
        k(   17) = (   0.1666667   0.2886751   0.0000000), wk =   0.0555556
        k(   18) = (   0.1666667   0.2886751   0.1053471), wk =   0.1111111
        k(   19) = (   0.1666667   0.2886751   0.2106943), wk =   0.1111111
        k(   20) = (   0.1666667   0.2886751  -0.3160414), wk =   0.0555556
        k(   21) = (   0.1666667   0.4811252   0.0000000), wk =   0.1111111
        k(   22) = (   0.1666667   0.4811252   0.1053471), wk =   0.2222222
        k(   23) = (   0.1666667   0.4811252   0.2106943), wk =   0.2222222
        k(   24) = (   0.1666667   0.4811252  -0.3160414), wk =   0.1111111
        k(   25) = (   0.3333333   0.5773503   0.0000000), wk =   0.0185185
        k(   26) = (   0.3333333   0.5773503   0.1053471), wk =   0.0370370
        k(   27) = (   0.3333333   0.5773503   0.2106943), wk =   0.0370370
        k(   28) = (   0.3333333   0.5773503  -0.3160414), wk =   0.0185185

     Dense  grid:    43587 G-vectors     FFT dimensions: (  40,  40,  64)

     Smooth grid:    15345 G-vectors     FFT dimensions: (  27,  27,  48)

     Estimated max dynamical RAM per process >      25.31 MB

     Estimated total dynamical RAM >     202.51 MB

     Check: negative core charge=   -0.000002

     Initial potential from superposition of free atoms

     starting charge      35.9925, renormalised to      36.0000
     Starting wfcs are   26 randomized atomic wfcs

     total cpu time spent up to now is        1.5 secs

     Self-consistent Calculation

     iteration #  1     ecut=    50.00 Ry     beta= 0.30
     Davidson diagonalization with overlap
     ethr =  1.00E-02,  avg # of iterations =  2.0

     total cpu time spent up to now is        2.3 secs

     total energy              =    -361.47915548 Ry
     estimated scf accuracy    <       0.68959739 Ry

     iteration #  2     ecut=    50.00 Ry     beta= 0.30
     Davidson diagonalization with overlap
     ethr =  1.92E-03,  avg # of iterations =  2.0

     total cpu time spent up to now is        3.3 secs

     total energy              =    -361.57250542 Ry
     estimated scf accuracy    <       0.09317628 Ry

     iteration #  3     ecut=    50.00 Ry     beta= 0.30
     Davidson diagonalization with overlap
     ethr =  2.59E-04,  avg # of iterations =  6.1

     total cpu time spent up to now is        4.9 secs

     total energy              =    -361.60618290 Ry
     estimated scf accuracy    <       0.06322686 Ry

     iteration #  4     ecut=    50.00 Ry     beta= 0.30
     Davidson diagonalization with overlap
     ethr =  1.76E-04,  avg # of iterations =  8.5

     total cpu time spent up to now is        6.9 secs

     total energy              =    -361.65469087 Ry
     estimated scf accuracy    <       0.29721320 Ry

     iteration #  5     ecut=    50.00 Ry     beta= 0.30
     Davidson diagonalization with overlap
     ethr =  1.76E-04,  avg # of iterations =  2.0

     total cpu time spent up to now is        7.7 secs

     total energy              =    -361.56444256 Ry
     estimated scf accuracy    <       0.18033318 Ry

     iteration #  6     ecut=    50.00 Ry     beta= 0.30
     Davidson diagonalization with overlap
     ethr =  1.76E-04,  avg # of iterations =  6.9

     total cpu time spent up to now is        9.4 secs

     total energy              =    -361.64116788 Ry
     estimated scf accuracy    <       0.02988324 Ry

     iteration #  7     ecut=    50.00 Ry     beta= 0.30
     Davidson diagonalization with overlap
     ethr =  8.30E-05,  avg # of iterations =  1.4

     total cpu time spent up to now is       10.2 secs

     total energy              =    -361.64035474 Ry
     estimated scf accuracy    <       0.02601512 Ry

     iteration #  8     ecut=    50.00 Ry     beta= 0.30
     Davidson diagonalization with overlap
     ethr =  7.23E-05,  avg # of iterations =  1.0

     total cpu time spent up to now is       11.0 secs

     total energy              =    -361.63641825 Ry
     estimated scf accuracy    <       0.02264622 Ry

     iteration #  9     ecut=    50.00 Ry     beta= 0.30
     Davidson diagonalization with overlap
     ethr =  6.29E-05,  avg # of iterations =  1.1

     total cpu time spent up to now is       11.8 secs

     total energy              =    -361.63611695 Ry
     estimated scf accuracy    <       0.01262965 Ry

     iteration # 10     ecut=    50.00 Ry     beta= 0.30
     Davidson diagonalization with overlap
     ethr =  3.51E-05,  avg # of iterations =  1.0

     total cpu time spent up to now is       12.5 secs

     total energy              =    -361.63099485 Ry
     estimated scf accuracy    <       0.00941411 Ry

     iteration # 11     ecut=    50.00 Ry     beta= 0.30
     Davidson diagonalization with overlap
     ethr =  2.62E-05,  avg # of iterations =  4.9

     total cpu time spent up to now is       13.9 secs

     total energy              =    -361.63505916 Ry
     estimated scf accuracy    <       0.00163018 Ry

     iteration # 12     ecut=    50.00 Ry     beta= 0.30
     Davidson diagonalization with overlap
     ethr =  4.53E-06,  avg # of iterations =  2.6

     total cpu time spent up to now is       14.8 secs

     total energy              =    -361.63525853 Ry
     estimated scf accuracy    <       0.00126700 Ry

     iteration # 13     ecut=    50.00 Ry     beta= 0.30
     Davidson diagonalization with overlap
     ethr =  3.52E-06,  avg # of iterations =  1.3

     total cpu time spent up to now is       15.6 secs

     total energy              =    -361.63517090 Ry
     estimated scf accuracy    <       0.00117039 Ry

     iteration # 14     ecut=    50.00 Ry     beta= 0.30
     Davidson diagonalization with overlap
     ethr =  3.25E-06,  avg # of iterations =  1.0

     total cpu time spent up to now is       16.4 secs

     total energy              =    -361.63519443 Ry
     estimated scf accuracy    <       0.00089370 Ry

     iteration # 15     ecut=    50.00 Ry     beta= 0.30
     Davidson diagonalization with overlap
     ethr =  2.48E-06,  avg # of iterations =  1.0

     total cpu time spent up to now is       17.1 secs

     total energy              =    -361.63494217 Ry
     estimated scf accuracy    <       0.00085772 Ry

     iteration # 16     ecut=    50.00 Ry     beta= 0.30
     Davidson diagonalization with overlap
     ethr =  2.38E-06,  avg # of iterations =  1.1

     total cpu time spent up to now is       17.9 secs

     total energy              =    -361.63480287 Ry
     estimated scf accuracy    <       0.00035548 Ry

     iteration # 17     ecut=    50.00 Ry     beta= 0.30
     Davidson diagonalization with overlap
     ethr =  9.87E-07,  avg # of iterations =  4.6

     total cpu time spent up to now is       19.2 secs

     total energy              =    -361.63505702 Ry
     estimated scf accuracy    <       0.00011672 Ry

     iteration # 18     ecut=    50.00 Ry     beta= 0.30
     Davidson diagonalization with overlap
     ethr =  3.24E-07,  avg # of iterations =  1.9

     total cpu time spent up to now is       20.0 secs

     total energy              =    -361.63503924 Ry
     estimated scf accuracy    <       0.00011047 Ry

     iteration # 19     ecut=    50.00 Ry     beta= 0.30
     Davidson diagonalization with overlap
     ethr =  3.07E-07,  avg # of iterations =  1.0

     total cpu time spent up to now is       20.8 secs

     total energy              =    -361.63503117 Ry
     estimated scf accuracy    <       0.00006233 Ry

     iteration # 20     ecut=    50.00 Ry     beta= 0.30
     Davidson diagonalization with overlap
     ethr =  1.73E-07,  avg # of iterations =  2.0

     total cpu time spent up to now is       21.6 secs

     total energy              =    -361.63508603 Ry
     estimated scf accuracy    <       0.00002988 Ry

     iteration # 21     ecut=    50.00 Ry     beta= 0.30
     Davidson diagonalization with overlap
     ethr =  8.30E-08,  avg # of iterations =  6.1

     total cpu time spent up to now is       23.2 secs

     total energy              =    -361.63512315 Ry
     estimated scf accuracy    <       0.00027418 Ry

     iteration # 22     ecut=    50.00 Ry     beta= 0.30
     Davidson diagonalization with overlap
     ethr =  8.30E-08,  avg # of iterations =  1.4

     total cpu time spent up to now is       24.0 secs

     total energy              =    -361.63511966 Ry
     estimated scf accuracy    <       0.00030959 Ry

     iteration # 23     ecut=    50.00 Ry     beta= 0.30
     Davidson diagonalization with overlap
     ethr =  8.30E-08,  avg # of iterations =  1.0

     total cpu time spent up to now is       24.7 secs

     total energy              =    -361.63501918 Ry
     estimated scf accuracy    <       0.00030739 Ry

     iteration # 24     ecut=    50.00 Ry     beta= 0.30
     Davidson diagonalization with overlap
     ethr =  8.30E-08,  avg # of iterations =  5.7

     total cpu time spent up to now is       26.3 secs

     total energy              =    -361.63502012 Ry
     estimated scf accuracy    <       0.00004211 Ry

     iteration # 25     ecut=    50.00 Ry     beta= 0.30
     Davidson diagonalization with overlap
     ethr =  8.30E-08,  avg # of iterations =  4.8

     total cpu time spent up to now is       27.5 secs

     total energy              =    -361.63503256 Ry
     estimated scf accuracy    <       0.00000034 Ry

     iteration # 26     ecut=    50.00 Ry     beta= 0.30
     Davidson diagonalization with overlap
     ethr =  9.38E-10,  avg # of iterations = 10.7

     total cpu time spent up to now is       29.9 secs

     total energy              =    -361.63502874 Ry
     estimated scf accuracy    <       0.00001308 Ry

     iteration # 27     ecut=    50.00 Ry     beta= 0.30
     Davidson diagonalization with overlap
     ethr =  9.38E-10,  avg # of iterations = 11.8

     total cpu time spent up to now is       32.7 secs

     total energy              =    -361.63503236 Ry
     estimated scf accuracy    <       0.00000263 Ry

     iteration # 28     ecut=    50.00 Ry     beta= 0.30
     Davidson diagonalization with overlap
     ethr =  9.38E-10,  avg # of iterations =  7.6

     total cpu time spent up to now is       34.5 secs

     total energy              =    -361.63503298 Ry
     estimated scf accuracy    <       0.00000001 Ry

     iteration # 29     ecut=    50.00 Ry     beta= 0.30
     Davidson diagonalization with overlap
     ethr =  3.36E-11,  avg # of iterations = 10.8

     total cpu time spent up to now is       37.0 secs

     total energy              =    -361.63503285 Ry
     estimated scf accuracy    <       0.00000050 Ry

     iteration # 30     ecut=    50.00 Ry     beta= 0.30
     Davidson diagonalization with overlap
     ethr =  3.36E-11,  avg # of iterations = 10.6

     total cpu time spent up to now is       39.4 secs

     End of self-consistent calculation

          k = 0.0000 0.0000 0.0000 (  1901 PWs)   bands (ev):

   -10.8596 -10.1175   1.5329   1.5329   1.5660   1.6279   1.7360   1.7360
     2.6851   2.6851   2.9054   2.9054   3.1583   6.3329   6.3329   7.1249
     7.1674   7.1674

          k = 0.0000 0.0000 0.1053 (  1912 PWs)   bands (ev):

   -10.8122 -10.1696   1.4940   1.5108   1.5393   1.5393   1.7144   1.7144
     2.7059   2.7059   2.8979   2.8979   3.4850   6.3902   6.3902   6.5688
     7.1132   7.1132

          k = 0.0000 0.0000 0.2107 (  1894 PWs)   bands (ev):

   -10.6812 -10.3103   1.3264   1.3890   1.5623   1.5623   1.6624   1.6624
     2.7588   2.7588   2.8708   2.8708   4.1902   5.7901   6.5460   6.5460
     6.9637   6.9637

          k = 0.0000 0.0000-0.3160 (  1918 PWs)   bands (ev):

   -10.4982 -10.4982   1.2971   1.2971   1.6050   1.6050   1.6050   1.6050
     2.8207   2.8207   2.8207   2.8207   4.9929   4.9929   6.7564   6.7564
     6.7564   6.7564

          k = 0.0000 0.1925 0.0000 (  1896 PWs)   bands (ev):

   -10.7175 -10.0613   1.3846   1.6103   1.6343   1.7087   1.8551   1.8753
     2.6280   2.6849   2.9188   3.0077   3.1432   5.4467   5.9863   6.0668
     6.9336   6.9853

          k = 0.0000 0.1925 0.1053 (  1915 PWs)   bands (ev):

   -10.6749 -10.1064   1.3487   1.5318   1.6198   1.6598   1.8075   1.8305
     2.6612   2.7045   2.9071   2.9505   3.5404   5.5091   5.9097   6.0561
     6.8637   6.9209

          k = 0.0000 0.1925 0.2107 (  1929 PWs)   bands (ev):

   -10.5572 -10.2289   1.2632   1.3160   1.6497   1.6504   1.7379   1.7707
     2.7375   2.7552   2.8728   2.8974   4.2418   5.4160   5.8437   6.2444
     6.5951   6.7432

          k = 0.0000 0.1925-0.3160 (  1928 PWs)   bands (ev):

   -10.3943 -10.3943   1.2238   1.2238   1.6805   1.6805   1.7034   1.7034
     2.8180   2.8180   2.8244   2.8244   4.9109   4.9109   6.1909   6.1909
     6.4964   6.4964

          k = 0.0000 0.3849 0.0000 (  1926 PWs)   bands (ev):

   -10.3969  -9.9710   1.2354   1.5907   1.7338   1.9159   2.1467   2.2554
     2.6118   2.7615   2.9392   3.0585   3.3491   4.0525   4.9290   5.2738
     6.3791   6.5861

          k = 0.0000 0.3849 0.1053 (  1929 PWs)   bands (ev):

   -10.3673  -9.9981   1.1979   1.4837   1.7542   1.8873   2.1097   2.1098
     2.6506   2.7721   2.9241   3.0349   3.6024   4.2097   4.8926   5.3717
     6.4111   6.5040

          k = 0.0000 0.3849 0.2107 (  1936 PWs)   bands (ev):

   -10.2869 -10.0734   1.1266   1.2593   1.8144   1.8611   1.9638   2.0173
     2.7511   2.8015   2.8873   2.9635   3.9077   4.3320   5.1967   5.6279
     6.2772   6.3043

          k = 0.0000 0.3849-0.3160 (  1940 PWs)   bands (ev):

   -10.1789 -10.1789   1.1227   1.1227   1.8863   1.8863   1.9079   1.9079
     2.8427   2.8427   2.8641   2.8641   4.1497   4.1497   5.8516   5.8516
     5.9595   5.9595

          k = 0.0000-0.5774 0.0000 (  1926 PWs)   bands (ev):

   -10.1916  -9.9630   1.3033   1.5219   1.7735   2.1234   2.1634   2.3316
     2.7239   2.8581   2.9523   3.0203   3.5047   3.6972   4.3746   4.8754
     5.9213   6.3678

          k = 0.0000-0.5774 0.1053 (  1944 PWs)   bands (ev):

   -10.1738  -9.9757   1.2509   1.4091   1.8012   2.0851   2.1342   2.2818
     2.7925   2.8608   2.9358   3.0198   3.4577   3.6489   4.6818   4.9942
     6.0226   6.2772

          k = 0.0000-0.5774 0.2107 (  1926 PWs)   bands (ev):

   -10.1270 -10.0123   1.1465   1.2076   1.8828   2.0480   2.0810   2.1568
     2.8693   2.9004   2.9068   3.0105   3.4325   3.5544   5.2956   5.3099
     6.0267   6.1120

          k = 0.0000-0.5774-0.3160 (  1916 PWs)   bands (ev):

   -10.0671 -10.0671   1.1060   1.1060   2.0090   2.0090   2.0474   2.0474
     2.8840   2.8840   2.9752   2.9752   3.4721   3.4721   5.6726   5.6726
     5.8748   5.8748

          k = 0.1667 0.2887 0.0000 (  1919 PWs)   bands (ev):

   -10.4847  -9.9886   1.3408   1.5411   1.7405   1.8045   2.0774   2.1916
     2.5789   2.7067   2.9323   3.0605   3.3023   4.6501   4.8826   5.4621
     6.5408   6.5753

          k = 0.1667 0.2887 0.1053 (  1928 PWs)   bands (ev):

   -10.4510 -10.0211   1.2975   1.4794   1.7296   1.7727   2.0194   2.0449
     2.6247   2.7435   2.9189   3.0238   3.6481   4.7932   4.8733   5.4511
     6.4541   6.5789

          k = 0.1667 0.2887 0.2107 (  1937 PWs)   bands (ev):

   -10.3591 -10.1105   1.2095   1.2946   1.7259   1.7529   1.8955   1.9678
     2.7296   2.7871   2.8848   2.9529   4.1446   4.7412   5.2595   5.5859
     6.2207   6.4138

          k = 0.1667 0.2887-0.3160 (  1950 PWs)   bands (ev):

   -10.2342 -10.2342   1.1821   1.1821   1.7447   1.7447   1.8939   1.8939
     2.8249   2.8249   2.8610   2.8610   4.4894   4.4894   5.8150   5.8150
     5.9951   5.9951

          k = 0.1667 0.4811 0.0000 (  1938 PWs)   bands (ev):

   -10.1994  -9.9586   1.4026   1.6493   1.7954   1.9840   2.2808   2.3674
     2.6723   2.7300   2.9625   3.1384   3.3299   3.9432   4.3179   4.6533
     5.8923   6.0818

          k = 0.1667 0.4811 0.1053 (  1937 PWs)   bands (ev):

   -10.1809  -9.9721   1.3614   1.5621   1.7681   1.9648   2.2028   2.2779
     2.6811   2.8079   2.9577   3.1469   3.3713   3.9744   4.4139   4.8688
     5.8837   6.0847

          k = 0.1667 0.4811 0.2107 (  1938 PWs)   bands (ev):

   -10.1320 -10.0112   1.2668   1.3571   1.7889   1.9300   2.1050   2.1457
     2.7631   2.8367   2.9690   3.0931   3.5241   3.8696   4.7538   5.3727
     5.6516   6.1575

          k = 0.1667 0.4811-0.3160 (  1938 PWs)   bands (ev):

   -10.0691 -10.0691   1.2372   1.2372   1.8672   1.8672   2.0760   2.0760
     2.8212   2.8212   3.0196   3.0196   3.7021   3.7021   5.1759   5.1759
     5.9582   5.9582

          k = 0.3333 0.5774 0.0000 (  1923 PWs)   bands (ev):

   -10.0268 -10.0268   1.4876   1.8498   1.8498   2.2794   2.4856   2.4856
     2.6211   2.7598   2.7956   2.7956   3.4150   3.6951   3.6951   5.2833
     5.2833   5.5184

          k = 0.3333 0.5774 0.1053 (  1920 PWs)   bands (ev):

   -10.0238 -10.0238   1.5158   1.7477   1.7477   2.1588   2.3691   2.3691
     2.6401   2.7524   2.9534   2.9534   3.6000   3.6504   3.6504   5.3821
     5.4702   5.4702

          k = 0.3333 0.5774 0.2107 (  1911 PWs)   bands (ev):

   -10.0178 -10.0178   1.5499   1.5499   1.6013   1.9408   2.2822   2.2822
     2.6701   2.7314   3.1353   3.1353   3.5685   3.5685   4.0233   5.0189
     5.8265   5.8265

          k = 0.3333 0.5774-0.3160 (  1920 PWs)   bands (ev):

   -10.0148 -10.0148   1.4583   1.4583   1.7446   1.7446   2.2589   2.2589
     2.7019   2.7019   3.2110   3.2110   3.5243   3.5243   4.5307   4.5307
     5.9997   5.9997

     highest occupied level (ev):     7.1674

!    total energy              =    -361.63503294 Ry
     estimated scf accuracy    <          2.7E-10 Ry

     The total energy is the sum of the following terms:
     one-electron contribution =    -152.30849319 Ry
     hartree contribution      =     117.52214927 Ry
     xc contribution           =    -109.58894364 Ry
     ewald contribution        =    -217.25974537 Ry

     convergence has been achieved in  30 iterations

     Forces acting on atoms (cartesian axes, Ry/au):

     atom    1 type  1   force =     0.00000000    0.00000000   -0.00740282
     atom    2 type  1   force =     0.00000000    0.00000000   -0.00740282
     atom    3 type  2   force =     0.00000000    0.00000000    0.00740282
     atom    4 type  2   force =     0.00000000    0.00000000    0.00740282
     The non-local contrib.  to forces
     atom    1 type  1   force =     0.00000000   -0.00000000   -0.06339942
     atom    2 type  1   force =     0.00000000   -0.00000000   -0.06339942
     atom    3 type  2   force =    -0.00000000   -0.00000000   -0.04253524
     atom    4 type  2   force =    -0.00000000   -0.00000000   -0.04253524
     The ionic contribution  to forces
     atom    1 type  1   force =    -0.00000000    0.00000000   -0.35823457
     atom    2 type  1   force =     0.00000000   -0.00000000   -0.35823457
     atom    3 type  2   force =    -0.00000000    0.00000000    0.35823457
     atom    4 type  2   force =     0.00000000   -0.00000000    0.35823457
     The local contribution  to forces
     atom    1 type  1   force =    -0.00000002    0.00000001    0.40936633
     atom    2 type  1   force =     0.00000006   -0.00000004    0.40936633
     atom    3 type  2   force =    -0.00000001    0.00000000   -0.30860790
     atom    4 type  2   force =     0.00000002   -0.00000001   -0.30860790
     The core correction contribution to forces
     atom    1 type  1   force =    -0.00000000    0.00000000    0.00486958
     atom    2 type  1   force =     0.00000001   -0.00000000    0.00486958
     atom    3 type  2   force =     0.00000000   -0.00000000    0.00030174
     atom    4 type  2   force =    -0.00000000    0.00000000    0.00030174
     The Hubbard contrib.    to forces
     atom    1 type  1   force =     0.00000000    0.00000000    0.00000000
     atom    2 type  1   force =     0.00000000    0.00000000    0.00000000
     atom    3 type  2   force =     0.00000000    0.00000000    0.00000000
     atom    4 type  2   force =     0.00000000    0.00000000    0.00000000
     The SCF correction term to forces
     atom    1 type  1   force =    -0.00000000    0.00000000   -0.00000899
     atom    2 type  1   force =     0.00000000   -0.00000000   -0.00000899
     atom    3 type  2   force =    -0.00000000    0.00000000    0.00000542
     atom    4 type  2   force =     0.00000000   -0.00000000    0.00000542

     Total force =     0.014806     Total SCF correction =     0.000015


     Computing stress (Cartesian axis) and pressure

          total   stress  (Ry/bohr**3)                   (kbar)     P=       27.92
   0.00008548   0.00000000   0.00000000           12.58        0.00        0.00
   0.00000000   0.00008548   0.00000000            0.00       12.58        0.00
   0.00000000   0.00000000   0.00039852            0.00        0.00       58.62


     Writing all to output data dir ./ZnO_ANN.save/

     init_run     :      1.78s CPU      1.20s WALL (       1 calls)
     electrons    :    101.33s CPU     37.93s WALL (       1 calls)
     forces       :      0.67s CPU      0.34s WALL (       1 calls)
     stress       :      2.38s CPU      1.24s WALL (       1 calls)

     Called by init_run:
     wfcinit      :      0.96s CPU      0.38s WALL (       1 calls)
     potinit      :      0.23s CPU      0.23s WALL (       1 calls)
     hinit0       :      0.46s CPU      0.47s WALL (       1 calls)

     Called by electrons:
     c_bands      :     83.50s CPU     30.91s WALL (      30 calls)
     sum_band     :     13.25s CPU      5.15s WALL (      30 calls)
     v_of_rho     :      0.98s CPU      0.43s WALL (      31 calls)
     newd         :      3.37s CPU      1.36s WALL (      31 calls)
     mix_rho      :      0.17s CPU      0.08s WALL (      30 calls)

     Called by c_bands:
     init_us_2    :      1.19s CPU      0.43s WALL (    1764 calls)
     init_us_2:cp :      1.17s CPU      0.42s WALL (    1764 calls)
     cegterg      :     80.83s CPU     29.87s WALL (     840 calls)

     Called by *egterg:
     cdiaghg      :     12.75s CPU      4.15s WALL (    4305 calls)
     h_psi        :     55.51s CPU     22.61s WALL (    4333 calls)
     s_psi        :      1.26s CPU      0.37s WALL (    4333 calls)
     g_psi        :      0.42s CPU      0.11s WALL (    3465 calls)

     Called by h_psi:
     h_psi:calbec :      1.88s CPU      0.68s WALL (    4333 calls)
     vloc_psi     :     51.93s CPU     21.39s WALL (    4333 calls)
     add_vuspsi   :      1.22s CPU      0.40s WALL (    4333 calls)

     General routines
     calbec       :      2.41s CPU      0.86s WALL (    5313 calls)
     fft          :      0.79s CPU      0.45s WALL (     426 calls)
     ffts         :      0.14s CPU      0.11s WALL (      61 calls)
     fftw         :     52.62s CPU     21.69s WALL (  123436 calls)
     interpolate  :      0.16s CPU      0.12s WALL (      31 calls)

     Parallel routines

     PWSCF        :   1m46.72s CPU     41.17s WALL


   This run was terminated on:  17:13:48  13Jun2025            

=------------------------------------------------------------------------------=
   JOB DONE.
=------------------------------------------------------------------------------=
Note: The following floating-point exceptions are signalling: IEEE_INVALID_FLAG
