
     Program PWSCF v.7.0 starts on  7Sep2025 at 15:10:49 

     This program is part of the open-source Quantum ESPRESSO suite
     for quantum simulation of materials; please cite
         "P. Giannozzi et al., J. Phys.:Condens. Matter 21 395502 (2009);
         "P. Giannozzi et al., J. Phys.:Condens. Matter 29 465901 (2017);
         "P. Giannozzi et al., J. Chem. Phys. 152 154105 (2020);
          URL http://www.quantum-espresso.org", 
     in publications or presentations arising from this work. More details at
     http://www.quantum-espresso.org/quote

     Parallel version (MPI & OpenMP), running on      64 processor cores
     Number of MPI processes:                32
     Threads/MPI process:                     2

     MPI processes distributed on     1 nodes
     K-points division:     npool     =       8
     R & G space division:  proc/nbgrp/npool/nimage =       4
     107419 MiB available memory on the printing compute node when the environment starts

     Reading input from /home/jvc/QEspresso7.2/ZnO_database/scripts/cell231.in/ZnO-2.94-1.61-231.in
Warning: card &CELL ignored
Warning: card / ignored
Warning: card &FCP ignored
Warning: card / ignored
Warning: card &RISM ignored
Warning: card / ignored

     Current dimensions of program PWSCF are:
     Max number of different atomic species (ntypx) = 10
     Max number of k-points (npk) =  40000
     Max angular momentum in pseudopotentials (lmaxx) =  4
     file Zn.upf: wavefunction(s)  3D renormalized
     Found identity + (  0.0000  0.3333  0.0000) symmetry
     This is a supercell, fractional translations are disabled

     Subspace diagonalization in iterative solution of the eigenvalue problem:
     one sub-group per band group will be used
     scalapack distributed-memory algorithm (size of sub-group:  2*  2 procs)


     Parallelization info
     --------------------
     sticks:   dense  smooth     PW     G-vecs:    dense   smooth      PW
     Min        1278     640    187                48716    17230    2739
     Max        1279     641    188                48717    17231    2740
     Sum        5113    2563    751               194865    68923   10959

     Using Slab Decomposition



     bravais-lattice index     =            0
     lattice parameter (alat)  =      11.1219  a.u.
     unit-cell volume          =    1442.5576 (a.u.)^3
     number of atoms/cell      =           24
     number of atomic types    =            2
     number of electrons       =       216.00
     number of Kohn-Sham states=          108
     kinetic-energy cutoff     =      50.0000  Ry
     charge density cutoff     =     400.0000  Ry
     scf convergence threshold =      1.0E-08
     mixing beta               =       0.3000
     number of iterations used =            8  plain     mixing
     Exchange-correlation= PBE
                           (   1   4   3   4   0   0   0)

     celldm(1)=  11.121937  celldm(2)=   0.000000  celldm(3)=   0.000000
     celldm(4)=   0.000000  celldm(5)=   0.000000  celldm(6)=   0.000000

     crystal axes: (cart. coord. in units of alat)
               a(1) = (   1.000000   0.000000   0.000000 )  
               a(2) = (  -0.750000   1.299038   0.000000 )  
               a(3) = (   0.000000   0.000000   0.807179 )  

     reciprocal axes: (cart. coord. in units 2 pi/alat)
               b(1) = (  1.000000  0.577350 -0.000000 )  
               b(2) = (  0.000000  0.769800  0.000000 )  
               b(3) = (  0.000000 -0.000000  1.238882 )  


     PseudoPot. # 1 for Zn read from file:
     /home/jvc/QEspresso7.2/ZnO_database/pseudos/Zn.upf
     MD5 check sum: 7f56cabf9682ed8c977c2f7d0c5985c5
     Pseudo is Ultrasoft + core correction, Zval = 12.0
     Generated using &quot;atomic&quot; code by A. Dal Corso  v.6.2.2
     Using radial grid of 1201 points,  6 beta functions with: 
                l(1) =   0
                l(2) =   0
                l(3) =   1
                l(4) =   1
                l(5) =   2
                l(6) =   2
     Q(r) pseudized with 0 coefficients 


     PseudoPot. # 2 for O  read from file:
     /home/jvc/QEspresso7.2/ZnO_database/pseudos/O.upf
     MD5 check sum: 91400c9766925bcf19f520983a725ff0
     Pseudo is Ultrasoft + core correction, Zval =  6.0
     Generated using &quot;atomic&quot; code by A. Dal Corso  v.6.3MaX
     Using radial grid of 1095 points,  4 beta functions with: 
                l(1) =   0
                l(2) =   0
                l(3) =   1
                l(4) =   1
     Q(r) pseudized with 0 coefficients 


     atomic species   valence    mass     pseudopotential
        Zn            12.00    65.38000     Zn( 1.00)
        O              6.00    15.99900     O ( 1.00)

     No symmetry found


                                    s                        frac. trans.

      isym =  1     identity                                     

 cryst.   s( 1) = (     1          0          0      )
                  (     0          1          0      )
                  (     0          0          1      )

 cart.    s( 1) = (  1.0000000  0.0000000  0.0000000 )
                  (  0.0000000  1.0000000  0.0000000 )
                  (  0.0000000  0.0000000  1.0000000 )


   Cartesian axes

     site n.     atom                  positions (alat units)
         1           Zn  tau(   1) = (   0.2500000   0.1443376   0.4041010  )
         2           Zn  tau(   2) = (  -0.0000000   0.2886751   0.0005114  )
         3           O   tau(   3) = (   0.2500000   0.1443376   0.7100565  )
         4           O   tau(   4) = (  -0.0000000   0.2886751   0.3064669  )
         5           Zn  tau(   5) = (   0.0000000   0.5773503   0.4041010  )
         6           Zn  tau(   6) = (  -0.2500000   0.7216878   0.0005114  )
         7           O   tau(   7) = (   0.0000000   0.5773503   0.7100565  )
         8           O   tau(   8) = (  -0.2500000   0.7216878   0.3064669  )
         9           Zn  tau(   9) = (  -0.2500000   1.0103630   0.4041010  )
        10           Zn  tau(  10) = (  -0.5000000   1.1547005   0.0005114  )
        11           O   tau(  11) = (  -0.2500000   1.0103630   0.7100565  )
        12           O   tau(  12) = (  -0.5000000   1.1547005   0.3064669  )
        13           Zn  tau(  13) = (   0.7500000   0.1443376   0.4041010  )
        14           Zn  tau(  14) = (   0.5000000   0.2886751   0.0005114  )
        15           O   tau(  15) = (   0.7500000   0.1443376   0.7100565  )
        16           O   tau(  16) = (   0.5000000   0.2886751   0.3064669  )
        17           Zn  tau(  17) = (   0.5000000   0.5773503   0.4041010  )
        18           Zn  tau(  18) = (   0.2500000   0.7216878   0.0005114  )
        19           O   tau(  19) = (   0.5000000   0.5773503   0.7100565  )
        20           O   tau(  20) = (   0.2500000   0.7216878   0.3064669  )
        21           Zn  tau(  21) = (   0.2500000   1.0103630   0.4041010  )
        22           Zn  tau(  22) = (  -0.0000000   1.1547005   0.0005114  )
        23           O   tau(  23) = (   0.2500000   1.0103630   0.7100565  )
        24           O   tau(  24) = (  -0.0000000   1.1547005   0.3064669  )

   Crystallographic axes

     site n.     atom                  positions (cryst. coord.)
         1           Zn  tau(   1) = (  0.3333333  0.1111111  0.5006336  )
         2           Zn  tau(   2) = (  0.1666667  0.2222222  0.0006336  )
         3           O   tau(   3) = (  0.3333333  0.1111111  0.8796764  )
         4           O   tau(   4) = (  0.1666667  0.2222222  0.3796764  )
         5           Zn  tau(   5) = (  0.3333333  0.4444444  0.5006336  )
         6           Zn  tau(   6) = (  0.1666667  0.5555556  0.0006336  )
         7           O   tau(   7) = (  0.3333333  0.4444444  0.8796764  )
         8           O   tau(   8) = (  0.1666667  0.5555556  0.3796764  )
         9           Zn  tau(   9) = (  0.3333333  0.7777778  0.5006336  )
        10           Zn  tau(  10) = (  0.1666667  0.8888889  0.0006336  )
        11           O   tau(  11) = (  0.3333333  0.7777778  0.8796764  )
        12           O   tau(  12) = (  0.1666667  0.8888889  0.3796764  )
        13           Zn  tau(  13) = (  0.8333333  0.1111111  0.5006336  )
        14           Zn  tau(  14) = (  0.6666667  0.2222222  0.0006336  )
        15           O   tau(  15) = (  0.8333333  0.1111111  0.8796764  )
        16           O   tau(  16) = (  0.6666667  0.2222222  0.3796764  )
        17           Zn  tau(  17) = (  0.8333333  0.4444444  0.5006336  )
        18           Zn  tau(  18) = (  0.6666667  0.5555556  0.0006336  )
        19           O   tau(  19) = (  0.8333333  0.4444444  0.8796764  )
        20           O   tau(  20) = (  0.6666667  0.5555556  0.3796764  )
        21           Zn  tau(  21) = (  0.8333333  0.7777778  0.5006336  )
        22           Zn  tau(  22) = (  0.6666667  0.8888889  0.0006336  )
        23           O   tau(  23) = (  0.8333333  0.7777778  0.8796764  )
        24           O   tau(  24) = (  0.6666667  0.8888889  0.3796764  )

     number of k points=   112
                       cart. coord. in units 2pi/alat
        k(    1) = (   0.0000000   0.0000000   0.0000000), wk =   0.0092593
        k(    2) = (   0.0000000   0.0000000   0.2064804), wk =   0.0185185
        k(    3) = (   0.0000000   0.0000000   0.4129608), wk =   0.0185185
        k(    4) = (   0.0000000   0.0000000  -0.6194412), wk =   0.0092593
        k(    5) = (   0.0000000   0.1283001   0.0000000), wk =   0.0185185
        k(    6) = (   0.0000000   0.1283001   0.2064804), wk =   0.0185185
        k(    7) = (   0.0000000   0.1283001   0.4129608), wk =   0.0185185
        k(    8) = (   0.0000000   0.1283001  -0.6194412), wk =   0.0185185
        k(    9) = (   0.0000000   0.2566001   0.0000000), wk =   0.0185185
        k(   10) = (   0.0000000   0.2566001   0.2064804), wk =   0.0185185
        k(   11) = (   0.0000000   0.2566001   0.4129608), wk =   0.0185185
        k(   12) = (   0.0000000   0.2566001  -0.6194412), wk =   0.0185185
        k(   13) = (   0.0000000  -0.3849002   0.0000000), wk =   0.0092593
        k(   14) = (   0.0000000  -0.3849002   0.2064804), wk =   0.0185185
        k(   15) = (   0.0000000  -0.3849002   0.4129608), wk =   0.0185185
        k(   16) = (   0.0000000  -0.3849002  -0.6194412), wk =   0.0092593
        k(   17) = (   0.1666667   0.0962250   0.0000000), wk =   0.0185185
        k(   18) = (   0.1666667   0.0962250   0.2064804), wk =   0.0185185
        k(   19) = (   0.1666667   0.0962250   0.4129608), wk =   0.0185185
        k(   20) = (   0.1666667   0.0962250  -0.6194412), wk =   0.0185185
        k(   21) = (   0.1666667   0.2245251   0.0000000), wk =   0.0185185
        k(   22) = (   0.1666667   0.2245251   0.2064804), wk =   0.0185185
        k(   23) = (   0.1666667   0.2245251   0.4129608), wk =   0.0185185
        k(   24) = (   0.1666667   0.2245251  -0.6194412), wk =   0.0185185
        k(   25) = (   0.1666667   0.3528252   0.0000000), wk =   0.0185185
        k(   26) = (   0.1666667   0.3528252   0.2064804), wk =   0.0185185
        k(   27) = (   0.1666667   0.3528252   0.4129608), wk =   0.0185185
        k(   28) = (   0.1666667   0.3528252  -0.6194412), wk =   0.0185185
        k(   29) = (   0.1666667  -0.2886751   0.0000000), wk =   0.0185185
        k(   30) = (   0.1666667  -0.2886751   0.2064804), wk =   0.0185185
        k(   31) = (   0.1666667  -0.2886751   0.4129608), wk =   0.0185185
        k(   32) = (   0.1666667  -0.2886751  -0.6194412), wk =   0.0185185
        k(   33) = (   0.1666667  -0.1603751   0.0000000), wk =   0.0185185
        k(   34) = (   0.1666667  -0.1603751   0.2064804), wk =   0.0185185
        k(   35) = (   0.1666667  -0.1603751   0.4129608), wk =   0.0185185
        k(   36) = (   0.1666667  -0.1603751  -0.6194412), wk =   0.0185185
        k(   37) = (   0.1666667  -0.0320750   0.0000000), wk =   0.0185185
        k(   38) = (   0.1666667  -0.0320750   0.2064804), wk =   0.0185185
        k(   39) = (   0.1666667  -0.0320750   0.4129608), wk =   0.0185185
        k(   40) = (   0.1666667  -0.0320750  -0.6194412), wk =   0.0185185
        k(   41) = (   0.3333333   0.1924501   0.0000000), wk =   0.0185185
        k(   42) = (   0.3333333   0.1924501   0.2064804), wk =   0.0185185
        k(   43) = (   0.3333333   0.1924501   0.4129608), wk =   0.0185185
        k(   44) = (   0.3333333   0.1924501  -0.6194412), wk =   0.0185185
        k(   45) = (   0.3333333   0.3207501   0.0000000), wk =   0.0185185
        k(   46) = (   0.3333333   0.3207501   0.2064804), wk =   0.0185185
        k(   47) = (   0.3333333   0.3207501   0.4129608), wk =   0.0185185
        k(   48) = (   0.3333333   0.3207501  -0.6194412), wk =   0.0185185
        k(   49) = (   0.3333333   0.4490502   0.0000000), wk =   0.0185185
        k(   50) = (   0.3333333   0.4490502   0.2064804), wk =   0.0185185
        k(   51) = (   0.3333333   0.4490502   0.4129608), wk =   0.0185185
        k(   52) = (   0.3333333   0.4490502  -0.6194412), wk =   0.0185185
        k(   53) = (   0.3333333  -0.1924501   0.0000000), wk =   0.0185185
        k(   54) = (   0.3333333  -0.1924501   0.2064804), wk =   0.0185185
        k(   55) = (   0.3333333  -0.1924501   0.4129608), wk =   0.0185185
        k(   56) = (   0.3333333  -0.1924501  -0.6194412), wk =   0.0185185
        k(   57) = (   0.3333333  -0.0641500   0.0000000), wk =   0.0185185
        k(   58) = (   0.3333333  -0.0641500   0.2064804), wk =   0.0185185
        k(   59) = (   0.3333333  -0.0641500   0.4129608), wk =   0.0185185
        k(   60) = (   0.3333333  -0.0641500  -0.6194412), wk =   0.0185185
        k(   61) = (   0.3333333   0.0641500   0.0000000), wk =   0.0185185
        k(   62) = (   0.3333333   0.0641500   0.2064804), wk =   0.0185185
        k(   63) = (   0.3333333   0.0641500   0.4129608), wk =   0.0185185
        k(   64) = (   0.3333333   0.0641500  -0.6194412), wk =   0.0185185
        k(   65) = (  -0.5000000  -0.2886751   0.0000000), wk =   0.0092593
        k(   66) = (  -0.5000000  -0.2886751   0.2064804), wk =   0.0185185
        k(   67) = (  -0.5000000  -0.2886751   0.4129608), wk =   0.0185185
        k(   68) = (  -0.5000000  -0.2886751  -0.6194412), wk =   0.0092593
        k(   69) = (  -0.5000000  -0.1603751   0.0000000), wk =   0.0185185
        k(   70) = (  -0.5000000  -0.1603751   0.2064804), wk =   0.0185185
        k(   71) = (  -0.5000000  -0.1603751   0.4129608), wk =   0.0185185
        k(   72) = (  -0.5000000  -0.1603751  -0.6194412), wk =   0.0185185
        k(   73) = (  -0.5000000  -0.0320750   0.0000000), wk =   0.0185185
        k(   74) = (  -0.5000000  -0.0320750   0.2064804), wk =   0.0185185
        k(   75) = (  -0.5000000  -0.0320750   0.4129608), wk =   0.0185185
        k(   76) = (  -0.5000000  -0.0320750  -0.6194412), wk =   0.0185185
        k(   77) = (  -0.5000000  -0.6735753   0.0000000), wk =   0.0092593
        k(   78) = (  -0.5000000  -0.6735753   0.2064804), wk =   0.0185185
        k(   79) = (  -0.5000000  -0.6735753   0.4129608), wk =   0.0185185
        k(   80) = (  -0.5000000  -0.6735753  -0.6194412), wk =   0.0092593
        k(   81) = (   0.0000000  -0.1283001   0.2064804), wk =   0.0185185
        k(   82) = (   0.0000000  -0.1283001   0.4129608), wk =   0.0185185
        k(   83) = (   0.0000000  -0.2566001   0.2064804), wk =   0.0185185
        k(   84) = (   0.0000000  -0.2566001   0.4129608), wk =   0.0185185
        k(   85) = (  -0.1666667  -0.0962250   0.2064804), wk =   0.0185185
        k(   86) = (  -0.1666667  -0.0962250   0.4129608), wk =   0.0185185
        k(   87) = (  -0.1666667  -0.2245251   0.2064804), wk =   0.0185185
        k(   88) = (  -0.1666667  -0.2245251   0.4129608), wk =   0.0185185
        k(   89) = (  -0.1666667  -0.3528252   0.2064804), wk =   0.0185185
        k(   90) = (  -0.1666667  -0.3528252   0.4129608), wk =   0.0185185
        k(   91) = (  -0.1666667   0.2886751   0.2064804), wk =   0.0185185
        k(   92) = (  -0.1666667   0.2886751   0.4129608), wk =   0.0185185
        k(   93) = (  -0.1666667   0.1603751   0.2064804), wk =   0.0185185
        k(   94) = (  -0.1666667   0.1603751   0.4129608), wk =   0.0185185
        k(   95) = (  -0.1666667   0.0320750   0.2064804), wk =   0.0185185
        k(   96) = (  -0.1666667   0.0320750   0.4129608), wk =   0.0185185
        k(   97) = (  -0.3333333  -0.1924501   0.2064804), wk =   0.0185185
        k(   98) = (  -0.3333333  -0.1924501   0.4129608), wk =   0.0185185
        k(   99) = (  -0.3333333  -0.3207501   0.2064804), wk =   0.0185185
        k(  100) = (  -0.3333333  -0.3207501   0.4129608), wk =   0.0185185
        k(  101) = (  -0.3333333  -0.4490502   0.2064804), wk =   0.0185185
        k(  102) = (  -0.3333333  -0.4490502   0.4129608), wk =   0.0185185
        k(  103) = (  -0.3333333   0.1924501   0.2064804), wk =   0.0185185
        k(  104) = (  -0.3333333   0.1924501   0.4129608), wk =   0.0185185
        k(  105) = (  -0.3333333   0.0641500   0.2064804), wk =   0.0185185
        k(  106) = (  -0.3333333   0.0641500   0.4129608), wk =   0.0185185
        k(  107) = (  -0.3333333  -0.0641500   0.2064804), wk =   0.0185185
        k(  108) = (  -0.3333333  -0.0641500   0.4129608), wk =   0.0185185
        k(  109) = (   0.5000000   0.1603751   0.2064804), wk =   0.0185185
        k(  110) = (   0.5000000   0.1603751   0.4129608), wk =   0.0185185
        k(  111) = (   0.5000000   0.0320750   0.2064804), wk =   0.0185185
        k(  112) = (   0.5000000   0.0320750   0.4129608), wk =   0.0185185

                       cryst. coord.
        k(    1) = (   0.0000000   0.0000000   0.0000000), wk =   0.0092593
        k(    2) = (   0.0000000   0.0000000   0.1666667), wk =   0.0185185
        k(    3) = (   0.0000000   0.0000000   0.3333333), wk =   0.0185185
        k(    4) = (   0.0000000   0.0000000  -0.5000000), wk =   0.0092593
        k(    5) = (   0.0000000   0.1666667   0.0000000), wk =   0.0185185
        k(    6) = (   0.0000000   0.1666667   0.1666667), wk =   0.0185185
        k(    7) = (   0.0000000   0.1666667   0.3333333), wk =   0.0185185
        k(    8) = (   0.0000000   0.1666667  -0.5000000), wk =   0.0185185
        k(    9) = (   0.0000000   0.3333333   0.0000000), wk =   0.0185185
        k(   10) = (   0.0000000   0.3333333   0.1666667), wk =   0.0185185
        k(   11) = (   0.0000000   0.3333333   0.3333333), wk =   0.0185185
        k(   12) = (   0.0000000   0.3333333  -0.5000000), wk =   0.0185185
        k(   13) = (   0.0000000  -0.5000000   0.0000000), wk =   0.0092593
        k(   14) = (   0.0000000  -0.5000000   0.1666667), wk =   0.0185185
        k(   15) = (   0.0000000  -0.5000000   0.3333333), wk =   0.0185185
        k(   16) = (   0.0000000  -0.5000000  -0.5000000), wk =   0.0092593
        k(   17) = (   0.1666667  -0.0000000   0.0000000), wk =   0.0185185
        k(   18) = (   0.1666667  -0.0000000   0.1666667), wk =   0.0185185
        k(   19) = (   0.1666667  -0.0000000   0.3333333), wk =   0.0185185
        k(   20) = (   0.1666667  -0.0000000  -0.5000000), wk =   0.0185185
        k(   21) = (   0.1666667   0.1666667   0.0000000), wk =   0.0185185
        k(   22) = (   0.1666667   0.1666667   0.1666667), wk =   0.0185185
        k(   23) = (   0.1666667   0.1666667   0.3333333), wk =   0.0185185
        k(   24) = (   0.1666667   0.1666667  -0.5000000), wk =   0.0185185
        k(   25) = (   0.1666667   0.3333333   0.0000000), wk =   0.0185185
        k(   26) = (   0.1666667   0.3333333   0.1666667), wk =   0.0185185
        k(   27) = (   0.1666667   0.3333333   0.3333333), wk =   0.0185185
        k(   28) = (   0.1666667   0.3333333  -0.5000000), wk =   0.0185185
        k(   29) = (   0.1666667  -0.5000000   0.0000000), wk =   0.0185185
        k(   30) = (   0.1666667  -0.5000000   0.1666667), wk =   0.0185185
        k(   31) = (   0.1666667  -0.5000000   0.3333333), wk =   0.0185185
        k(   32) = (   0.1666667  -0.5000000  -0.5000000), wk =   0.0185185
        k(   33) = (   0.1666667  -0.3333333   0.0000000), wk =   0.0185185
        k(   34) = (   0.1666667  -0.3333333   0.1666667), wk =   0.0185185
        k(   35) = (   0.1666667  -0.3333333   0.3333333), wk =   0.0185185
        k(   36) = (   0.1666667  -0.3333333  -0.5000000), wk =   0.0185185
        k(   37) = (   0.1666667  -0.1666667   0.0000000), wk =   0.0185185
        k(   38) = (   0.1666667  -0.1666667   0.1666667), wk =   0.0185185
        k(   39) = (   0.1666667  -0.1666667   0.3333333), wk =   0.0185185
        k(   40) = (   0.1666667  -0.1666667  -0.5000000), wk =   0.0185185
        k(   41) = (   0.3333333  -0.0000000   0.0000000), wk =   0.0185185
        k(   42) = (   0.3333333  -0.0000000   0.1666667), wk =   0.0185185
        k(   43) = (   0.3333333  -0.0000000   0.3333333), wk =   0.0185185
        k(   44) = (   0.3333333  -0.0000000  -0.5000000), wk =   0.0185185
        k(   45) = (   0.3333333   0.1666667   0.0000000), wk =   0.0185185
        k(   46) = (   0.3333333   0.1666667   0.1666667), wk =   0.0185185
        k(   47) = (   0.3333333   0.1666667   0.3333333), wk =   0.0185185
        k(   48) = (   0.3333333   0.1666667  -0.5000000), wk =   0.0185185
        k(   49) = (   0.3333333   0.3333333   0.0000000), wk =   0.0185185
        k(   50) = (   0.3333333   0.3333333   0.1666667), wk =   0.0185185
        k(   51) = (   0.3333333   0.3333333   0.3333333), wk =   0.0185185
        k(   52) = (   0.3333333   0.3333333  -0.5000000), wk =   0.0185185
        k(   53) = (   0.3333333  -0.5000000   0.0000000), wk =   0.0185185
        k(   54) = (   0.3333333  -0.5000000   0.1666667), wk =   0.0185185
        k(   55) = (   0.3333333  -0.5000000   0.3333333), wk =   0.0185185
        k(   56) = (   0.3333333  -0.5000000  -0.5000000), wk =   0.0185185
        k(   57) = (   0.3333333  -0.3333333   0.0000000), wk =   0.0185185
        k(   58) = (   0.3333333  -0.3333333   0.1666667), wk =   0.0185185
        k(   59) = (   0.3333333  -0.3333333   0.3333333), wk =   0.0185185
        k(   60) = (   0.3333333  -0.3333333  -0.5000000), wk =   0.0185185
        k(   61) = (   0.3333333  -0.1666667   0.0000000), wk =   0.0185185
        k(   62) = (   0.3333333  -0.1666667   0.1666667), wk =   0.0185185
        k(   63) = (   0.3333333  -0.1666667   0.3333333), wk =   0.0185185
        k(   64) = (   0.3333333  -0.1666667  -0.5000000), wk =   0.0185185
        k(   65) = (  -0.5000000   0.0000000   0.0000000), wk =   0.0092593
        k(   66) = (  -0.5000000   0.0000000   0.1666667), wk =   0.0185185
        k(   67) = (  -0.5000000   0.0000000   0.3333333), wk =   0.0185185
        k(   68) = (  -0.5000000   0.0000000  -0.5000000), wk =   0.0092593
        k(   69) = (  -0.5000000   0.1666667   0.0000000), wk =   0.0185185
        k(   70) = (  -0.5000000   0.1666667   0.1666667), wk =   0.0185185
        k(   71) = (  -0.5000000   0.1666667   0.3333333), wk =   0.0185185
        k(   72) = (  -0.5000000   0.1666667  -0.5000000), wk =   0.0185185
        k(   73) = (  -0.5000000   0.3333333   0.0000000), wk =   0.0185185
        k(   74) = (  -0.5000000   0.3333333   0.1666667), wk =   0.0185185
        k(   75) = (  -0.5000000   0.3333333   0.3333333), wk =   0.0185185
        k(   76) = (  -0.5000000   0.3333333  -0.5000000), wk =   0.0185185
        k(   77) = (  -0.5000000  -0.5000000   0.0000000), wk =   0.0092593
        k(   78) = (  -0.5000000  -0.5000000   0.1666667), wk =   0.0185185
        k(   79) = (  -0.5000000  -0.5000000   0.3333333), wk =   0.0185185
        k(   80) = (  -0.5000000  -0.5000000  -0.5000000), wk =   0.0092593
        k(   81) = (   0.0000000  -0.1666667   0.1666667), wk =   0.0185185
        k(   82) = (   0.0000000  -0.1666667   0.3333333), wk =   0.0185185
        k(   83) = (   0.0000000  -0.3333333   0.1666667), wk =   0.0185185
        k(   84) = (   0.0000000  -0.3333333   0.3333333), wk =   0.0185185
        k(   85) = (  -0.1666667   0.0000000   0.1666667), wk =   0.0185185
        k(   86) = (  -0.1666667   0.0000000   0.3333333), wk =   0.0185185
        k(   87) = (  -0.1666667  -0.1666667   0.1666667), wk =   0.0185185
        k(   88) = (  -0.1666667  -0.1666667   0.3333333), wk =   0.0185185
        k(   89) = (  -0.1666667  -0.3333333   0.1666667), wk =   0.0185185
        k(   90) = (  -0.1666667  -0.3333333   0.3333333), wk =   0.0185185
        k(   91) = (  -0.1666667   0.5000000   0.1666667), wk =   0.0185185
        k(   92) = (  -0.1666667   0.5000000   0.3333333), wk =   0.0185185
        k(   93) = (  -0.1666667   0.3333333   0.1666667), wk =   0.0185185
        k(   94) = (  -0.1666667   0.3333333   0.3333333), wk =   0.0185185
        k(   95) = (  -0.1666667   0.1666667   0.1666667), wk =   0.0185185
        k(   96) = (  -0.1666667   0.1666667   0.3333333), wk =   0.0185185
        k(   97) = (  -0.3333333   0.0000000   0.1666667), wk =   0.0185185
        k(   98) = (  -0.3333333   0.0000000   0.3333333), wk =   0.0185185
        k(   99) = (  -0.3333333  -0.1666667   0.1666667), wk =   0.0185185
        k(  100) = (  -0.3333333  -0.1666667   0.3333333), wk =   0.0185185
        k(  101) = (  -0.3333333  -0.3333333   0.1666667), wk =   0.0185185
        k(  102) = (  -0.3333333  -0.3333333   0.3333333), wk =   0.0185185
        k(  103) = (  -0.3333333   0.5000000   0.1666667), wk =   0.0185185
        k(  104) = (  -0.3333333   0.5000000   0.3333333), wk =   0.0185185
        k(  105) = (  -0.3333333   0.3333333   0.1666667), wk =   0.0185185
        k(  106) = (  -0.3333333   0.3333333   0.3333333), wk =   0.0185185
        k(  107) = (  -0.3333333   0.1666667   0.1666667), wk =   0.0185185
        k(  108) = (  -0.3333333   0.1666667   0.3333333), wk =   0.0185185
        k(  109) = (   0.5000000  -0.1666667   0.1666667), wk =   0.0185185
        k(  110) = (   0.5000000  -0.1666667   0.3333333), wk =   0.0185185
        k(  111) = (   0.5000000  -0.3333333   0.1666667), wk =   0.0185185
        k(  112) = (   0.5000000  -0.3333333   0.3333333), wk =   0.0185185

     Dense  grid:   194865 G-vectors     FFT dimensions: (  72, 108,  60)

     Smooth grid:    68923 G-vectors     FFT dimensions: (  54,  75,  45)

     Dynamical RAM for                 wfc:       3.55 MB

     Dynamical RAM for     wfc (w. buffer):      53.22 MB

     Dynamical RAM for           str. fact:       1.49 MB

     Dynamical RAM for           local pot:       0.00 MB

     Dynamical RAM for          nlocal pot:      10.25 MB

     Dynamical RAM for                qrad:       3.21 MB

     Dynamical RAM for          rho,v,vnew:       4.90 MB

     Dynamical RAM for               rhoin:       1.63 MB

     Dynamical RAM for            rho*nmix:      11.89 MB

     Dynamical RAM for           G-vectors:       2.92 MB

     Dynamical RAM for          h,s,v(r/c):       0.53 MB

     Dynamical RAM for          <psi|beta>:       0.51 MB

     Dynamical RAM for                 psi:       7.10 MB

     Dynamical RAM for                hpsi:       7.10 MB

     Dynamical RAM for                spsi:       7.10 MB

     Dynamical RAM for      wfcinit/wfcrot:      10.81 MB

     Dynamical RAM for           addusdens:      19.05 MB

     Dynamical RAM for          addusforce:      20.86 MB

     Estimated static dynamical RAM per process >      84.30 MB

     Estimated max dynamical RAM per process >     118.53 MB

     Estimated total dynamical RAM >       3.38 GB

     Check: negative core charge=   -0.000001

     Initial potential from superposition of free atoms

     starting charge     215.9553, renormalised to     216.0000
     Starting wfcs are  156 randomized atomic wfcs

     total cpu time spent up to now is       17.2 secs

     per-process dynamical memory:   107.4 Mb

     Self-consistent Calculation

     iteration #  1     ecut=    50.00 Ry     beta= 0.30
     Davidson diagonalization with overlap

---- Real-time Memory Report at c_bands before calling an iterative solver
           133 MiB given to the printing process from OS
           104 MiB allocation reported by mallinfo(arena+hblkhd)
        104035 MiB available memory on the node where the printing process lives
------------------
     ethr =  1.00E-02,  avg # of iterations =  2.4

     total cpu time spent up to now is       48.3 secs

     total energy              =   -2167.83833086 Ry
     estimated scf accuracy    <       4.10259204 Ry

     iteration #  2     ecut=    50.00 Ry     beta= 0.30
     Davidson diagonalization with overlap

---- Real-time Memory Report at c_bands before calling an iterative solver
           152 MiB given to the printing process from OS
           123 MiB allocation reported by mallinfo(arena+hblkhd)
        103511 MiB available memory on the node where the printing process lives
------------------
     ethr =  1.90E-03,  avg # of iterations =  2.0

     total cpu time spent up to now is       82.7 secs

     total energy              =   -2167.98136886 Ry
     estimated scf accuracy    <       0.89962330 Ry

     iteration #  3     ecut=    50.00 Ry     beta= 0.30
     Davidson diagonalization with overlap

---- Real-time Memory Report at c_bands before calling an iterative solver
           157 MiB given to the printing process from OS
           126 MiB allocation reported by mallinfo(arena+hblkhd)
        103501 MiB available memory on the node where the printing process lives
------------------
     ethr =  4.16E-04,  avg # of iterations =  6.8

     total cpu time spent up to now is      149.6 secs

     total energy              =   -2168.55792352 Ry
     estimated scf accuracy    <       0.60612571 Ry

     iteration #  4     ecut=    50.00 Ry     beta= 0.30
     Davidson diagonalization with overlap

---- Real-time Memory Report at c_bands before calling an iterative solver
           157 MiB given to the printing process from OS
           126 MiB allocation reported by mallinfo(arena+hblkhd)
        103493 MiB available memory on the node where the printing process lives
------------------
     ethr =  2.81E-04,  avg # of iterations =  2.0

     total cpu time spent up to now is      179.5 secs

     total energy              =   -2168.50337871 Ry
     estimated scf accuracy    <       0.20112451 Ry

     iteration #  5     ecut=    50.00 Ry     beta= 0.30
     Davidson diagonalization with overlap

---- Real-time Memory Report at c_bands before calling an iterative solver
           157 MiB given to the printing process from OS
           126 MiB allocation reported by mallinfo(arena+hblkhd)
        103492 MiB available memory on the node where the printing process lives
------------------
     ethr =  9.31E-05,  avg # of iterations =  9.8

     total cpu time spent up to now is      273.0 secs

     total energy              =   -2168.83640579 Ry
     estimated scf accuracy    <       3.00979045 Ry

     iteration #  6     ecut=    50.00 Ry     beta= 0.30
     Davidson diagonalization with overlap

---- Real-time Memory Report at c_bands before calling an iterative solver
           157 MiB given to the printing process from OS
           128 MiB allocation reported by mallinfo(arena+hblkhd)
        103482 MiB available memory on the node where the printing process lives
------------------
     ethr =  9.31E-05,  avg # of iterations =  5.8

     total cpu time spent up to now is      326.5 secs

     total energy              =   -2168.36827252 Ry
     estimated scf accuracy    <       1.24428613 Ry

     iteration #  7     ecut=    50.00 Ry     beta= 0.30
     Davidson diagonalization with overlap

---- Real-time Memory Report at c_bands before calling an iterative solver
           165 MiB given to the printing process from OS
           135 MiB allocation reported by mallinfo(arena+hblkhd)
        103463 MiB available memory on the node where the printing process lives
------------------
     ethr =  9.31E-05,  avg # of iterations =  6.9

     total cpu time spent up to now is      395.0 secs

     total energy              =   -2168.58589498 Ry
     estimated scf accuracy    <       0.01119076 Ry

     iteration #  8     ecut=    50.00 Ry     beta= 0.30
     Davidson diagonalization with overlap

---- Real-time Memory Report at c_bands before calling an iterative solver
           165 MiB given to the printing process from OS
           135 MiB allocation reported by mallinfo(arena+hblkhd)
        103445 MiB available memory on the node where the printing process lives
------------------
     ethr =  5.18E-06,  avg # of iterations =  9.5

     total cpu time spent up to now is      473.2 secs

     total energy              =   -2168.60021500 Ry
     estimated scf accuracy    <       0.01223028 Ry

     iteration #  9     ecut=    50.00 Ry     beta= 0.30
     Davidson diagonalization with overlap

---- Real-time Memory Report at c_bands before calling an iterative solver
           165 MiB given to the printing process from OS
           135 MiB allocation reported by mallinfo(arena+hblkhd)
        103435 MiB available memory on the node where the printing process lives
------------------
     ethr =  5.18E-06,  avg # of iterations =  1.1

     total cpu time spent up to now is      499.8 secs

     total energy              =   -2168.59564691 Ry
     estimated scf accuracy    <       0.00818974 Ry

     iteration # 10     ecut=    50.00 Ry     beta= 0.30
     Davidson diagonalization with overlap

---- Real-time Memory Report at c_bands before calling an iterative solver
           165 MiB given to the printing process from OS
           135 MiB allocation reported by mallinfo(arena+hblkhd)
        103440 MiB available memory on the node where the printing process lives
------------------
     ethr =  3.79E-06,  avg # of iterations =  4.7

     total cpu time spent up to now is      549.2 secs

     total energy              =   -2168.59823783 Ry
     estimated scf accuracy    <       0.00012706 Ry

     iteration # 11     ecut=    50.00 Ry     beta= 0.30
     Davidson diagonalization with overlap

---- Real-time Memory Report at c_bands before calling an iterative solver
           165 MiB given to the printing process from OS
           135 MiB allocation reported by mallinfo(arena+hblkhd)
        103438 MiB available memory on the node where the printing process lives
------------------
     ethr =  5.88E-08,  avg # of iterations =  9.9

     total cpu time spent up to now is      640.4 secs

     total energy              =   -2168.59887551 Ry
     estimated scf accuracy    <       0.00090286 Ry

     iteration # 12     ecut=    50.00 Ry     beta= 0.30
     Davidson diagonalization with overlap

---- Real-time Memory Report at c_bands before calling an iterative solver
           165 MiB given to the printing process from OS
           135 MiB allocation reported by mallinfo(arena+hblkhd)
        103434 MiB available memory on the node where the printing process lives
------------------
     ethr =  5.88E-08,  avg # of iterations =  1.1

     total cpu time spent up to now is      667.7 secs

     total energy              =   -2168.59850095 Ry
     estimated scf accuracy    <       0.00097842 Ry

     iteration # 13     ecut=    50.00 Ry     beta= 0.30
     Davidson diagonalization with overlap

---- Real-time Memory Report at c_bands before calling an iterative solver
           165 MiB given to the printing process from OS
           135 MiB allocation reported by mallinfo(arena+hblkhd)
        103431 MiB available memory on the node where the printing process lives
------------------
     ethr =  5.88E-08,  avg # of iterations =  6.7

     total cpu time spent up to now is      731.6 secs

     total energy              =   -2168.59860534 Ry
     estimated scf accuracy    <       0.00009507 Ry

     iteration # 14     ecut=    50.00 Ry     beta= 0.30
     Davidson diagonalization with overlap

---- Real-time Memory Report at c_bands before calling an iterative solver
           165 MiB given to the printing process from OS
           135 MiB allocation reported by mallinfo(arena+hblkhd)
        103429 MiB available memory on the node where the printing process lives
------------------
     ethr =  4.40E-08,  avg # of iterations =  1.2

     total cpu time spent up to now is      758.8 secs

     total energy              =   -2168.59855930 Ry
     estimated scf accuracy    <       0.00011538 Ry

     iteration # 15     ecut=    50.00 Ry     beta= 0.30
     Davidson diagonalization with overlap

---- Real-time Memory Report at c_bands before calling an iterative solver
           165 MiB given to the printing process from OS
           135 MiB allocation reported by mallinfo(arena+hblkhd)
        103427 MiB available memory on the node where the printing process lives
------------------
     ethr =  4.40E-08,  avg # of iterations =  2.7

     total cpu time spent up to now is      793.0 secs

     total energy              =   -2168.59856083 Ry
     estimated scf accuracy    <       0.00002764 Ry

     iteration # 16     ecut=    50.00 Ry     beta= 0.30
     Davidson diagonalization with overlap

---- Real-time Memory Report at c_bands before calling an iterative solver
           165 MiB given to the printing process from OS
           135 MiB allocation reported by mallinfo(arena+hblkhd)
        103425 MiB available memory on the node where the printing process lives
------------------
     ethr =  1.28E-08,  avg # of iterations =  5.6

     total cpu time spent up to now is      846.0 secs

     total energy              =   -2168.59857403 Ry
     estimated scf accuracy    <       0.00000012 Ry

     iteration # 17     ecut=    50.00 Ry     beta= 0.30
     Davidson diagonalization with overlap

---- Real-time Memory Report at c_bands before calling an iterative solver
           165 MiB given to the printing process from OS
           135 MiB allocation reported by mallinfo(arena+hblkhd)
        103422 MiB available memory on the node where the printing process lives
------------------
     ethr =  5.63E-11,  avg # of iterations = 13.3

     total cpu time spent up to now is      956.6 secs

     total energy              =   -2168.59857737 Ry
     estimated scf accuracy    <       0.00000116 Ry

     iteration # 18     ecut=    50.00 Ry     beta= 0.30
     Davidson diagonalization with overlap

---- Real-time Memory Report at c_bands before calling an iterative solver
           165 MiB given to the printing process from OS
           135 MiB allocation reported by mallinfo(arena+hblkhd)
        103414 MiB available memory on the node where the printing process lives
------------------
     ethr =  5.63E-11,  avg # of iterations = 12.5

     total cpu time spent up to now is     1068.1 secs

     total energy              =   -2168.59858081 Ry
     estimated scf accuracy    <       0.00001384 Ry

     iteration # 19     ecut=    50.00 Ry     beta= 0.30
     Davidson diagonalization with overlap

---- Real-time Memory Report at c_bands before calling an iterative solver
           165 MiB given to the printing process from OS
           135 MiB allocation reported by mallinfo(arena+hblkhd)
        103398 MiB available memory on the node where the printing process lives
------------------
     ethr =  5.63E-11,  avg # of iterations =  8.3

     total cpu time spent up to now is     1143.9 secs

     total energy              =   -2168.59858299 Ry
     estimated scf accuracy    <       0.00002123 Ry

     iteration # 20     ecut=    50.00 Ry     beta= 0.30
     Davidson diagonalization with overlap

---- Real-time Memory Report at c_bands before calling an iterative solver
           165 MiB given to the printing process from OS
           135 MiB allocation reported by mallinfo(arena+hblkhd)
        103400 MiB available memory on the node where the printing process lives
------------------
     ethr =  5.63E-11,  avg # of iterations =  7.2

     total cpu time spent up to now is     1212.4 secs

     total energy              =   -2168.59858390 Ry
     estimated scf accuracy    <       0.00002836 Ry

     iteration # 21     ecut=    50.00 Ry     beta= 0.30
     Davidson diagonalization with overlap

---- Real-time Memory Report at c_bands before calling an iterative solver
           165 MiB given to the printing process from OS
           135 MiB allocation reported by mallinfo(arena+hblkhd)
        103391 MiB available memory on the node where the printing process lives
------------------
     ethr =  5.63E-11,  avg # of iterations =  2.2

     total cpu time spent up to now is     1245.2 secs

     total energy              =   -2168.59858174 Ry
     estimated scf accuracy    <       0.00003007 Ry

     iteration # 22     ecut=    50.00 Ry     beta= 0.30
     Davidson diagonalization with overlap

---- Real-time Memory Report at c_bands before calling an iterative solver
           165 MiB given to the printing process from OS
           135 MiB allocation reported by mallinfo(arena+hblkhd)
        103390 MiB available memory on the node where the printing process lives
------------------
     ethr =  5.63E-11,  avg # of iterations =  4.0

     total cpu time spent up to now is     1292.7 secs

     total energy              =   -2168.59857750 Ry
     estimated scf accuracy    <       0.00002530 Ry

     iteration # 23     ecut=    50.00 Ry     beta= 0.30
     Davidson diagonalization with overlap

---- Real-time Memory Report at c_bands before calling an iterative solver
           165 MiB given to the printing process from OS
           135 MiB allocation reported by mallinfo(arena+hblkhd)
        103386 MiB available memory on the node where the printing process lives
------------------
     ethr =  5.63E-11,  avg # of iterations = 10.2

     total cpu time spent up to now is     1387.8 secs

     total energy              =   -2168.59857234 Ry
     estimated scf accuracy    <       0.00001152 Ry

     iteration # 24     ecut=    50.00 Ry     beta= 0.30
     Davidson diagonalization with overlap

---- Real-time Memory Report at c_bands before calling an iterative solver
           165 MiB given to the printing process from OS
           135 MiB allocation reported by mallinfo(arena+hblkhd)
        103377 MiB available memory on the node where the printing process lives
------------------
     c_bands:  1 eigenvalues not converged
     ethr =  5.63E-11,  avg # of iterations = 13.5

     total cpu time spent up to now is     1507.9 secs

     total energy              =   -2168.59857477 Ry
     estimated scf accuracy    <       0.00000002 Ry

     iteration # 25     ecut=    50.00 Ry     beta= 0.30
     Davidson diagonalization with overlap

---- Real-time Memory Report at c_bands before calling an iterative solver
           165 MiB given to the printing process from OS
           135 MiB allocation reported by mallinfo(arena+hblkhd)
        103365 MiB available memory on the node where the printing process lives
------------------
     ethr =  8.74E-12,  avg # of iterations = 10.1

     total cpu time spent up to now is     1596.0 secs

     total energy              =   -2168.59857459 Ry
     estimated scf accuracy    <       0.00000039 Ry

     iteration # 26     ecut=    50.00 Ry     beta= 0.30
     Davidson diagonalization with overlap

---- Real-time Memory Report at c_bands before calling an iterative solver
           165 MiB given to the printing process from OS
           135 MiB allocation reported by mallinfo(arena+hblkhd)
        103362 MiB available memory on the node where the printing process lives
------------------
     ethr =  8.74E-12,  avg # of iterations = 10.9

     total cpu time spent up to now is     1696.4 secs

     total energy              =   -2168.59857470 Ry
     estimated scf accuracy    <       0.00000002 Ry

     iteration # 27     ecut=    50.00 Ry     beta= 0.30
     Davidson diagonalization with overlap

---- Real-time Memory Report at c_bands before calling an iterative solver
           165 MiB given to the printing process from OS
           135 MiB allocation reported by mallinfo(arena+hblkhd)
        103353 MiB available memory on the node where the printing process lives
------------------
     ethr =  8.74E-12,  avg # of iterations =  3.2

     total cpu time spent up to now is     1733.1 secs

     End of self-consistent calculation

          k = 0.0000 0.0000 0.0000 (  8639 PWs)   bands (ev):

    -8.5235  -7.6949  -7.6949  -7.3368  -7.3368  -7.3181  -7.2597  -6.9625
    -6.9625  -6.9331  -6.9245  -6.9245   4.0271   4.0271   4.0765   4.1453
     4.1517   4.2651   4.2651   4.5207   4.5207   4.5438   4.5438   4.7628
     4.7628   4.8491   5.0596   5.0596   5.0651   5.0651   5.0927   5.0927
     5.1491   5.1491   5.1600   5.2856   5.2856   5.3597   5.5708   5.5708
     5.6832   5.6832   5.7724   5.8017   5.8017   5.9398   5.9398   5.9798
     6.7225   6.7225   6.8512   6.8512   6.9935   6.9935   7.0085   7.0085
     7.0126   7.1274   7.1274   7.3209   7.3396   7.3396   7.3919   7.3919
     7.4562   7.4562   7.4867   7.4957   7.4957   7.5205   7.5205   7.5763
     7.7269   7.8434   7.9014   7.9014   8.0734   8.0734   8.2200   8.3783
     8.3783   8.4523   8.4523   8.5924   8.5924   8.7179   9.1341   9.1703
     9.1703   9.7502   9.7502   9.8300   9.8300  10.5459  10.5459  10.6629
    10.8721  10.8721  11.1855  11.2319  11.2319  11.2811  11.2811  11.5506
    11.5506  12.2424  12.4628  12.4628

     occupation numbers 
     1.0000   1.0000   1.0000   1.0000   1.0000   1.0000   1.0000   1.0000
     1.0000   1.0000   1.0000   1.0000   1.0000   1.0000   1.0000   1.0000
     1.0000   1.0000   1.0000   1.0000   1.0000   1.0000   1.0000   1.0000
     1.0000   1.0000   1.0000   1.0000   1.0000   1.0000   1.0000   1.0000
     1.0000   1.0000   1.0000   1.0000   1.0000   1.0000   1.0000   1.0000
     1.0000   1.0000   1.0000   1.0000   1.0000   1.0000   1.0000   1.0000
     1.0000   1.0000   1.0000   1.0000   1.0000   1.0000   1.0000   1.0000
     1.0000   1.0000   1.0000   1.0000   1.0000   1.0000   1.0000   1.0000
     1.0000   1.0000   1.0000   1.0000   1.0000   1.0000   1.0000   1.0000
     1.0000   1.0000   1.0000   1.0000   1.0000   1.0000   1.0000   1.0000
     1.0000   1.0000   1.0000   1.0000   1.0000   1.0000   1.0000   1.0000
     1.0000   1.0000   1.0000   1.0000   1.0000   1.0000   1.0000   1.0000
     1.0000   1.0000   1.0000   1.0000   1.0000   1.0000   1.0000   1.0000
     1.0000   1.0000   1.0000   1.0000

          k = 0.0000 0.0000 0.2065 (  8614 PWs)   bands (ev):

    -8.4457  -7.6439  -7.6439  -7.3519  -7.3040  -7.3040  -7.2869  -7.0086
    -7.0086  -6.9526  -6.9461  -6.9461   3.9688   3.9688   4.0309   4.0498
     4.0499   4.1876   4.1876   4.3343   4.3343   4.3814   4.3814   4.7410
     4.7726   4.7726   5.0285   5.0285   5.0460   5.0460   5.1215   5.1215
     5.1638   5.1638   5.1998   5.2430   5.2430   5.3488   5.4954   5.4954
     5.6291   5.6291   5.7018   5.7282   5.7282   5.8628   5.8628   5.9021
     6.8261   6.8261   6.9065   6.9065   7.0304   7.0304   7.1232   7.1477
     7.1477   7.1871   7.1871   7.3261   7.3777   7.3777   7.4290   7.4290
     7.4587   7.4780   7.4780   7.4829   7.4829   7.5875   7.6347   7.6347
     7.7642   7.8381   7.8381   8.1182   8.1651   8.1962   8.1962   8.4990
     8.4990   8.6264   8.6264   8.6969   8.6969   9.0747   9.3056   9.3056
     9.3072   9.7379   9.7379   9.8874   9.8874  10.5250  10.5250  10.7426
    10.8488  10.8488  11.0643  11.2555  11.2555  11.3593  11.3593  11.4391
    11.4391  11.7411  12.3839  12.3840

     occupation numbers 
     1.0000   1.0000   1.0000   1.0000   1.0000   1.0000   1.0000   1.0000
     1.0000   1.0000   1.0000   1.0000   1.0000   1.0000   1.0000   1.0000
     1.0000   1.0000   1.0000   1.0000   1.0000   1.0000   1.0000   1.0000
     1.0000   1.0000   1.0000   1.0000   1.0000   1.0000   1.0000   1.0000
     1.0000   1.0000   1.0000   1.0000   1.0000   1.0000   1.0000   1.0000
     1.0000   1.0000   1.0000   1.0000   1.0000   1.0000   1.0000   1.0000
     1.0000   1.0000   1.0000   1.0000   1.0000   1.0000   1.0000   1.0000
     1.0000   1.0000   1.0000   1.0000   1.0000   1.0000   1.0000   1.0000
     1.0000   1.0000   1.0000   1.0000   1.0000   1.0000   1.0000   1.0000
     1.0000   1.0000   1.0000   1.0000   1.0000   1.0000   1.0000   1.0000
     1.0000   1.0000   1.0000   1.0000   1.0000   1.0000   1.0000   1.0000
     1.0000   1.0000   1.0000   1.0000   1.0000   1.0000   1.0000   1.0000
     1.0000   1.0000   1.0000   1.0000   1.0000   1.0000   1.0000   1.0000
     1.0000   1.0000   1.0000   1.0000

          k = 0.0000 0.0000 0.4130 (  8646 PWs)   bands (ev):

    -8.2285  -7.5977  -7.5054  -7.5054  -7.2176  -7.2176  -7.2051  -7.1373
    -7.1373  -7.0111  -7.0100  -7.0100   3.8218   3.8562   3.8562   3.8562
     4.0102   4.0102   4.0302   4.0302   4.0621   4.1127   4.1127   4.4821
     4.8067   4.8067   4.9530   4.9530   5.0590   5.0590   5.1796   5.1796
     5.1881   5.1881   5.2061   5.2061   5.3160   5.3636   5.3636   5.3671
     5.4952   5.4952   5.5638   5.6465   5.6465   5.7132   5.7247   5.7247
     7.0381   7.0381   7.0725   7.0725   7.1240   7.1240   7.2028   7.2028
     7.2639   7.2639   7.3137   7.3274   7.3274   7.3414   7.3617   7.3617
     7.4082   7.4458   7.4458   7.4882   7.4882   7.5562   7.6875   7.6875
     7.8575   7.9648   7.9648   8.0166   8.4618   8.4618   8.5882   8.5882
     8.9634   9.0055   9.0055   9.1168   9.1168   9.7322   9.7617   9.7617
     9.7669   9.7669   9.7943  10.2429  10.2429  10.2872  10.2872  10.7279
    10.7893  10.8419  10.8419  10.8916  11.0777  11.0777  11.1308  11.1308
    11.5745  11.5745  12.1676  12.1676

     occupation numbers 
     1.0000   1.0000   1.0000   1.0000   1.0000   1.0000   1.0000   1.0000
     1.0000   1.0000   1.0000   1.0000   1.0000   1.0000   1.0000   1.0000
     1.0000   1.0000   1.0000   1.0000   1.0000   1.0000   1.0000   1.0000
     1.0000   1.0000   1.0000   1.0000   1.0000   1.0000   1.0000   1.0000
     1.0000   1.0000   1.0000   1.0000   1.0000   1.0000   1.0000   1.0000
     1.0000   1.0000   1.0000   1.0000   1.0000   1.0000   1.0000   1.0000
     1.0000   1.0000   1.0000   1.0000   1.0000   1.0000   1.0000   1.0000
     1.0000   1.0000   1.0000   1.0000   1.0000   1.0000   1.0000   1.0000
     1.0000   1.0000   1.0000   1.0000   1.0000   1.0000   1.0000   1.0000
     1.0000   1.0000   1.0000   1.0000   1.0000   1.0000   1.0000   1.0000
     1.0000   1.0000   1.0000   1.0000   1.0000   1.0000   1.0000   1.0000
     1.0000   1.0000   1.0000   1.0000   1.0000   1.0000   1.0000   1.0000
     1.0000   1.0000   1.0000   1.0000   1.0000   1.0000   1.0000   1.0000
     1.0000   1.0000   1.0000   1.0000

          k = 0.0000 0.0000-0.6194 (  8644 PWs)   bands (ev):

    -7.9202  -7.9202  -7.3190  -7.3190  -7.3190  -7.3190  -7.1082  -7.1082
    -7.1082  -7.1082  -7.1023  -7.1023   3.7447   3.7447   3.8382   3.8382
     3.8382   3.8382   3.9704   3.9704   3.9704   3.9704   4.2151   4.2151
     4.8698   4.8698   4.8698   4.8698   5.1174   5.1174   5.1174   5.1174
     5.2526   5.2526   5.2526   5.2526   5.3387   5.3387   5.3387   5.3387
     5.4423   5.4423   5.4973   5.4973   5.6383   5.6383   5.6383   5.6383
     7.2146   7.2146   7.2146   7.2146   7.2365   7.2365   7.2365   7.2365
     7.2630   7.2630   7.2630   7.2630   7.2797   7.2797   7.2797   7.2797
     7.3682   7.3682   7.4633   7.4633   7.5560   7.5560   7.5560   7.5560
     7.9421   7.9421   8.2555   8.2555   8.2555   8.2555   8.9057   8.9057
     8.9058   8.9058   9.6287   9.6287   9.6287   9.6287   9.9399   9.9399
    10.2494  10.2494  10.4672  10.4672  10.4672  10.4672  10.4737  10.4737
    10.5521  10.5521  10.5521  10.5521  10.6978  10.6978  10.6978  10.6978
    11.8709  11.8709  11.8709  11.8709

     occupation numbers 
     1.0000   1.0000   1.0000   1.0000   1.0000   1.0000   1.0000   1.0000
     1.0000   1.0000   1.0000   1.0000   1.0000   1.0000   1.0000   1.0000
     1.0000   1.0000   1.0000   1.0000   1.0000   1.0000   1.0000   1.0000
     1.0000   1.0000   1.0000   1.0000   1.0000   1.0000   1.0000   1.0000
     1.0000   1.0000   1.0000   1.0000   1.0000   1.0000   1.0000   1.0000
     1.0000   1.0000   1.0000   1.0000   1.0000   1.0000   1.0000   1.0000
     1.0000   1.0000   1.0000   1.0000   1.0000   1.0000   1.0000   1.0000
     1.0000   1.0000   1.0000   1.0000   1.0000   1.0000   1.0000   1.0000
     1.0000   1.0000   1.0000   1.0000   1.0000   1.0000   1.0000   1.0000
     1.0000   1.0000   1.0000   1.0000   1.0000   1.0000   1.0000   1.0000
     1.0000   1.0000   1.0000   1.0000   1.0000   1.0000   1.0000   1.0000
     1.0000   1.0000   1.0000   1.0000   1.0000   1.0000   1.0000   1.0000
     1.0000   1.0000   1.0000   1.0000   1.0000   1.0000   1.0000   1.0000
     1.0000   1.0000   1.0000   1.0000

          k = 0.0000 0.1283 0.0000 (  8600 PWs)   bands (ev):

    -8.4942  -7.8984  -7.5098  -7.3420  -7.3285  -7.3211  -7.2462  -7.0151
    -6.9336  -6.9316  -6.9282  -6.9221   4.0034   4.1120   4.1126   4.1232
     4.1672   4.2453   4.3878   4.3933   4.4224   4.5180   4.6301   4.7218
     4.7783   4.8686   5.0064   5.0350   5.0488   5.0805   5.0948   5.1280
     5.1319   5.1426   5.2460   5.2616   5.3152   5.3450   5.3603   5.5214
     5.7166   5.7796   5.7802   5.7964   5.8325   5.9167   5.9662   5.9777
     6.7187   6.7543   6.8469   6.9601   6.9775   6.9777   6.9906   7.0020
     7.0543   7.1012   7.2144   7.2487   7.3287   7.3931   7.3956   7.4017
     7.4423   7.4708   7.4892   7.4929   7.4976   7.5045   7.5452   7.5675
     7.7541   7.8165   7.8385   7.9400   7.9701   7.9963   8.2289   8.2743
     8.3040   8.4114   8.5473   8.6732   8.7620   8.9594   9.0967   9.1495
     9.1794   9.3069   9.4384  10.1044  10.3546  10.5777  10.5851  10.6359
    10.7286  10.9536  11.0228  11.1403  11.1412  11.2214  11.3617  11.5205
    11.7689  12.2116  12.2380  12.4303

     occupation numbers 
     1.0000   1.0000   1.0000   1.0000   1.0000   1.0000   1.0000   1.0000
     1.0000   1.0000   1.0000   1.0000   1.0000   1.0000   1.0000   1.0000
     1.0000   1.0000   1.0000   1.0000   1.0000   1.0000   1.0000   1.0000
     1.0000   1.0000   1.0000   1.0000   1.0000   1.0000   1.0000   1.0000
     1.0000   1.0000   1.0000   1.0000   1.0000   1.0000   1.0000   1.0000
     1.0000   1.0000   1.0000   1.0000   1.0000   1.0000   1.0000   1.0000
     1.0000   1.0000   1.0000   1.0000   1.0000   1.0000   1.0000   1.0000
     1.0000   1.0000   1.0000   1.0000   1.0000   1.0000   1.0000   1.0000
     1.0000   1.0000   1.0000   1.0000   1.0000   1.0000   1.0000   1.0000
     1.0000   1.0000   1.0000   1.0000   1.0000   1.0000   1.0000   1.0000
     1.0000   1.0000   1.0000   1.0000   1.0000   1.0000   1.0000   1.0000
     1.0000   1.0000   1.0000   1.0000   1.0000   1.0000   1.0000   1.0000
     1.0000   1.0000   1.0000   1.0000   1.0000   1.0000   1.0000   1.0000
     1.0000   1.0000   1.0000   1.0000

          k = 0.0000 0.1283 0.2065 (  8610 PWs)   bands (ev):

    -8.4171  -7.8394  -7.4675  -7.3368  -7.3088  -7.2964  -7.2897  -7.0735
    -6.9674  -6.9515  -6.9489  -6.9443   3.9371   4.0290   4.0538   4.0750
     4.0844   4.1202   4.2473   4.2507   4.3030   4.3897   4.4210   4.6742
     4.7887   4.8192   5.0226   5.0490   5.0577   5.0586   5.0613   5.1105
     5.1614   5.1663   5.1758   5.2584   5.2970   5.3192   5.3335   5.4762
     5.6277   5.7100   5.7137   5.7254   5.7678   5.8516   5.8832   5.8977
     6.8160   6.8398   6.9255   7.0146   7.0166   7.0273   7.0814   7.0993
     7.1747   7.2167   7.2274   7.2790   7.3803   7.3859   7.4160   7.4435
     7.4647   7.4747   7.4759   7.4852   7.4971   7.6020   7.6248   7.6338
     7.7654   7.7831   7.9086   7.9418   8.1646   8.1928   8.2262   8.3685
     8.3834   8.4872   8.8067   8.9049   8.9888   9.0673   9.1424   9.3229
     9.3383   9.3616   9.5916  10.2209  10.2261  10.4835  10.6164  10.7070
    10.7892  10.9391  11.0106  11.0264  11.2200  11.2451  11.3017  11.5000
    11.6637  11.6839  12.2766  12.3498

     occupation numbers 
     1.0000   1.0000   1.0000   1.0000   1.0000   1.0000   1.0000   1.0000
     1.0000   1.0000   1.0000   1.0000   1.0000   1.0000   1.0000   1.0000
     1.0000   1.0000   1.0000   1.0000   1.0000   1.0000   1.0000   1.0000
     1.0000   1.0000   1.0000   1.0000   1.0000   1.0000   1.0000   1.0000
     1.0000   1.0000   1.0000   1.0000   1.0000   1.0000   1.0000   1.0000
     1.0000   1.0000   1.0000   1.0000   1.0000   1.0000   1.0000   1.0000
     1.0000   1.0000   1.0000   1.0000   1.0000   1.0000   1.0000   1.0000
     1.0000   1.0000   1.0000   1.0000   1.0000   1.0000   1.0000   1.0000
     1.0000   1.0000   1.0000   1.0000   1.0000   1.0000   1.0000   1.0000
     1.0000   1.0000   1.0000   1.0000   1.0000   1.0000   1.0000   1.0000
     1.0000   1.0000   1.0000   1.0000   1.0000   1.0000   1.0000   1.0000
     1.0000   1.0000   1.0000   1.0000   1.0000   1.0000   1.0000   1.0000
     1.0000   1.0000   1.0000   1.0000   1.0000   1.0000   1.0000   1.0000
     1.0000   1.0000   1.0000   1.0000

          k = 0.0000 0.1283 0.4130 (  8638 PWs)   bands (ev):

    -8.2021  -7.6776  -7.5790  -7.3540  -7.2343  -7.2212  -7.2121  -7.2071
    -7.0640  -7.0108  -7.0104  -7.0097   3.8110   3.8461   3.8955   3.9210
     3.9370   3.9493   3.9945   4.0672   4.0733   4.1296   4.1868   4.4524
     4.8209   4.8235   4.9542   4.9723   4.9931   5.0889   5.0907   5.1259
     5.1701   5.2301   5.2669   5.2720   5.2762   5.2774   5.3428   5.3644
     5.4750   5.5851   5.6084   5.6215   5.6563   5.7149   5.7188   5.7303
     7.0187   7.0278   7.1127   7.1160   7.1213   7.1537   7.1567   7.2528
     7.2580   7.2641   7.2863   7.3178   7.3278   7.3316   7.3452   7.3830
     7.4136   7.4371   7.4704   7.4853   7.4955   7.5809   7.6337   7.7170
     7.8627   7.8951   8.0464   8.0920   8.1851   8.2659   8.5688   8.6184
     8.9261   8.9700   9.0119   9.3499   9.3850   9.5760   9.5838   9.7260
     9.8682   9.8816   9.9799  10.0151  10.2512  10.4198  10.5478  10.6110
    10.8296  10.8369  10.8448  10.8779  10.9221  10.9467  11.2034  11.3735
    11.4418  11.5225  12.0604  12.1290

     occupation numbers 
     1.0000   1.0000   1.0000   1.0000   1.0000   1.0000   1.0000   1.0000
     1.0000   1.0000   1.0000   1.0000   1.0000   1.0000   1.0000   1.0000
     1.0000   1.0000   1.0000   1.0000   1.0000   1.0000   1.0000   1.0000
     1.0000   1.0000   1.0000   1.0000   1.0000   1.0000   1.0000   1.0000
     1.0000   1.0000   1.0000   1.0000   1.0000   1.0000   1.0000   1.0000
     1.0000   1.0000   1.0000   1.0000   1.0000   1.0000   1.0000   1.0000
     1.0000   1.0000   1.0000   1.0000   1.0000   1.0000   1.0000   1.0000
     1.0000   1.0000   1.0000   1.0000   1.0000   1.0000   1.0000   1.0000
     1.0000   1.0000   1.0000   1.0000   1.0000   1.0000   1.0000   1.0000
     1.0000   1.0000   1.0000   1.0000   1.0000   1.0000   1.0000   1.0000
     1.0000   1.0000   1.0000   1.0000   1.0000   1.0000   1.0000   1.0000
     1.0000   1.0000   1.0000   1.0000   1.0000   1.0000   1.0000   1.0000
     1.0000   1.0000   1.0000   1.0000   1.0000   1.0000   1.0000   1.0000
     1.0000   1.0000   1.0000   1.0000

          k = 0.0000 0.1283-0.6194 (  8644 PWs)   bands (ev):

    -7.8973  -7.8973  -7.4558  -7.4558  -7.2048  -7.2048  -7.1099  -7.1099
    -7.1055  -7.1055  -7.1032  -7.1032   3.7756   3.7756   3.7845   3.7845
     3.8600   3.8600   3.9139   3.9139   4.0557   4.0557   4.2020   4.2020
     4.8763   4.8763   4.8878   4.8878   5.0269   5.0269   5.1433   5.1433
     5.2344   5.2344   5.2442   5.2442   5.3499   5.3499   5.3647   5.3647
     5.4236   5.4236   5.5508   5.5508   5.6036   5.6036   5.6555   5.6555
     7.1895   7.1895   7.2347   7.2347   7.2348   7.2348   7.2362   7.2362
     7.2499   7.2499   7.2633   7.2633   7.3170   7.3170   7.3187   7.3187
     7.3267   7.3267   7.4919   7.4919   7.5287   7.5287   7.5711   7.5711
     7.9865   7.9865   8.1032   8.1032   8.3820   8.3820   8.4529   8.4529
     9.3863   9.3863   9.4255   9.4255   9.9033   9.9033   9.9459   9.9459
    10.1418  10.1418  10.4657  10.4657  10.4673  10.4673  10.4991  10.4991
    10.5027  10.5027  10.5349  10.5349  10.5594  10.5594  10.9681  10.9681
    11.7480  11.7480  11.8259  11.8259

     occupation numbers 
     1.0000   1.0000   1.0000   1.0000   1.0000   1.0000   1.0000   1.0000
     1.0000   1.0000   1.0000   1.0000   1.0000   1.0000   1.0000   1.0000
     1.0000   1.0000   1.0000   1.0000   1.0000   1.0000   1.0000   1.0000
     1.0000   1.0000   1.0000   1.0000   1.0000   1.0000   1.0000   1.0000
     1.0000   1.0000   1.0000   1.0000   1.0000   1.0000   1.0000   1.0000
     1.0000   1.0000   1.0000   1.0000   1.0000   1.0000   1.0000   1.0000
     1.0000   1.0000   1.0000   1.0000   1.0000   1.0000   1.0000   1.0000
     1.0000   1.0000   1.0000   1.0000   1.0000   1.0000   1.0000   1.0000
     1.0000   1.0000   1.0000   1.0000   1.0000   1.0000   1.0000   1.0000
     1.0000   1.0000   1.0000   1.0000   1.0000   1.0000   1.0000   1.0000
     1.0000   1.0000   1.0000   1.0000   1.0000   1.0000   1.0000   1.0000
     1.0000   1.0000   1.0000   1.0000   1.0000   1.0000   1.0000   1.0000
     1.0000   1.0000   1.0000   1.0000   1.0000   1.0000   1.0000   1.0000
     1.0000   1.0000   1.0000   1.0000

          k = 0.0000 0.2566 0.0000 (  8577 PWs)   bands (ev):

    -8.4082  -8.0973  -7.3719  -7.3420  -7.3285  -7.3211  -7.2075  -7.0815
    -6.9316  -6.9292  -6.9282  -6.9221   4.0471   4.1232   4.1672   4.2111
     4.2335   4.2453   4.2833   4.3878   4.3933   4.5180   4.6233   4.6248
     4.8223   4.9033   4.9070   4.9632   5.0287   5.0948   5.1280   5.1416
     5.1426   5.1534   5.1800   5.2460   5.3152   5.3343   5.3450   5.3690
     5.7654   5.7796   5.7802   5.7964   5.9167   5.9402   5.9662   5.9777
     6.7543   6.7831   6.9318   6.9601   6.9775   6.9820   6.9851   7.0020
     7.0073   7.1012   7.2487   7.2897   7.4046   7.4253   7.4292   7.4371
     7.4722   7.4824   7.4892   7.4929   7.4976   7.5045   7.5452   7.5675
     7.7137   7.7541   7.8165   7.8288   7.8768   7.9963   8.2289   8.2743
     8.3270   8.4114   8.5473   8.6732   8.7620   8.8670   9.0967   9.1495
     9.1794   9.2163   9.5674  10.4615  10.5776  10.5851  10.6359  10.7286
    10.7431  10.7507  10.8609  11.0228  11.0499  11.1403  11.2320  11.7793
    11.8066  11.9878  12.1307  12.3346

     occupation numbers 
     1.0000   1.0000   1.0000   1.0000   1.0000   1.0000   1.0000   1.0000
     1.0000   1.0000   1.0000   1.0000   1.0000   1.0000   1.0000   1.0000
     1.0000   1.0000   1.0000   1.0000   1.0000   1.0000   1.0000   1.0000
     1.0000   1.0000   1.0000   1.0000   1.0000   1.0000   1.0000   1.0000
     1.0000   1.0000   1.0000   1.0000   1.0000   1.0000   1.0000   1.0000
     1.0000   1.0000   1.0000   1.0000   1.0000   1.0000   1.0000   1.0000
     1.0000   1.0000   1.0000   1.0000   1.0000   1.0000   1.0000   1.0000
     1.0000   1.0000   1.0000   1.0000   1.0000   1.0000   1.0000   1.0000
     1.0000   1.0000   1.0000   1.0000   1.0000   1.0000   1.0000   1.0000
     1.0000   1.0000   1.0000   1.0000   1.0000   1.0000   1.0000   1.0000
     1.0000   1.0000   1.0000   1.0000   1.0000   1.0000   1.0000   1.0000
     1.0000   1.0000   1.0000   1.0000   1.0000   1.0000   1.0000   1.0000
     1.0000   1.0000   1.0000   1.0000   1.0000   1.0000   1.0000   1.0000
     1.0000   1.0000   1.0000   1.0000

          k = 0.0000 0.2566 0.2065 (  8603 PWs)   bands (ev):

    -8.3334  -8.0315  -7.3373  -7.3088  -7.2964  -7.2938  -7.2897  -7.1512
    -6.9530  -6.9515  -6.9489  -6.9443   3.9641   4.0290   4.0844   4.1202
     4.1411   4.1434   4.1636   4.2507   4.3030   4.4055   4.4210   4.5627
     4.8338   4.8763   4.9722   4.9808   5.0155   5.0613   5.1088   5.1105
     5.1589   5.1614   5.1758   5.1918   5.2970   5.3246   5.3299   5.3335
     5.6880   5.7100   5.7137   5.7254   5.8516   5.8663   5.8832   5.8977
     6.8398   6.8607   6.9783   7.0146   7.0215   7.0396   7.0656   7.0993
     7.1747   7.2167   7.2790   7.2971   7.3868   7.4051   7.4077   7.4548
     7.4619   7.4647   7.4759   7.4852   7.5828   7.6020   7.6248   7.6338
     7.7137   7.7654   7.7831   7.9086   8.1644   8.1921   8.1928   8.3156
     8.3685   8.3834   8.8067   8.9049   8.9888   9.1093   9.1424   9.3383
     9.3616   9.3835   9.6608  10.4835  10.5694  10.6164  10.7026  10.7070
    10.7892  10.8180  10.8311  10.9391  11.0264  11.1120  11.1364  11.4882
    11.7148  11.8897  12.0761  12.2497

     occupation numbers 
     1.0000   1.0000   1.0000   1.0000   1.0000   1.0000   1.0000   1.0000
     1.0000   1.0000   1.0000   1.0000   1.0000   1.0000   1.0000   1.0000
     1.0000   1.0000   1.0000   1.0000   1.0000   1.0000   1.0000   1.0000
     1.0000   1.0000   1.0000   1.0000   1.0000   1.0000   1.0000   1.0000
     1.0000   1.0000   1.0000   1.0000   1.0000   1.0000   1.0000   1.0000
     1.0000   1.0000   1.0000   1.0000   1.0000   1.0000   1.0000   1.0000
     1.0000   1.0000   1.0000   1.0000   1.0000   1.0000   1.0000   1.0000
     1.0000   1.0000   1.0000   1.0000   1.0000   1.0000   1.0000   1.0000
     1.0000   1.0000   1.0000   1.0000   1.0000   1.0000   1.0000   1.0000
     1.0000   1.0000   1.0000   1.0000   1.0000   1.0000   1.0000   1.0000
     1.0000   1.0000   1.0000   1.0000   1.0000   1.0000   1.0000   1.0000
     1.0000   1.0000   1.0000   1.0000   1.0000   1.0000   1.0000   1.0000
     1.0000   1.0000   1.0000   1.0000   1.0000   1.0000   1.0000   1.0000
     1.0000   1.0000   1.0000   1.0000

          k = 0.0000 0.2566 0.4130 (  8638 PWs)   bands (ev):

    -8.1251  -7.8499  -7.5251  -7.3410  -7.2458  -7.2212  -7.2121  -7.2071
    -7.0228  -7.0108  -7.0104  -7.0097   3.8058   3.8461   3.8923   3.8955
     3.9210   3.9945   4.0240   4.0758   4.1296   4.1487   4.1868   4.3700
     4.8621   4.8720   4.9664   4.9931   4.9997   5.0292   5.0349   5.0889
     5.1041   5.1701   5.2341   5.2720   5.2762   5.3038   5.3427   5.3428
     5.5426   5.5851   5.6215   5.6563   5.6858   5.7149   5.7188   5.7303
     7.0278   7.0339   7.0941   7.1158   7.1246   7.1567   7.2351   7.2528
     7.2580   7.2863   7.3178   7.3187   7.3288   7.3355   7.3430   7.3853
     7.4013   7.4371   7.4704   7.4955   7.5360   7.5809   7.6337   7.7170
     7.8627   7.8951   7.9077   8.0464   8.0920   8.2376   8.2659   8.5688
     8.9878   9.0119   9.0160   9.3499   9.5760   9.5838   9.7680   9.7980
     9.8682   9.8816   9.9128  10.2512  10.3990  10.4198  10.6110  10.7791
    10.8016  10.8296  10.8355  10.8369  10.8448  10.8588  11.0947  11.3337
    11.3731  11.6193  11.8000  12.0167

     occupation numbers 
     1.0000   1.0000   1.0000   1.0000   1.0000   1.0000   1.0000   1.0000
     1.0000   1.0000   1.0000   1.0000   1.0000   1.0000   1.0000   1.0000
     1.0000   1.0000   1.0000   1.0000   1.0000   1.0000   1.0000   1.0000
     1.0000   1.0000   1.0000   1.0000   1.0000   1.0000   1.0000   1.0000
     1.0000   1.0000   1.0000   1.0000   1.0000   1.0000   1.0000   1.0000
     1.0000   1.0000   1.0000   1.0000   1.0000   1.0000   1.0000   1.0000
     1.0000   1.0000   1.0000   1.0000   1.0000   1.0000   1.0000   1.0000
     1.0000   1.0000   1.0000   1.0000   1.0000   1.0000   1.0000   1.0000
     1.0000   1.0000   1.0000   1.0000   1.0000   1.0000   1.0000   1.0000
     1.0000   1.0000   1.0000   1.0000   1.0000   1.0000   1.0000   1.0000
     1.0000   1.0000   1.0000   1.0000   1.0000   1.0000   1.0000   1.0000
     1.0000   1.0000   1.0000   1.0000   1.0000   1.0000   1.0000   1.0000
     1.0000   1.0000   1.0000   1.0000   1.0000   1.0000   1.0000   1.0000
     1.0000   1.0000   1.0000   1.0000

          k = 0.0000 0.2566-0.6194 (  8632 PWs)   bands (ev):

    -7.8308  -7.8308  -7.5975  -7.5975  -7.1289  -7.1289  -7.1099  -7.1099
    -7.1055  -7.1055  -7.1032  -7.1032   3.7543   3.7543   3.7756   3.7756
     3.8600   3.8600   4.0034   4.0034   4.0557   4.0557   4.1608   4.1608
     4.9022   4.9022   4.9405   4.9405   5.0269   5.0269   5.0395   5.0395
     5.1243   5.1243   5.2442   5.2442   5.3647   5.3647   5.4179   5.4179
     5.4784   5.4784   5.5508   5.5508   5.6036   5.6036   5.6555   5.6555
     7.1895   7.1895   7.2267   7.2267   7.2306   7.2306   7.2314   7.2314
     7.2338   7.2338   7.2633   7.2633   7.3267   7.3267   7.3538   7.3538
     7.4020   7.4020   7.4919   7.4919   7.5287   7.5287   7.5711   7.5711
     7.9865   7.9865   8.0988   8.0988   8.1032   8.1032   8.3820   8.3820
     9.4255   9.4255   9.7683   9.7683   9.9033   9.9033   9.9549   9.9549
    10.1418  10.1418  10.3065  10.3065  10.4718  10.4718  10.5027  10.5027
    10.5349  10.5349  10.5594  10.5594  10.6502  10.6502  11.2437  11.2437
    11.4232  11.4232  11.6959  11.6959

     occupation numbers 
     1.0000   1.0000   1.0000   1.0000   1.0000   1.0000   1.0000   1.0000
     1.0000   1.0000   1.0000   1.0000   1.0000   1.0000   1.0000   1.0000
     1.0000   1.0000   1.0000   1.0000   1.0000   1.0000   1.0000   1.0000
     1.0000   1.0000   1.0000   1.0000   1.0000   1.0000   1.0000   1.0000
     1.0000   1.0000   1.0000   1.0000   1.0000   1.0000   1.0000   1.0000
     1.0000   1.0000   1.0000   1.0000   1.0000   1.0000   1.0000   1.0000
     1.0000   1.0000   1.0000   1.0000   1.0000   1.0000   1.0000   1.0000
     1.0000   1.0000   1.0000   1.0000   1.0000   1.0000   1.0000   1.0000
     1.0000   1.0000   1.0000   1.0000   1.0000   1.0000   1.0000   1.0000
     1.0000   1.0000   1.0000   1.0000   1.0000   1.0000   1.0000   1.0000
     1.0000   1.0000   1.0000   1.0000   1.0000   1.0000   1.0000   1.0000
     1.0000   1.0000   1.0000   1.0000   1.0000   1.0000   1.0000   1.0000
     1.0000   1.0000   1.0000   1.0000   1.0000   1.0000   1.0000   1.0000
     1.0000   1.0000   1.0000   1.0000

          k = 0.0000-0.3849 0.0000 (  8590 PWs)   bands (ev):

    -8.2723  -8.2723  -7.3368  -7.3368  -7.3181  -7.3181  -7.1495  -7.1495
    -6.9331  -6.9331  -6.9245  -6.9245   4.1453   4.1453   4.1517   4.1517
     4.2651   4.2651   4.3052   4.3052   4.5207   4.5207   4.5483   4.5483
     4.8878   4.8878   4.9114   4.9114   5.0630   5.0630   5.0651   5.0651
     5.1600   5.1600   5.2397   5.2397   5.2856   5.2856   5.3597   5.3597
     5.7724   5.7724   5.8017   5.8017   5.9398   5.9398   5.9798   5.9798
     6.8512   6.8512   6.8629   6.8629   6.9869   6.9869   7.0085   7.0085
     7.0126   7.0126   7.3209   7.3209   7.4164   7.4164   7.4459   7.4459
     7.4867   7.4867   7.4957   7.4957   7.5205   7.5205   7.5763   7.5763
     7.7269   7.7269   7.8322   7.8322   7.9014   7.9014   8.2200   8.2200
     8.3783   8.3783   8.5924   8.5924   8.7179   8.7179   9.1341   9.1342
     9.1703   9.1703  10.1926  10.1926  10.5459  10.5459  10.6629  10.6629
    10.7872  10.7872  10.8721  10.8721  11.1855  11.1855  11.3441  11.3441
    11.9855  11.9855  12.1828  12.1828

     occupation numbers 
     1.0000   1.0000   1.0000   1.0000   1.0000   1.0000   1.0000   1.0000
     1.0000   1.0000   1.0000   1.0000   1.0000   1.0000   1.0000   1.0000
     1.0000   1.0000   1.0000   1.0000   1.0000   1.0000   1.0000   1.0000
     1.0000   1.0000   1.0000   1.0000   1.0000   1.0000   1.0000   1.0000
     1.0000   1.0000   1.0000   1.0000   1.0000   1.0000   1.0000   1.0000
     1.0000   1.0000   1.0000   1.0000   1.0000   1.0000   1.0000   1.0000
     1.0000   1.0000   1.0000   1.0000   1.0000   1.0000   1.0000   1.0000
     1.0000   1.0000   1.0000   1.0000   1.0000   1.0000   1.0000   1.0000
     1.0000   1.0000   1.0000   1.0000   1.0000   1.0000   1.0000   1.0000
     1.0000   1.0000   1.0000   1.0000   1.0000   1.0000   1.0000   1.0000
     1.0000   1.0000   1.0000   1.0000   1.0000   1.0000   1.0000   1.0000
     1.0000   1.0000   1.0000   1.0000   1.0000   1.0000   1.0000   1.0000
     1.0000   1.0000   1.0000   1.0000   1.0000   1.0000   1.0000   1.0000
     1.0000   1.0000   1.0000   1.0000

          k = 0.0000-0.3849 0.2065 (  8600 PWs)   bands (ev):

    -8.2012  -8.2012  -7.3040  -7.3040  -7.2869  -7.2869  -7.2287  -7.2287
    -6.9526  -6.9526  -6.9461  -6.9461   4.0309   4.0309   4.0499   4.0499
     4.1876   4.1876   4.2049   4.2049   4.3814   4.3814   4.4462   4.4462
     4.9016   4.9016   4.9240   4.9240   5.0460   5.0460   5.0507   5.0507
     5.1998   5.1998   5.2047   5.2047   5.2430   5.2430   5.3488   5.3488
     5.7018   5.7018   5.7282   5.7282   5.8628   5.8628   5.9021   5.9021
     6.9065   6.9065   6.9221   6.9221   7.0221   7.0221   7.1232   7.1232
     7.1871   7.1871   7.3261   7.3261   7.3954   7.3954   7.4364   7.4364
     7.4587   7.4587   7.4829   7.4829   7.5875   7.5875   7.6347   7.6347
     7.7642   7.7642   7.8381   7.8381   8.1182   8.1182   8.1707   8.1707
     8.4990   8.4990   8.6969   8.6969   9.0747   9.0747   9.3056   9.3056
     9.3072   9.3072  10.2783  10.2783  10.5250  10.5250  10.7426  10.7426
    10.8488  10.8488  10.8832  10.8832  11.0643  11.0643  11.1424  11.1424
    11.8970  11.8970  12.0917  12.0917

     occupation numbers 
     1.0000   1.0000   1.0000   1.0000   1.0000   1.0000   1.0000   1.0000
     1.0000   1.0000   1.0000   1.0000   1.0000   1.0000   1.0000   1.0000
     1.0000   1.0000   1.0000   1.0000   1.0000   1.0000   1.0000   1.0000
     1.0000   1.0000   1.0000   1.0000   1.0000   1.0000   1.0000   1.0000
     1.0000   1.0000   1.0000   1.0000   1.0000   1.0000   1.0000   1.0000
     1.0000   1.0000   1.0000   1.0000   1.0000   1.0000   1.0000   1.0000
     1.0000   1.0000   1.0000   1.0000   1.0000   1.0000   1.0000   1.0000
     1.0000   1.0000   1.0000   1.0000   1.0000   1.0000   1.0000   1.0000
     1.0000   1.0000   1.0000   1.0000   1.0000   1.0000   1.0000   1.0000
     1.0000   1.0000   1.0000   1.0000   1.0000   1.0000   1.0000   1.0000
     1.0000   1.0000   1.0000   1.0000   1.0000   1.0000   1.0000   1.0000
     1.0000   1.0000   1.0000   1.0000   1.0000   1.0000   1.0000   1.0000
     1.0000   1.0000   1.0000   1.0000   1.0000   1.0000   1.0000   1.0000
     1.0000   1.0000   1.0000   1.0000

          k = 0.0000-0.3849 0.4130 (  8622 PWs)   bands (ev):

    -8.0040  -8.0040  -7.4423  -7.4423  -7.2176  -7.2176  -7.2051  -7.2051
    -7.0111  -7.0111  -7.0100  -7.0100   3.8218   3.8218   3.8562   3.8562
     4.0302   4.0302   4.0698   4.0698   4.1127   4.1127   4.2564   4.2564
     4.9240   4.9240   4.9460   4.9460   5.0117   5.0117   5.0590   5.0590
     5.1189   5.1189   5.1796   5.1796   5.3160   5.3160   5.3671   5.3671
     5.5638   5.5638   5.6465   5.6465   5.7132   5.7132   5.7247   5.7247
     7.0640   7.0640   7.0725   7.0725   7.1143   7.1143   7.2639   7.2639
     7.3137   7.3137   7.3310   7.3310   7.3414   7.3414   7.3615   7.3615
     7.4082   7.4082   7.4882   7.4882   7.5561   7.5561   7.6875   7.6875
     7.8575   7.8575   7.9648   7.9648   8.0166   8.0166   8.4618   8.4618
     9.0101   9.0101   9.1168   9.1168   9.7322   9.7322   9.7617   9.7617
     9.7943   9.7943  10.2872  10.2872  10.4693  10.4693  10.7279  10.7279
    10.7438  10.7438  10.7893  10.7893  10.8419  10.8419  11.1436  11.1436
    11.5228  11.5228  11.8412  11.8412

     occupation numbers 
     1.0000   1.0000   1.0000   1.0000   1.0000   1.0000   1.0000   1.0000
     1.0000   1.0000   1.0000   1.0000   1.0000   1.0000   1.0000   1.0000
     1.0000   1.0000   1.0000   1.0000   1.0000   1.0000   1.0000   1.0000
     1.0000   1.0000   1.0000   1.0000   1.0000   1.0000   1.0000   1.0000
     1.0000   1.0000   1.0000   1.0000   1.0000   1.0000   1.0000   1.0000
     1.0000   1.0000   1.0000   1.0000   1.0000   1.0000   1.0000   1.0000
     1.0000   1.0000   1.0000   1.0000   1.0000   1.0000   1.0000   1.0000
     1.0000   1.0000   1.0000   1.0000   1.0000   1.0000   1.0000   1.0000
     1.0000   1.0000   1.0000   1.0000   1.0000   1.0000   1.0000   1.0000
     1.0000   1.0000   1.0000   1.0000   1.0000   1.0000   1.0000   1.0000
     1.0000   1.0000   1.0000   1.0000   1.0000   1.0000   1.0000   1.0000
     1.0000   1.0000   1.0000   1.0000   1.0000   1.0000   1.0000   1.0000
     1.0000   1.0000   1.0000   1.0000   1.0000   1.0000   1.0000   1.0000
     1.0000   1.0000   1.0000   1.0000

          k = 0.0000-0.3849-0.6194 (  8656 PWs)   bands (ev):

    -7.7273  -7.7273  -7.7273  -7.7273  -7.1082  -7.1082  -7.1082  -7.1082
    -7.1023  -7.1023  -7.1023  -7.1023   3.7447   3.7447   3.7447   3.7447
     3.9704   3.9704   3.9704   3.9704   4.0912   4.0912   4.0912   4.0912
     4.9562   4.9562   4.9562   4.9562   5.0222   5.0222   5.0222   5.0222
     5.1174   5.1174   5.1174   5.1174   5.4423   5.4423   5.4423   5.4423
     5.4973   5.4973   5.4973   5.4973   5.6383   5.6383   5.6383   5.6383
     7.2146   7.2146   7.2146   7.2146   7.2265   7.2265   7.2265   7.2265
     7.2291   7.2291   7.2291   7.2291   7.3682   7.3682   7.3682   7.3682
     7.4633   7.4633   7.4633   7.4633   7.5560   7.5560   7.5560   7.5560
     7.9421   7.9421   7.9421   7.9421   8.2555   8.2555   8.2555   8.2555
     9.6287   9.6287   9.6287   9.6287   9.9292   9.9292   9.9292   9.9292
    10.2494  10.2494  10.2494  10.2494  10.4737  10.4737  10.4737  10.4737
    10.5521  10.5521  10.5521  10.5521  11.0029  11.0029  11.0029  11.0029
    11.4948  11.4948  11.4948  11.4948

     occupation numbers 
     1.0000   1.0000   1.0000   1.0000   1.0000   1.0000   1.0000   1.0000
     1.0000   1.0000   1.0000   1.0000   1.0000   1.0000   1.0000   1.0000
     1.0000   1.0000   1.0000   1.0000   1.0000   1.0000   1.0000   1.0000
     1.0000   1.0000   1.0000   1.0000   1.0000   1.0000   1.0000   1.0000
     1.0000   1.0000   1.0000   1.0000   1.0000   1.0000   1.0000   1.0000
     1.0000   1.0000   1.0000   1.0000   1.0000   1.0000   1.0000   1.0000
     1.0000   1.0000   1.0000   1.0000   1.0000   1.0000   1.0000   1.0000
     1.0000   1.0000   1.0000   1.0000   1.0000   1.0000   1.0000   1.0000
     1.0000   1.0000   1.0000   1.0000   1.0000   1.0000   1.0000   1.0000
     1.0000   1.0000   1.0000   1.0000   1.0000   1.0000   1.0000   1.0000
     1.0000   1.0000   1.0000   1.0000   1.0000   1.0000   1.0000   1.0000
     1.0000   1.0000   1.0000   1.0000   1.0000   1.0000   1.0000   1.0000
     1.0000   1.0000   1.0000   1.0000   1.0000   1.0000   1.0000   1.0000
     1.0000   1.0000   1.0000   1.0000

          k = 0.1667 0.0962 0.0000 (  8623 PWs)   bands (ev):

    -8.4580  -7.8128  -7.5251  -7.5251  -7.4329  -7.2297  -7.1640  -6.9903
    -6.9532  -6.9339  -6.9339  -6.9289   4.0171   4.0633   4.0633   4.1291
     4.1557   4.3540   4.4836   4.4883   4.4883   4.5893   4.6776   4.7444
     4.7970   4.8875   4.9911   5.0376   5.0723   5.0737   5.0737   5.1061
     5.1447   5.1544   5.2222   5.2690   5.2690   5.3034   5.3797   5.6018
     5.6896   5.6896   5.7501   5.8144   5.8144   5.8934   5.9225   6.0252
     6.7229   6.7969   6.7969   6.8525   6.9276   6.9277   6.9582   6.9876
     7.0499   7.1127   7.1127   7.2417   7.2556   7.3164   7.3749   7.3989
     7.3996   7.4125   7.4225   7.4225   7.4468   7.4731   7.4731   7.4773
     7.7816   7.8093   7.8334   7.9966   7.9966   8.0256   8.2699   8.3298
     8.3496   8.3496   8.6151   8.8130   9.0653   9.2256   9.2256   9.3074
     9.3129   9.4553   9.4553   9.7729  10.0880  10.1775  10.3914  10.8358
    10.9662  10.9662  10.9731  11.1485  11.2779  11.2779  11.2877  11.4203
    11.5900  12.0284  12.1806  12.3900

     occupation numbers 
     1.0000   1.0000   1.0000   1.0000   1.0000   1.0000   1.0000   1.0000
     1.0000   1.0000   1.0000   1.0000   1.0000   1.0000   1.0000   1.0000
     1.0000   1.0000   1.0000   1.0000   1.0000   1.0000   1.0000   1.0000
     1.0000   1.0000   1.0000   1.0000   1.0000   1.0000   1.0000   1.0000
     1.0000   1.0000   1.0000   1.0000   1.0000   1.0000   1.0000   1.0000
     1.0000   1.0000   1.0000   1.0000   1.0000   1.0000   1.0000   1.0000
     1.0000   1.0000   1.0000   1.0000   1.0000   1.0000   1.0000   1.0000
[...]
     xc contribution           =    -661.97055649 Ry
     ewald contribution        =   -1439.02406574 Ry

     convergence has been achieved in  27 iterations

     Forces acting on atoms (cartesian axes, Ry/au):

     atom    1 type  1   force =     0.00000031    0.00000034    0.00180536
     atom    2 type  1   force =     0.00000003   -0.00000017    0.00180469
     atom    3 type  2   force =    -0.00000011    0.00000022   -0.00180477
     atom    4 type  2   force =    -0.00000034   -0.00000003   -0.00180520
     atom    5 type  1   force =     0.00000032   -0.00000039    0.00180481
     atom    6 type  1   force =     0.00000030    0.00000010    0.00180514
     atom    7 type  2   force =    -0.00000027    0.00000035   -0.00180517
     atom    8 type  2   force =    -0.00000024   -0.00000013   -0.00180481
     atom    9 type  1   force =     0.00000020    0.00000088    0.00180570
     atom   10 type  1   force =    -0.00000005   -0.00000040    0.00180426
     atom   11 type  2   force =    -0.00000043   -0.00000048   -0.00180496
     atom   12 type  2   force =    -0.00000018   -0.00000097   -0.00180535
     atom   13 type  1   force =    -0.00000040    0.00000001    0.00180597
     atom   14 type  1   force =     0.00000011    0.00000025    0.00180456
     atom   15 type  2   force =     0.00000006    0.00000075   -0.00180467
     atom   16 type  2   force =     0.00000037    0.00000020   -0.00180535
     atom   17 type  1   force =    -0.00000067   -0.00000071    0.00180537
     atom   18 type  1   force =    -0.00000009   -0.00000026    0.00180470
     atom   19 type  2   force =     0.00000029    0.00000060   -0.00180501
     atom   20 type  2   force =     0.00000035    0.00000029   -0.00180502
     atom   21 type  1   force =    -0.00000033    0.00000035    0.00180649
     atom   22 type  1   force =     0.00000008    0.00000010    0.00180359
     atom   23 type  2   force =     0.00000024   -0.00000020   -0.00180482
     atom   24 type  2   force =     0.00000044   -0.00000071   -0.00180550
     The non-local contrib.  to forces
     atom    1 type  1   force =     0.00000036   -0.00000062   -0.00725306
     atom    2 type  1   force =     0.00000022    0.00000046   -0.00725364
     atom    3 type  2   force =     0.00000025    0.00000294   -0.00092800
     atom    4 type  2   force =    -0.00000056   -0.00000273   -0.00092846
     atom    5 type  1   force =     0.00000046   -0.00000095   -0.00725332
     atom    6 type  1   force =     0.00000035    0.00000055   -0.00725317
     atom    7 type  2   force =    -0.00000004    0.00000313   -0.00092851
     atom    8 type  2   force =    -0.00000031   -0.00000298   -0.00092805
     atom    9 type  1   force =     0.00000040    0.00000044   -0.00725267
     atom   10 type  1   force =     0.00000006    0.00000094   -0.00725393
     atom   11 type  2   force =    -0.00000015    0.00000236   -0.00092831
     atom   12 type  2   force =    -0.00000048   -0.00000376   -0.00092866
     atom   13 type  1   force =    -0.00000030   -0.00000103   -0.00725250
     atom   14 type  1   force =    -0.00000023    0.00000056   -0.00725388
     atom   15 type  2   force =     0.00000014    0.00000352   -0.00092779
     atom   16 type  2   force =     0.00000022   -0.00000250   -0.00092879
     atom   17 type  1   force =    -0.00000052   -0.00000140   -0.00725290
     atom   18 type  1   force =    -0.00000025    0.00000021   -0.00725371
     atom   19 type  2   force =     0.00000057    0.00000350   -0.00092831
     atom   20 type  2   force =     0.00000009   -0.00000237   -0.00092836
     atom   21 type  1   force =    -0.00000019   -0.00000002   -0.00725215
     atom   22 type  1   force =    -0.00000013    0.00000088   -0.00725460
     atom   23 type  2   force =     0.00000036    0.00000246   -0.00092823
     atom   24 type  2   force =     0.00000040   -0.00000336   -0.00092894
     The ionic contribution  to forces
     atom    1 type  1   force =    -0.00000000    0.00000001    0.07742817
     atom    2 type  1   force =     0.00000000    0.00000001    0.07742818
     atom    3 type  2   force =    -0.00000000    0.00000001   -0.07742817
     atom    4 type  2   force =     0.00000000    0.00000000   -0.07742818
     atom    5 type  1   force =    -0.00000001    0.00000001    0.07742817
     atom    6 type  1   force =     0.00000001   -0.00000001    0.07742817
     atom    7 type  2   force =    -0.00000001    0.00000001   -0.07742817
     atom    8 type  2   force =     0.00000001   -0.00000001   -0.07742817
     atom    9 type  1   force =    -0.00000000   -0.00000001    0.07742818
     atom   10 type  1   force =     0.00000000   -0.00000001    0.07742817
     atom   11 type  2   force =    -0.00000000   -0.00000000   -0.07742818
     atom   12 type  2   force =     0.00000000   -0.00000001   -0.07742817
     atom   13 type  1   force =    -0.00000000    0.00000001    0.07742817
     atom   14 type  1   force =     0.00000000    0.00000001    0.07742818
     atom   15 type  2   force =    -0.00000000    0.00000001   -0.07742817
     atom   16 type  2   force =     0.00000000    0.00000000   -0.07742818
     atom   17 type  1   force =    -0.00000001    0.00000001    0.07742817
     atom   18 type  1   force =     0.00000001   -0.00000001    0.07742817
     atom   19 type  2   force =    -0.00000001    0.00000001   -0.07742817
     atom   20 type  2   force =     0.00000001   -0.00000001   -0.07742817
     atom   21 type  1   force =    -0.00000000   -0.00000001    0.07742818
     atom   22 type  1   force =     0.00000000   -0.00000001    0.07742817
     atom   23 type  2   force =    -0.00000000   -0.00000000   -0.07742818
     atom   24 type  2   force =     0.00000000   -0.00000001   -0.07742817
     The local contribution  to forces
     atom    1 type  1   force =    -0.00000077   -0.00000006   -0.06948561
     atom    2 type  1   force =     0.00000027   -0.00000015   -0.06948460
     atom    3 type  2   force =    -0.00000029   -0.00000338    0.07654493
     atom    4 type  2   force =     0.00000005    0.00000267    0.07654358
     atom    5 type  1   force =    -0.00000094    0.00000123   -0.06948531
     atom    6 type  1   force =    -0.00000039   -0.00000040   -0.06948514
     atom    7 type  2   force =    -0.00000046   -0.00000309    0.07654408
     atom    8 type  2   force =    -0.00000046    0.00000327    0.07654441
     atom    9 type  1   force =    -0.00000064   -0.00000147   -0.06948698
     atom   10 type  1   force =     0.00000026   -0.00000004   -0.06948364
     atom   11 type  2   force =    -0.00000072   -0.00000363    0.07654443
     atom   12 type  2   force =    -0.00000013    0.00000235    0.07654354
     atom   13 type  1   force =     0.00000050    0.00000056   -0.06948731
     atom   14 type  1   force =    -0.00000006   -0.00000056   -0.06948417
     atom   15 type  2   force =    -0.00000016   -0.00000255    0.07654470
     atom   16 type  2   force =     0.00000040    0.00000325    0.07654363
     atom   17 type  1   force =     0.00000101    0.00000208   -0.06948638
     atom   18 type  1   force =     0.00000035    0.00000008   -0.06948408
     atom   19 type  2   force =     0.00000041   -0.00000282    0.07654429
     atom   20 type  2   force =     0.00000054    0.00000367    0.07654401
     atom   21 type  1   force =     0.00000019   -0.00000048   -0.06948839
     atom   22 type  1   force =     0.00000004   -0.00000071   -0.06948197
     atom   23 type  2   force =     0.00000044   -0.00000314    0.07654491
     atom   24 type  2   force =     0.00000045    0.00000235    0.07654360
     The core correction contribution to forces
     atom    1 type  1   force =     0.00000001    0.00000011    0.00111528
     atom    2 type  1   force =    -0.00000005   -0.00000009    0.00111531
     atom    3 type  2   force =    -0.00000001   -0.00000003    0.00000601
     atom    4 type  2   force =     0.00000002    0.00000002    0.00000601
     atom    5 type  1   force =     0.00000001    0.00000009    0.00111531
     atom    6 type  1   force =    -0.00000003   -0.00000008    0.00111527
     atom    7 type  2   force =    -0.00000001   -0.00000003    0.00000601
     atom    8 type  2   force =     0.00000001    0.00000003    0.00000601
     atom    9 type  1   force =    -0.00000001    0.00000007    0.00111533
     atom   10 type  1   force =    -0.00000002   -0.00000015    0.00111529
     atom   11 type  2   force =    -0.00000001   -0.00000002    0.00000601
     atom   12 type  2   force =     0.00000002    0.00000004    0.00000601
     atom   13 type  1   force =     0.00000002    0.00000014    0.00111531
     atom   14 type  1   force =     0.00000003   -0.00000008    0.00111532
     atom   15 type  2   force =    -0.00000001   -0.00000003    0.00000601
     atom   16 type  2   force =     0.00000001    0.00000002    0.00000602
     atom   17 type  1   force =     0.00000002    0.00000010    0.00111532
     atom   18 type  1   force =     0.00000000   -0.00000006    0.00111528
     atom   19 type  2   force =    -0.00000002   -0.00000004    0.00000601
     atom   20 type  2   force =     0.00000001    0.00000002    0.00000601
     atom   21 type  1   force =     0.00000002    0.00000008    0.00111533
     atom   22 type  1   force =     0.00000001   -0.00000011    0.00111527
     atom   23 type  2   force =    -0.00000001   -0.00000002    0.00000601
     atom   24 type  2   force =     0.00000000    0.00000003    0.00000602
     The Hubbard contrib.    to forces
     atom    1 type  1   force =     0.00000000    0.00000000    0.00000000
     atom    2 type  1   force =     0.00000000    0.00000000    0.00000000
     atom    3 type  2   force =     0.00000000    0.00000000    0.00000000
     atom    4 type  2   force =     0.00000000    0.00000000    0.00000000
     atom    5 type  1   force =     0.00000000    0.00000000    0.00000000
     atom    6 type  1   force =     0.00000000    0.00000000    0.00000000
     atom    7 type  2   force =     0.00000000    0.00000000    0.00000000
     atom    8 type  2   force =     0.00000000    0.00000000    0.00000000
     atom    9 type  1   force =     0.00000000    0.00000000    0.00000000
     atom   10 type  1   force =     0.00000000    0.00000000    0.00000000
     atom   11 type  2   force =     0.00000000    0.00000000    0.00000000
     atom   12 type  2   force =     0.00000000    0.00000000    0.00000000
     atom   13 type  1   force =     0.00000000    0.00000000    0.00000000
     atom   14 type  1   force =     0.00000000    0.00000000    0.00000000
     atom   15 type  2   force =     0.00000000    0.00000000    0.00000000
     atom   16 type  2   force =     0.00000000    0.00000000    0.00000000
     atom   17 type  1   force =     0.00000000    0.00000000    0.00000000
     atom   18 type  1   force =     0.00000000    0.00000000    0.00000000
     atom   19 type  2   force =     0.00000000    0.00000000    0.00000000
     atom   20 type  2   force =     0.00000000    0.00000000    0.00000000
     atom   21 type  1   force =     0.00000000    0.00000000    0.00000000
     atom   22 type  1   force =     0.00000000    0.00000000    0.00000000
     atom   23 type  2   force =     0.00000000    0.00000000    0.00000000
     atom   24 type  2   force =     0.00000000    0.00000000    0.00000000
     The SCF correction term to forces
     atom    1 type  1   force =     0.00000073    0.00000088   -0.00000061
     atom    2 type  1   force =    -0.00000038   -0.00000041   -0.00000174
     atom    3 type  2   force =    -0.00000004    0.00000068   -0.00000072
     atom    4 type  2   force =     0.00000018   -0.00000000    0.00000066
     atom    5 type  1   force =     0.00000084   -0.00000077   -0.00000123
     atom    6 type  1   force =     0.00000038    0.00000004   -0.00000117
     atom    7 type  2   force =     0.00000028    0.00000032    0.00000024
     atom    8 type  2   force =     0.00000053   -0.00000045   -0.00000019
     atom    9 type  1   force =     0.00000047    0.00000184    0.00000067
     atom   10 type  1   force =    -0.00000031   -0.00000115   -0.00000282
     atom   11 type  2   force =     0.00000048    0.00000081   -0.00000010
     atom   12 type  2   force =     0.00000043    0.00000041    0.00000075
     atom   13 type  1   force =    -0.00000059    0.00000032    0.00000111
     atom   14 type  1   force =     0.00000040    0.00000031   -0.00000206
     atom   15 type  2   force =     0.00000011   -0.00000020   -0.00000059
     atom   16 type  2   force =    -0.00000023   -0.00000058    0.00000080
     atom   17 type  1   force =    -0.00000115   -0.00000150   -0.00000001
     atom   18 type  1   force =    -0.00000018   -0.00000048   -0.00000214
     atom   19 type  2   force =    -0.00000064   -0.00000006   -0.00000001
     atom   20 type  2   force =    -0.00000027   -0.00000102    0.00000031
     atom   21 type  1   force =    -0.00000033    0.00000078    0.00000235
     atom   22 type  1   force =     0.00000019    0.00000004   -0.00000447
     atom   23 type  2   force =    -0.00000052    0.00000049   -0.00000051
     atom   24 type  2   force =    -0.00000039    0.00000027    0.00000082

     Total force =     0.008843     Total SCF correction =     0.000009

     init_run     :     28.00s CPU     16.55s WALL (       1 calls)
     electrons    :   2831.96s CPU   1715.92s WALL (       1 calls)
     forces       :     10.94s CPU      6.51s WALL (       1 calls)

     Called by init_run:
     wfcinit      :     22.46s CPU     12.51s WALL (       1 calls)
     wfcinit:atom :      0.13s CPU      0.11s WALL (      14 calls)
     wfcinit:wfcr :     21.38s CPU     11.60s WALL (      14 calls)
     potinit      :      1.88s CPU      1.18s WALL (       1 calls)
     hinit0       :      3.33s CPU      2.60s WALL (       1 calls)

     Called by electrons:
     c_bands      :   2598.43s CPU   1572.86s WALL (      27 calls)
     sum_band     :    218.19s CPU    132.62s WALL (      27 calls)
     v_of_rho     :      7.06s CPU      4.70s WALL (      28 calls)
     v_h          :      0.37s CPU      0.27s WALL (      28 calls)
     v_xc         :      6.90s CPU      4.58s WALL (      29 calls)
     newd         :      6.93s CPU      4.67s WALL (      28 calls)
     mix_rho      :      0.85s CPU      0.67s WALL (      27 calls)

     Called by c_bands:
     init_us_2    :      8.82s CPU      5.86s WALL (     784 calls)
     init_us_2:cp :      8.80s CPU      5.85s WALL (     784 calls)
     cegterg      :   2418.84s CPU   1421.10s WALL (     378 calls)

     Called by sum_band:
     sum_band:wei :      0.02s CPU      0.02s WALL (      27 calls)
     sum_band:loo :    204.45s CPU    121.39s WALL (      27 calls)
     sum_band:buf :      1.21s CPU      0.70s WALL (     378 calls)
     sum_band:ini :      3.17s CPU      2.25s WALL (     378 calls)
     sum_band:cal :     34.95s CPU     18.50s WALL (     378 calls)
     sum_band:bec :      4.09s CPU      3.40s WALL (     378 calls)
     addusdens    :      7.85s CPU      5.87s WALL (      27 calls)
     addusd:skk   :      0.18s CPU      0.14s WALL (      54 calls)
     addusd:dgemm :      0.95s CPU      0.50s WALL (      54 calls)
     addusd:qvan2 :      4.56s CPU      3.38s WALL (      54 calls)

     Called by *egterg:
     cdiaghg      :    156.44s CPU    127.49s WALL (    2951 calls)
     cegterg:over :    179.42s CPU     96.79s WALL (    2573 calls)
     cegterg:upda :    112.72s CPU     65.77s WALL (    2573 calls)
     cegterg:last :    246.01s CPU    136.08s WALL (    1630 calls)
     cdiaghg:chol :      7.49s CPU      6.38s WALL (    2951 calls)
     cdiaghg:inve :      2.48s CPU      2.07s WALL (    2951 calls)
     cdiaghg:para :     26.91s CPU     19.40s WALL (    5902 calls)
     h_psi        :   1547.31s CPU    895.80s WALL (    2965 calls)
     s_psi        :    140.24s CPU     71.14s WALL (    2965 calls)
     g_psi        :      9.93s CPU      8.24s WALL (    2573 calls)

     Called by h_psi:
     h_psi:calbec :    164.64s CPU     86.31s WALL (    2965 calls)
     vloc_psi     :   1234.06s CPU    730.65s WALL (    2965 calls)
     add_vuspsi   :    139.54s CPU     71.53s WALL (    2965 calls)

     General routines
     calbec       :    205.24s CPU    108.02s WALL (    3399 calls)
     fft          :      5.19s CPU      4.16s WALL (     373 calls)
     ffts         :      0.74s CPU      0.63s WALL (      55 calls)
     fftw         :   1187.72s CPU    691.75s WALL (  397646 calls)
     interpolate  :      0.56s CPU      0.43s WALL (      28 calls)

     Parallel routines

     PWSCF        :  47m51.57s CPU  28m59.65s WALL


   This run was terminated on:  15:39:49   7Sep2025            

=------------------------------------------------------------------------------=
   JOB DONE.
=------------------------------------------------------------------------------=
Note: The following floating-point exceptions are signalling: IEEE_UNDERFLOW_FLAG IEEE_DENORMAL
Note: The following floating-point exceptions are signalling: IEEE_UNDERFLOW_FLAG IEEE_DENORMAL
Note: The following floating-point exceptions are signalling: IEEE_UNDERFLOW_FLAG IEEE_DENORMAL
Note: The following floating-point exceptions are signalling: IEEE_UNDERFLOW_FLAG IEEE_DENORMAL
Note: The following floating-point exceptions are signalling: IEEE_UNDERFLOW_FLAG IEEE_DENORMAL
Note: The following floating-point exceptions are signalling: IEEE_UNDERFLOW_FLAG IEEE_DENORMAL
Note: The following floating-point exceptions are signalling: IEEE_UNDERFLOW_FLAG IEEE_DENORMAL
Note: The following floating-point exceptions are signalling: IEEE_UNDERFLOW_FLAG IEEE_DENORMAL
Note: The following floating-point exceptions are signalling: IEEE_UNDERFLOW_FLAG IEEE_DENORMAL
Note: The following floating-point exceptions are signalling: IEEE_UNDERFLOW_FLAG IEEE_DENORMAL
Note: The following floating-point exceptions are signalling: IEEE_UNDERFLOW_FLAG IEEE_DENORMAL
Note: The following floating-point exceptions are signalling: IEEE_UNDERFLOW_FLAG IEEE_DENORMAL
Note: The following floating-point exceptions are signalling: IEEE_UNDERFLOW_FLAG IEEE_DENORMAL
Note: The following floating-point exceptions are signalling: IEEE_UNDERFLOW_FLAG IEEE_DENORMAL
Note: The following floating-point exceptions are signalling: IEEE_UNDERFLOW_FLAG IEEE_DENORMAL
Note: The following floating-point exceptions are signalling: IEEE_UNDERFLOW_FLAG IEEE_DENORMAL
Note: The following floating-point exceptions are signalling: IEEE_UNDERFLOW_FLAG IEEE_DENORMAL
Note: The following floating-point exceptions are signalling: IEEE_UNDERFLOW_FLAG IEEE_DENORMAL
Note: The following floating-point exceptions are signalling: IEEE_UNDERFLOW_FLAG IEEE_DENORMAL
Note: The following floating-point exceptions are signalling: IEEE_UNDERFLOW_FLAG IEEE_DENORMAL
Note: The following floating-point exceptions are signalling: IEEE_UNDERFLOW_FLAG IEEE_DENORMAL
Note: The following floating-point exceptions are signalling: IEEE_UNDERFLOW_FLAG IEEE_DENORMAL
Note: The following floating-point exceptions are signalling: IEEE_UNDERFLOW_FLAG IEEE_DENORMAL
Note: The following floating-point exceptions are signalling: IEEE_UNDERFLOW_FLAG IEEE_DENORMAL
Note: The following floating-point exceptions are signalling: IEEE_UNDERFLOW_FLAG IEEE_DENORMAL
Note: The following floating-point exceptions are signalling: IEEE_UNDERFLOW_FLAG IEEE_DENORMAL
Note: The following floating-point exceptions are signalling: IEEE_UNDERFLOW_FLAG IEEE_DENORMAL
Note: The following floating-point exceptions are signalling: IEEE_UNDERFLOW_FLAG IEEE_DENORMAL
Note: The following floating-point exceptions are signalling: IEEE_UNDERFLOW_FLAG IEEE_DENORMAL
Note: The following floating-point exceptions are signalling: IEEE_UNDERFLOW_FLAG IEEE_DENORMAL
Note: The following floating-point exceptions are signalling: IEEE_UNDERFLOW_FLAG IEEE_DENORMAL
Note: The following floating-point exceptions are signalling: IEEE_UNDERFLOW_FLAG IEEE_DENORMAL
