
     Program PWSCF v.7.0 starts on  9Sep2025 at 20:35: 9 

     This program is part of the open-source Quantum ESPRESSO suite
     for quantum simulation of materials; please cite
         "P. Giannozzi et al., J. Phys.:Condens. Matter 21 395502 (2009);
         "P. Giannozzi et al., J. Phys.:Condens. Matter 29 465901 (2017);
         "P. Giannozzi et al., J. Chem. Phys. 152 154105 (2020);
          URL http://www.quantum-espresso.org", 
     in publications or presentations arising from this work. More details at
     http://www.quantum-espresso.org/quote

     Parallel version (MPI & OpenMP), running on      64 processor cores
     Number of MPI processes:                32
     Threads/MPI process:                     2

     MPI processes distributed on     1 nodes
     K-points division:     npool     =       8
     R & G space division:  proc/nbgrp/npool/nimage =       4
     107201 MiB available memory on the printing compute node when the environment starts

     Reading input from /home/jvc/QEspresso7.2/ZnO_database/scripts/cell231.in/ZnO-3.53-1.52-231.in
Warning: card &CELL ignored
Warning: card / ignored
Warning: card &FCP ignored
Warning: card / ignored
Warning: card &RISM ignored
Warning: card / ignored

     Current dimensions of program PWSCF are:
     Max number of different atomic species (ntypx) = 10
     Max number of k-points (npk) =  40000
     Max angular momentum in pseudopotentials (lmaxx) =  4
     file Zn.upf: wavefunction(s)  3D renormalized
     Found identity + (  0.0000  0.3333  0.0000) symmetry
     This is a supercell, fractional translations are disabled

     Subspace diagonalization in iterative solution of the eigenvalue problem:
     one sub-group per band group will be used
     scalapack distributed-memory algorithm (size of sub-group:  2*  2 procs)


     Parallelization info
     --------------------
     sticks:   dense  smooth     PW     G-vecs:    dense   smooth      PW
     Min        1842     921    264                79166    27972    4296
     Max        1844     923    265                79167    27973    4297
     Sum        7373    3687   1057               316665   111891   17185

     Using Slab Decomposition



     bravais-lattice index     =            0
     lattice parameter (alat)  =      13.3463  a.u.
     unit-cell volume          =    2343.1751 (a.u.)^3
     number of atoms/cell      =           24
     number of atomic types    =            2
     number of electrons       =       216.00
     number of Kohn-Sham states=          108
     kinetic-energy cutoff     =      50.0000  Ry
     charge density cutoff     =     400.0000  Ry
     scf convergence threshold =      1.0E-08
     mixing beta               =       0.3000
     number of iterations used =            8  plain     mixing
     Exchange-correlation= PBE
                           (   1   4   3   4   0   0   0)

     celldm(1)=  13.346325  celldm(2)=   0.000000  celldm(3)=   0.000000
     celldm(4)=   0.000000  celldm(5)=   0.000000  celldm(6)=   0.000000

     crystal axes: (cart. coord. in units of alat)
               a(1) = (   1.000000   0.000000   0.000000 )  
               a(2) = (  -0.750000   1.299038   0.000000 )  
               a(3) = (   0.000000   0.000000   0.758748 )  

     reciprocal axes: (cart. coord. in units 2 pi/alat)
               b(1) = (  1.000000  0.577350 -0.000000 )  
               b(2) = (  0.000000  0.769800  0.000000 )  
               b(3) = (  0.000000 -0.000000  1.317960 )  


     PseudoPot. # 1 for Zn read from file:
     /home/jvc/QEspresso7.2/ZnO_database/pseudos/Zn.upf
     MD5 check sum: 7f56cabf9682ed8c977c2f7d0c5985c5
     Pseudo is Ultrasoft + core correction, Zval = 12.0
     Generated using &quot;atomic&quot; code by A. Dal Corso  v.6.2.2
     Using radial grid of 1201 points,  6 beta functions with: 
                l(1) =   0
                l(2) =   0
                l(3) =   1
                l(4) =   1
                l(5) =   2
                l(6) =   2
     Q(r) pseudized with 0 coefficients 


     PseudoPot. # 2 for O  read from file:
     /home/jvc/QEspresso7.2/ZnO_database/pseudos/O.upf
     MD5 check sum: 91400c9766925bcf19f520983a725ff0
     Pseudo is Ultrasoft + core correction, Zval =  6.0
     Generated using &quot;atomic&quot; code by A. Dal Corso  v.6.3MaX
     Using radial grid of 1095 points,  4 beta functions with: 
                l(1) =   0
                l(2) =   0
                l(3) =   1
                l(4) =   1
     Q(r) pseudized with 0 coefficients 


     atomic species   valence    mass     pseudopotential
        Zn            12.00    65.38000     Zn( 1.00)
        O              6.00    15.99900     O ( 1.00)

     No symmetry found


                                    s                        frac. trans.

      isym =  1     identity                                     

 cryst.   s( 1) = (     1          0          0      )
                  (     0          1          0      )
                  (     0          0          1      )

 cart.    s( 1) = (  1.0000000  0.0000000  0.0000000 )
                  (  0.0000000  1.0000000  0.0000000 )
                  (  0.0000000  0.0000000  1.0000000 )


   Cartesian axes

     site n.     atom                  positions (alat units)
         1           Zn  tau(   1) = (   0.2500000   0.1443376   0.3798549  )
         2           Zn  tau(   2) = (  -0.0000000   0.2886751   0.0004807  )
         3           O   tau(   3) = (   0.2500000   0.1443376   0.6674531  )
         4           O   tau(   4) = (  -0.0000000   0.2886751   0.2880789  )
         5           Zn  tau(   5) = (   0.0000000   0.5773503   0.3798549  )
         6           Zn  tau(   6) = (  -0.2500000   0.7216878   0.0004807  )
         7           O   tau(   7) = (   0.0000000   0.5773503   0.6674531  )
         8           O   tau(   8) = (  -0.2500000   0.7216878   0.2880789  )
         9           Zn  tau(   9) = (  -0.2500000   1.0103630   0.3798549  )
        10           Zn  tau(  10) = (  -0.5000000   1.1547005   0.0004807  )
        11           O   tau(  11) = (  -0.2500000   1.0103630   0.6674531  )
        12           O   tau(  12) = (  -0.5000000   1.1547005   0.2880789  )
        13           Zn  tau(  13) = (   0.7500000   0.1443376   0.3798549  )
        14           Zn  tau(  14) = (   0.5000000   0.2886751   0.0004807  )
        15           O   tau(  15) = (   0.7500000   0.1443376   0.6674531  )
        16           O   tau(  16) = (   0.5000000   0.2886751   0.2880789  )
        17           Zn  tau(  17) = (   0.5000000   0.5773503   0.3798549  )
        18           Zn  tau(  18) = (   0.2500000   0.7216878   0.0004807  )
        19           O   tau(  19) = (   0.5000000   0.5773503   0.6674531  )
        20           O   tau(  20) = (   0.2500000   0.7216878   0.2880789  )
        21           Zn  tau(  21) = (   0.2500000   1.0103630   0.3798549  )
        22           Zn  tau(  22) = (  -0.0000000   1.1547005   0.0004807  )
        23           O   tau(  23) = (   0.2500000   1.0103630   0.6674531  )
        24           O   tau(  24) = (  -0.0000000   1.1547005   0.2880789  )

   Crystallographic axes

     site n.     atom                  positions (cryst. coord.)
         1           Zn  tau(   1) = (  0.3333333  0.1111111  0.5006336  )
         2           Zn  tau(   2) = (  0.1666667  0.2222222  0.0006336  )
         3           O   tau(   3) = (  0.3333333  0.1111111  0.8796764  )
         4           O   tau(   4) = (  0.1666667  0.2222222  0.3796764  )
         5           Zn  tau(   5) = (  0.3333333  0.4444444  0.5006336  )
         6           Zn  tau(   6) = (  0.1666667  0.5555556  0.0006336  )
         7           O   tau(   7) = (  0.3333333  0.4444444  0.8796764  )
         8           O   tau(   8) = (  0.1666667  0.5555556  0.3796764  )
         9           Zn  tau(   9) = (  0.3333333  0.7777778  0.5006336  )
        10           Zn  tau(  10) = (  0.1666667  0.8888889  0.0006336  )
        11           O   tau(  11) = (  0.3333333  0.7777778  0.8796764  )
        12           O   tau(  12) = (  0.1666667  0.8888889  0.3796764  )
        13           Zn  tau(  13) = (  0.8333333  0.1111111  0.5006336  )
        14           Zn  tau(  14) = (  0.6666667  0.2222222  0.0006336  )
        15           O   tau(  15) = (  0.8333333  0.1111111  0.8796764  )
        16           O   tau(  16) = (  0.6666667  0.2222222  0.3796764  )
        17           Zn  tau(  17) = (  0.8333333  0.4444444  0.5006336  )
        18           Zn  tau(  18) = (  0.6666667  0.5555556  0.0006336  )
        19           O   tau(  19) = (  0.8333333  0.4444444  0.8796764  )
        20           O   tau(  20) = (  0.6666667  0.5555556  0.3796764  )
        21           Zn  tau(  21) = (  0.8333333  0.7777778  0.5006336  )
        22           Zn  tau(  22) = (  0.6666667  0.8888889  0.0006336  )
        23           O   tau(  23) = (  0.8333333  0.7777778  0.8796764  )
        24           O   tau(  24) = (  0.6666667  0.8888889  0.3796764  )

     number of k points=   112
                       cart. coord. in units 2pi/alat
        k(    1) = (   0.0000000   0.0000000   0.0000000), wk =   0.0092593
        k(    2) = (   0.0000000   0.0000000   0.2196600), wk =   0.0185185
        k(    3) = (   0.0000000   0.0000000   0.4393200), wk =   0.0185185
        k(    4) = (   0.0000000   0.0000000  -0.6589799), wk =   0.0092593
        k(    5) = (   0.0000000   0.1283001   0.0000000), wk =   0.0185185
        k(    6) = (   0.0000000   0.1283001   0.2196600), wk =   0.0185185
        k(    7) = (   0.0000000   0.1283001   0.4393200), wk =   0.0185185
        k(    8) = (   0.0000000   0.1283001  -0.6589799), wk =   0.0185185
        k(    9) = (   0.0000000   0.2566001   0.0000000), wk =   0.0185185
        k(   10) = (   0.0000000   0.2566001   0.2196600), wk =   0.0185185
        k(   11) = (   0.0000000   0.2566001   0.4393200), wk =   0.0185185
        k(   12) = (   0.0000000   0.2566001  -0.6589799), wk =   0.0185185
        k(   13) = (   0.0000000  -0.3849002   0.0000000), wk =   0.0092593
        k(   14) = (   0.0000000  -0.3849002   0.2196600), wk =   0.0185185
        k(   15) = (   0.0000000  -0.3849002   0.4393200), wk =   0.0185185
        k(   16) = (   0.0000000  -0.3849002  -0.6589799), wk =   0.0092593
        k(   17) = (   0.1666667   0.0962250   0.0000000), wk =   0.0185185
        k(   18) = (   0.1666667   0.0962250   0.2196600), wk =   0.0185185
        k(   19) = (   0.1666667   0.0962250   0.4393200), wk =   0.0185185
        k(   20) = (   0.1666667   0.0962250  -0.6589799), wk =   0.0185185
        k(   21) = (   0.1666667   0.2245251   0.0000000), wk =   0.0185185
        k(   22) = (   0.1666667   0.2245251   0.2196600), wk =   0.0185185
        k(   23) = (   0.1666667   0.2245251   0.4393200), wk =   0.0185185
        k(   24) = (   0.1666667   0.2245251  -0.6589799), wk =   0.0185185
        k(   25) = (   0.1666667   0.3528252   0.0000000), wk =   0.0185185
        k(   26) = (   0.1666667   0.3528252   0.2196600), wk =   0.0185185
        k(   27) = (   0.1666667   0.3528252   0.4393200), wk =   0.0185185
        k(   28) = (   0.1666667   0.3528252  -0.6589799), wk =   0.0185185
        k(   29) = (   0.1666667  -0.2886751   0.0000000), wk =   0.0185185
        k(   30) = (   0.1666667  -0.2886751   0.2196600), wk =   0.0185185
        k(   31) = (   0.1666667  -0.2886751   0.4393200), wk =   0.0185185
        k(   32) = (   0.1666667  -0.2886751  -0.6589799), wk =   0.0185185
        k(   33) = (   0.1666667  -0.1603751   0.0000000), wk =   0.0185185
        k(   34) = (   0.1666667  -0.1603751   0.2196600), wk =   0.0185185
        k(   35) = (   0.1666667  -0.1603751   0.4393200), wk =   0.0185185
        k(   36) = (   0.1666667  -0.1603751  -0.6589799), wk =   0.0185185
        k(   37) = (   0.1666667  -0.0320750   0.0000000), wk =   0.0185185
        k(   38) = (   0.1666667  -0.0320750   0.2196600), wk =   0.0185185
        k(   39) = (   0.1666667  -0.0320750   0.4393200), wk =   0.0185185
        k(   40) = (   0.1666667  -0.0320750  -0.6589799), wk =   0.0185185
        k(   41) = (   0.3333333   0.1924501   0.0000000), wk =   0.0185185
        k(   42) = (   0.3333333   0.1924501   0.2196600), wk =   0.0185185
        k(   43) = (   0.3333333   0.1924501   0.4393200), wk =   0.0185185
        k(   44) = (   0.3333333   0.1924501  -0.6589799), wk =   0.0185185
        k(   45) = (   0.3333333   0.3207501   0.0000000), wk =   0.0185185
        k(   46) = (   0.3333333   0.3207501   0.2196600), wk =   0.0185185
        k(   47) = (   0.3333333   0.3207501   0.4393200), wk =   0.0185185
        k(   48) = (   0.3333333   0.3207501  -0.6589799), wk =   0.0185185
        k(   49) = (   0.3333333   0.4490502   0.0000000), wk =   0.0185185
        k(   50) = (   0.3333333   0.4490502   0.2196600), wk =   0.0185185
        k(   51) = (   0.3333333   0.4490502   0.4393200), wk =   0.0185185
        k(   52) = (   0.3333333   0.4490502  -0.6589799), wk =   0.0185185
        k(   53) = (   0.3333333  -0.1924501   0.0000000), wk =   0.0185185
        k(   54) = (   0.3333333  -0.1924501   0.2196600), wk =   0.0185185
        k(   55) = (   0.3333333  -0.1924501   0.4393200), wk =   0.0185185
        k(   56) = (   0.3333333  -0.1924501  -0.6589799), wk =   0.0185185
        k(   57) = (   0.3333333  -0.0641500   0.0000000), wk =   0.0185185
        k(   58) = (   0.3333333  -0.0641500   0.2196600), wk =   0.0185185
        k(   59) = (   0.3333333  -0.0641500   0.4393200), wk =   0.0185185
        k(   60) = (   0.3333333  -0.0641500  -0.6589799), wk =   0.0185185
        k(   61) = (   0.3333333   0.0641500   0.0000000), wk =   0.0185185
        k(   62) = (   0.3333333   0.0641500   0.2196600), wk =   0.0185185
        k(   63) = (   0.3333333   0.0641500   0.4393200), wk =   0.0185185
        k(   64) = (   0.3333333   0.0641500  -0.6589799), wk =   0.0185185
        k(   65) = (  -0.5000000  -0.2886751   0.0000000), wk =   0.0092593
        k(   66) = (  -0.5000000  -0.2886751   0.2196600), wk =   0.0185185
        k(   67) = (  -0.5000000  -0.2886751   0.4393200), wk =   0.0185185
        k(   68) = (  -0.5000000  -0.2886751  -0.6589799), wk =   0.0092593
        k(   69) = (  -0.5000000  -0.1603751   0.0000000), wk =   0.0185185
        k(   70) = (  -0.5000000  -0.1603751   0.2196600), wk =   0.0185185
        k(   71) = (  -0.5000000  -0.1603751   0.4393200), wk =   0.0185185
        k(   72) = (  -0.5000000  -0.1603751  -0.6589799), wk =   0.0185185
        k(   73) = (  -0.5000000  -0.0320750   0.0000000), wk =   0.0185185
        k(   74) = (  -0.5000000  -0.0320750   0.2196600), wk =   0.0185185
        k(   75) = (  -0.5000000  -0.0320750   0.4393200), wk =   0.0185185
        k(   76) = (  -0.5000000  -0.0320750  -0.6589799), wk =   0.0185185
        k(   77) = (  -0.5000000  -0.6735753   0.0000000), wk =   0.0092593
        k(   78) = (  -0.5000000  -0.6735753   0.2196600), wk =   0.0185185
        k(   79) = (  -0.5000000  -0.6735753   0.4393200), wk =   0.0185185
        k(   80) = (  -0.5000000  -0.6735753  -0.6589799), wk =   0.0092593
        k(   81) = (   0.0000000  -0.1283001   0.2196600), wk =   0.0185185
        k(   82) = (   0.0000000  -0.1283001   0.4393200), wk =   0.0185185
        k(   83) = (   0.0000000  -0.2566001   0.2196600), wk =   0.0185185
        k(   84) = (   0.0000000  -0.2566001   0.4393200), wk =   0.0185185
        k(   85) = (  -0.1666667  -0.0962250   0.2196600), wk =   0.0185185
        k(   86) = (  -0.1666667  -0.0962250   0.4393200), wk =   0.0185185
        k(   87) = (  -0.1666667  -0.2245251   0.2196600), wk =   0.0185185
        k(   88) = (  -0.1666667  -0.2245251   0.4393200), wk =   0.0185185
        k(   89) = (  -0.1666667  -0.3528252   0.2196600), wk =   0.0185185
        k(   90) = (  -0.1666667  -0.3528252   0.4393200), wk =   0.0185185
        k(   91) = (  -0.1666667   0.2886751   0.2196600), wk =   0.0185185
        k(   92) = (  -0.1666667   0.2886751   0.4393200), wk =   0.0185185
        k(   93) = (  -0.1666667   0.1603751   0.2196600), wk =   0.0185185
        k(   94) = (  -0.1666667   0.1603751   0.4393200), wk =   0.0185185
        k(   95) = (  -0.1666667   0.0320750   0.2196600), wk =   0.0185185
        k(   96) = (  -0.1666667   0.0320750   0.4393200), wk =   0.0185185
        k(   97) = (  -0.3333333  -0.1924501   0.2196600), wk =   0.0185185
        k(   98) = (  -0.3333333  -0.1924501   0.4393200), wk =   0.0185185
        k(   99) = (  -0.3333333  -0.3207501   0.2196600), wk =   0.0185185
        k(  100) = (  -0.3333333  -0.3207501   0.4393200), wk =   0.0185185
        k(  101) = (  -0.3333333  -0.4490502   0.2196600), wk =   0.0185185
        k(  102) = (  -0.3333333  -0.4490502   0.4393200), wk =   0.0185185
        k(  103) = (  -0.3333333   0.1924501   0.2196600), wk =   0.0185185
        k(  104) = (  -0.3333333   0.1924501   0.4393200), wk =   0.0185185
        k(  105) = (  -0.3333333   0.0641500   0.2196600), wk =   0.0185185
        k(  106) = (  -0.3333333   0.0641500   0.4393200), wk =   0.0185185
        k(  107) = (  -0.3333333  -0.0641500   0.2196600), wk =   0.0185185
        k(  108) = (  -0.3333333  -0.0641500   0.4393200), wk =   0.0185185
        k(  109) = (   0.5000000   0.1603751   0.2196600), wk =   0.0185185
        k(  110) = (   0.5000000   0.1603751   0.4393200), wk =   0.0185185
        k(  111) = (   0.5000000   0.0320750   0.2196600), wk =   0.0185185
        k(  112) = (   0.5000000   0.0320750   0.4393200), wk =   0.0185185

                       cryst. coord.
        k(    1) = (   0.0000000   0.0000000   0.0000000), wk =   0.0092593
        k(    2) = (   0.0000000   0.0000000   0.1666667), wk =   0.0185185
        k(    3) = (   0.0000000   0.0000000   0.3333333), wk =   0.0185185
        k(    4) = (   0.0000000   0.0000000  -0.5000000), wk =   0.0092593
        k(    5) = (   0.0000000   0.1666667   0.0000000), wk =   0.0185185
        k(    6) = (   0.0000000   0.1666667   0.1666667), wk =   0.0185185
        k(    7) = (   0.0000000   0.1666667   0.3333333), wk =   0.0185185
        k(    8) = (   0.0000000   0.1666667  -0.5000000), wk =   0.0185185
        k(    9) = (   0.0000000   0.3333333   0.0000000), wk =   0.0185185
        k(   10) = (   0.0000000   0.3333333   0.1666667), wk =   0.0185185
        k(   11) = (   0.0000000   0.3333333   0.3333333), wk =   0.0185185
        k(   12) = (   0.0000000   0.3333333  -0.5000000), wk =   0.0185185
        k(   13) = (   0.0000000  -0.5000000   0.0000000), wk =   0.0092593
        k(   14) = (   0.0000000  -0.5000000   0.1666667), wk =   0.0185185
        k(   15) = (   0.0000000  -0.5000000   0.3333333), wk =   0.0185185
        k(   16) = (   0.0000000  -0.5000000  -0.5000000), wk =   0.0092593
        k(   17) = (   0.1666667  -0.0000000   0.0000000), wk =   0.0185185
        k(   18) = (   0.1666667  -0.0000000   0.1666667), wk =   0.0185185
        k(   19) = (   0.1666667  -0.0000000   0.3333333), wk =   0.0185185
        k(   20) = (   0.1666667  -0.0000000  -0.5000000), wk =   0.0185185
        k(   21) = (   0.1666667   0.1666667   0.0000000), wk =   0.0185185
        k(   22) = (   0.1666667   0.1666667   0.1666667), wk =   0.0185185
        k(   23) = (   0.1666667   0.1666667   0.3333333), wk =   0.0185185
        k(   24) = (   0.1666667   0.1666667  -0.5000000), wk =   0.0185185
        k(   25) = (   0.1666667   0.3333333   0.0000000), wk =   0.0185185
        k(   26) = (   0.1666667   0.3333333   0.1666667), wk =   0.0185185
        k(   27) = (   0.1666667   0.3333333   0.3333333), wk =   0.0185185
        k(   28) = (   0.1666667   0.3333333  -0.5000000), wk =   0.0185185
        k(   29) = (   0.1666667  -0.5000000   0.0000000), wk =   0.0185185
        k(   30) = (   0.1666667  -0.5000000   0.1666667), wk =   0.0185185
        k(   31) = (   0.1666667  -0.5000000   0.3333333), wk =   0.0185185
        k(   32) = (   0.1666667  -0.5000000  -0.5000000), wk =   0.0185185
        k(   33) = (   0.1666667  -0.3333333   0.0000000), wk =   0.0185185
        k(   34) = (   0.1666667  -0.3333333   0.1666667), wk =   0.0185185
        k(   35) = (   0.1666667  -0.3333333   0.3333333), wk =   0.0185185
        k(   36) = (   0.1666667  -0.3333333  -0.5000000), wk =   0.0185185
        k(   37) = (   0.1666667  -0.1666667   0.0000000), wk =   0.0185185
        k(   38) = (   0.1666667  -0.1666667   0.1666667), wk =   0.0185185
        k(   39) = (   0.1666667  -0.1666667   0.3333333), wk =   0.0185185
        k(   40) = (   0.1666667  -0.1666667  -0.5000000), wk =   0.0185185
        k(   41) = (   0.3333333  -0.0000000   0.0000000), wk =   0.0185185
        k(   42) = (   0.3333333  -0.0000000   0.1666667), wk =   0.0185185
        k(   43) = (   0.3333333  -0.0000000   0.3333333), wk =   0.0185185
        k(   44) = (   0.3333333  -0.0000000  -0.5000000), wk =   0.0185185
        k(   45) = (   0.3333333   0.1666667   0.0000000), wk =   0.0185185
        k(   46) = (   0.3333333   0.1666667   0.1666667), wk =   0.0185185
        k(   47) = (   0.3333333   0.1666667   0.3333333), wk =   0.0185185
        k(   48) = (   0.3333333   0.1666667  -0.5000000), wk =   0.0185185
        k(   49) = (   0.3333333   0.3333333   0.0000000), wk =   0.0185185
        k(   50) = (   0.3333333   0.3333333   0.1666667), wk =   0.0185185
        k(   51) = (   0.3333333   0.3333333   0.3333333), wk =   0.0185185
        k(   52) = (   0.3333333   0.3333333  -0.5000000), wk =   0.0185185
        k(   53) = (   0.3333333  -0.5000000   0.0000000), wk =   0.0185185
        k(   54) = (   0.3333333  -0.5000000   0.1666667), wk =   0.0185185
        k(   55) = (   0.3333333  -0.5000000   0.3333333), wk =   0.0185185
        k(   56) = (   0.3333333  -0.5000000  -0.5000000), wk =   0.0185185
        k(   57) = (   0.3333333  -0.3333333   0.0000000), wk =   0.0185185
        k(   58) = (   0.3333333  -0.3333333   0.1666667), wk =   0.0185185
        k(   59) = (   0.3333333  -0.3333333   0.3333333), wk =   0.0185185
        k(   60) = (   0.3333333  -0.3333333  -0.5000000), wk =   0.0185185
        k(   61) = (   0.3333333  -0.1666667   0.0000000), wk =   0.0185185
        k(   62) = (   0.3333333  -0.1666667   0.1666667), wk =   0.0185185
        k(   63) = (   0.3333333  -0.1666667   0.3333333), wk =   0.0185185
        k(   64) = (   0.3333333  -0.1666667  -0.5000000), wk =   0.0185185
        k(   65) = (  -0.5000000   0.0000000   0.0000000), wk =   0.0092593
        k(   66) = (  -0.5000000   0.0000000   0.1666667), wk =   0.0185185
        k(   67) = (  -0.5000000   0.0000000   0.3333333), wk =   0.0185185
        k(   68) = (  -0.5000000   0.0000000  -0.5000000), wk =   0.0092593
        k(   69) = (  -0.5000000   0.1666667   0.0000000), wk =   0.0185185
        k(   70) = (  -0.5000000   0.1666667   0.1666667), wk =   0.0185185
        k(   71) = (  -0.5000000   0.1666667   0.3333333), wk =   0.0185185
        k(   72) = (  -0.5000000   0.1666667  -0.5000000), wk =   0.0185185
        k(   73) = (  -0.5000000   0.3333333   0.0000000), wk =   0.0185185
        k(   74) = (  -0.5000000   0.3333333   0.1666667), wk =   0.0185185
        k(   75) = (  -0.5000000   0.3333333   0.3333333), wk =   0.0185185
        k(   76) = (  -0.5000000   0.3333333  -0.5000000), wk =   0.0185185
        k(   77) = (  -0.5000000  -0.5000000   0.0000000), wk =   0.0092593
        k(   78) = (  -0.5000000  -0.5000000   0.1666667), wk =   0.0185185
        k(   79) = (  -0.5000000  -0.5000000   0.3333333), wk =   0.0185185
        k(   80) = (  -0.5000000  -0.5000000  -0.5000000), wk =   0.0092593
        k(   81) = (   0.0000000  -0.1666667   0.1666667), wk =   0.0185185
        k(   82) = (   0.0000000  -0.1666667   0.3333333), wk =   0.0185185
        k(   83) = (   0.0000000  -0.3333333   0.1666667), wk =   0.0185185
        k(   84) = (   0.0000000  -0.3333333   0.3333333), wk =   0.0185185
        k(   85) = (  -0.1666667   0.0000000   0.1666667), wk =   0.0185185
        k(   86) = (  -0.1666667   0.0000000   0.3333333), wk =   0.0185185
        k(   87) = (  -0.1666667  -0.1666667   0.1666667), wk =   0.0185185
        k(   88) = (  -0.1666667  -0.1666667   0.3333333), wk =   0.0185185
        k(   89) = (  -0.1666667  -0.3333333   0.1666667), wk =   0.0185185
        k(   90) = (  -0.1666667  -0.3333333   0.3333333), wk =   0.0185185
        k(   91) = (  -0.1666667   0.5000000   0.1666667), wk =   0.0185185
        k(   92) = (  -0.1666667   0.5000000   0.3333333), wk =   0.0185185
        k(   93) = (  -0.1666667   0.3333333   0.1666667), wk =   0.0185185
        k(   94) = (  -0.1666667   0.3333333   0.3333333), wk =   0.0185185
        k(   95) = (  -0.1666667   0.1666667   0.1666667), wk =   0.0185185
        k(   96) = (  -0.1666667   0.1666667   0.3333333), wk =   0.0185185
        k(   97) = (  -0.3333333   0.0000000   0.1666667), wk =   0.0185185
        k(   98) = (  -0.3333333   0.0000000   0.3333333), wk =   0.0185185
        k(   99) = (  -0.3333333  -0.1666667   0.1666667), wk =   0.0185185
        k(  100) = (  -0.3333333  -0.1666667   0.3333333), wk =   0.0185185
        k(  101) = (  -0.3333333  -0.3333333   0.1666667), wk =   0.0185185
        k(  102) = (  -0.3333333  -0.3333333   0.3333333), wk =   0.0185185
        k(  103) = (  -0.3333333   0.5000000   0.1666667), wk =   0.0185185
        k(  104) = (  -0.3333333   0.5000000   0.3333333), wk =   0.0185185
        k(  105) = (  -0.3333333   0.3333333   0.1666667), wk =   0.0185185
        k(  106) = (  -0.3333333   0.3333333   0.3333333), wk =   0.0185185
        k(  107) = (  -0.3333333   0.1666667   0.1666667), wk =   0.0185185
        k(  108) = (  -0.3333333   0.1666667   0.3333333), wk =   0.0185185
        k(  109) = (   0.5000000  -0.1666667   0.1666667), wk =   0.0185185
        k(  110) = (   0.5000000  -0.1666667   0.3333333), wk =   0.0185185
        k(  111) = (   0.5000000  -0.3333333   0.1666667), wk =   0.0185185
        k(  112) = (   0.5000000  -0.3333333   0.3333333), wk =   0.0185185

     Dense  grid:   316665 G-vectors     FFT dimensions: (  90, 128,  72)

     Smooth grid:   111891 G-vectors     FFT dimensions: (  64,  96,  45)

     Dynamical RAM for                 wfc:       5.76 MB

     Dynamical RAM for     wfc (w. buffer):      86.44 MB

     Dynamical RAM for           str. fact:       2.42 MB

     Dynamical RAM for           local pot:       0.00 MB

     Dynamical RAM for          nlocal pot:      16.65 MB

     Dynamical RAM for                qrad:       3.21 MB

     Dynamical RAM for          rho,v,vnew:       8.37 MB

     Dynamical RAM for               rhoin:       2.79 MB

     Dynamical RAM for            rho*nmix:      19.33 MB

     Dynamical RAM for           G-vectors:       4.74 MB

     Dynamical RAM for          h,s,v(r/c):       0.53 MB

     Dynamical RAM for          <psi|beta>:       0.51 MB

     Dynamical RAM for                 psi:      11.53 MB

     Dynamical RAM for                hpsi:      11.53 MB

     Dynamical RAM for                spsi:      11.53 MB

     Dynamical RAM for      wfcinit/wfcrot:      17.21 MB

     Dynamical RAM for           addusdens:      30.95 MB

     Dynamical RAM for          addusforce:      33.87 MB

     Estimated static dynamical RAM per process >     136.16 MB

     Estimated max dynamical RAM per process >     191.11 MB

     Estimated total dynamical RAM >       5.44 GB

     Check: negative core charge=   -0.000002

     Initial potential from superposition of free atoms

     starting charge     215.9553, renormalised to     216.0000
     Starting wfcs are  156 randomized atomic wfcs

     total cpu time spent up to now is       25.2 secs

     per-process dynamical memory:   162.6 Mb

     Self-consistent Calculation

     iteration #  1     ecut=    50.00 Ry     beta= 0.30
     Davidson diagonalization with overlap

---- Real-time Memory Report at c_bands before calling an iterative solver
           185 MiB given to the printing process from OS
           158 MiB allocation reported by mallinfo(arena+hblkhd)
        102034 MiB available memory on the node where the printing process lives
------------------
     ethr =  1.00E-02,  avg # of iterations =  1.9

     total cpu time spent up to now is       64.9 secs

     total energy              =   -2168.49982776 Ry
     estimated scf accuracy    <       4.63700596 Ry

     iteration #  2     ecut=    50.00 Ry     beta= 0.30
     Davidson diagonalization with overlap

---- Real-time Memory Report at c_bands before calling an iterative solver
           214 MiB given to the printing process from OS
           187 MiB allocation reported by mallinfo(arena+hblkhd)
        101212 MiB available memory on the node where the printing process lives
------------------
     ethr =  2.15E-03,  avg # of iterations =  2.1

     total cpu time spent up to now is      114.1 secs

     total energy              =   -2169.22465214 Ry
     estimated scf accuracy    <       0.51664833 Ry

     iteration #  3     ecut=    50.00 Ry     beta= 0.30
     Davidson diagonalization with overlap

---- Real-time Memory Report at c_bands before calling an iterative solver
           222 MiB given to the printing process from OS
           194 MiB allocation reported by mallinfo(arena+hblkhd)
        101222 MiB available memory on the node where the printing process lives
------------------
     ethr =  2.39E-04,  avg # of iterations =  7.8

     total cpu time spent up to now is      200.7 secs

     total energy              =   -2169.29849199 Ry
     estimated scf accuracy    <       0.59410306 Ry

     iteration #  4     ecut=    50.00 Ry     beta= 0.30
     Davidson diagonalization with overlap

---- Real-time Memory Report at c_bands before calling an iterative solver
           237 MiB given to the printing process from OS
           208 MiB allocation reported by mallinfo(arena+hblkhd)
        101206 MiB available memory on the node where the printing process lives
------------------
     ethr =  2.39E-04,  avg # of iterations = 11.0

     total cpu time spent up to now is      326.0 secs

     total energy              =   -2169.76385755 Ry
     estimated scf accuracy    <       2.34908539 Ry

     iteration #  5     ecut=    50.00 Ry     beta= 0.30
     Davidson diagonalization with overlap

---- Real-time Memory Report at c_bands before calling an iterative solver
           237 MiB given to the printing process from OS
           208 MiB allocation reported by mallinfo(arena+hblkhd)
        101204 MiB available memory on the node where the printing process lives
------------------
     ethr =  2.39E-04,  avg # of iterations =  2.0

     total cpu time spent up to now is      367.3 secs

     total energy              =   -2168.84572308 Ry
     estimated scf accuracy    <       1.48037747 Ry

     iteration #  6     ecut=    50.00 Ry     beta= 0.30
     Davidson diagonalization with overlap

---- Real-time Memory Report at c_bands before calling an iterative solver
           237 MiB given to the printing process from OS
           208 MiB allocation reported by mallinfo(arena+hblkhd)
        101202 MiB available memory on the node where the printing process lives
------------------
     ethr =  2.39E-04,  avg # of iterations = 10.0

     total cpu time spent up to now is      463.4 secs

     total energy              =   -2169.61694429 Ry
     estimated scf accuracy    <       1.22114179 Ry

     iteration #  7     ecut=    50.00 Ry     beta= 0.30
     Davidson diagonalization with overlap

---- Real-time Memory Report at c_bands before calling an iterative solver
           237 MiB given to the printing process from OS
           208 MiB allocation reported by mallinfo(arena+hblkhd)
        101198 MiB available memory on the node where the printing process lives
------------------
     ethr =  2.39E-04,  avg # of iterations =  2.0

     total cpu time spent up to now is      505.2 secs

     total energy              =   -2169.54810800 Ry
     estimated scf accuracy    <       0.62549406 Ry

     iteration #  8     ecut=    50.00 Ry     beta= 0.30
     Davidson diagonalization with overlap

---- Real-time Memory Report at c_bands before calling an iterative solver
           237 MiB given to the printing process from OS
           208 MiB allocation reported by mallinfo(arena+hblkhd)
        101196 MiB available memory on the node where the printing process lives
------------------
     ethr =  2.39E-04,  avg # of iterations =  2.0

     total cpu time spent up to now is      549.2 secs

     total energy              =   -2169.59360941 Ry
     estimated scf accuracy    <       0.24589230 Ry

     iteration #  9     ecut=    50.00 Ry     beta= 0.30
     Davidson diagonalization with overlap

---- Real-time Memory Report at c_bands before calling an iterative solver
           237 MiB given to the printing process from OS
           208 MiB allocation reported by mallinfo(arena+hblkhd)
        101194 MiB available memory on the node where the printing process lives
------------------
     ethr =  1.14E-04,  avg # of iterations =  2.2

     total cpu time spent up to now is      591.2 secs

     total energy              =   -2169.58238164 Ry
     estimated scf accuracy    <       0.20230564 Ry

     iteration # 10     ecut=    50.00 Ry     beta= 0.30
     Davidson diagonalization with overlap

---- Real-time Memory Report at c_bands before calling an iterative solver
           237 MiB given to the printing process from OS
           208 MiB allocation reported by mallinfo(arena+hblkhd)
        101194 MiB available memory on the node where the printing process lives
------------------
     ethr =  9.37E-05,  avg # of iterations =  2.3

     total cpu time spent up to now is      634.8 secs

     total energy              =   -2169.58015550 Ry
     estimated scf accuracy    <       0.11941656 Ry

     iteration # 11     ecut=    50.00 Ry     beta= 0.30
     Davidson diagonalization with overlap

---- Real-time Memory Report at c_bands before calling an iterative solver
           237 MiB given to the printing process from OS
           208 MiB allocation reported by mallinfo(arena+hblkhd)
        101191 MiB available memory on the node where the printing process lives
------------------
     ethr =  5.53E-05,  avg # of iterations =  4.8

     total cpu time spent up to now is      687.5 secs

     total energy              =   -2169.60635402 Ry
     estimated scf accuracy    <       0.04978793 Ry

     iteration # 12     ecut=    50.00 Ry     beta= 0.30
     Davidson diagonalization with overlap

---- Real-time Memory Report at c_bands before calling an iterative solver
           237 MiB given to the printing process from OS
           208 MiB allocation reported by mallinfo(arena+hblkhd)
        101190 MiB available memory on the node where the printing process lives
------------------
     ethr =  2.30E-05,  avg # of iterations =  2.4

     total cpu time spent up to now is      733.2 secs

     total energy              =   -2169.57411150 Ry
     estimated scf accuracy    <       0.06219715 Ry

     iteration # 13     ecut=    50.00 Ry     beta= 0.30
     Davidson diagonalization with overlap

---- Real-time Memory Report at c_bands before calling an iterative solver
           237 MiB given to the printing process from OS
           208 MiB allocation reported by mallinfo(arena+hblkhd)
        101191 MiB available memory on the node where the printing process lives
------------------
     ethr =  2.30E-05,  avg # of iterations =  6.7

     total cpu time spent up to now is      816.0 secs

     total energy              =   -2169.65659685 Ry
     estimated scf accuracy    <       0.02150316 Ry

     iteration # 14     ecut=    50.00 Ry     beta= 0.30
     Davidson diagonalization with overlap

---- Real-time Memory Report at c_bands before calling an iterative solver
           237 MiB given to the printing process from OS
           208 MiB allocation reported by mallinfo(arena+hblkhd)
        101191 MiB available memory on the node where the printing process lives
------------------
     ethr =  9.96E-06,  avg # of iterations = 12.0

     total cpu time spent up to now is      940.5 secs

     total energy              =   -2169.51506254 Ry
     estimated scf accuracy    <       0.40742437 Ry

     iteration # 15     ecut=    50.00 Ry     beta= 0.30
     Davidson diagonalization with overlap

---- Real-time Memory Report at c_bands before calling an iterative solver
           237 MiB given to the printing process from OS
           208 MiB allocation reported by mallinfo(arena+hblkhd)
        101190 MiB available memory on the node where the printing process lives
------------------
     c_bands:  1 eigenvalues not converged
     ethr =  9.96E-06,  avg # of iterations = 12.0

     total cpu time spent up to now is     1075.1 secs

     total energy              =   -2169.60352412 Ry
     estimated scf accuracy    <       0.00731561 Ry

     iteration # 16     ecut=    50.00 Ry     beta= 0.30
     Davidson diagonalization with overlap

---- Real-time Memory Report at c_bands before calling an iterative solver
           237 MiB given to the printing process from OS
           208 MiB allocation reported by mallinfo(arena+hblkhd)
        101189 MiB available memory on the node where the printing process lives
------------------
     ethr =  3.39E-06,  avg # of iterations =  2.1

     total cpu time spent up to now is     1117.0 secs

     total energy              =   -2169.60280019 Ry
     estimated scf accuracy    <       0.00394974 Ry

     iteration # 17     ecut=    50.00 Ry     beta= 0.30
     Davidson diagonalization with overlap

---- Real-time Memory Report at c_bands before calling an iterative solver
           237 MiB given to the printing process from OS
           208 MiB allocation reported by mallinfo(arena+hblkhd)
        101189 MiB available memory on the node where the printing process lives
------------------
     ethr =  1.83E-06,  avg # of iterations =  2.5

     total cpu time spent up to now is     1164.5 secs

     total energy              =   -2169.60327259 Ry
     estimated scf accuracy    <       0.00080434 Ry

     iteration # 18     ecut=    50.00 Ry     beta= 0.30
     Davidson diagonalization with overlap

---- Real-time Memory Report at c_bands before calling an iterative solver
           237 MiB given to the printing process from OS
           208 MiB allocation reported by mallinfo(arena+hblkhd)
        101190 MiB available memory on the node where the printing process lives
------------------
     ethr =  3.72E-07,  avg # of iterations =  5.8

     total cpu time spent up to now is     1231.3 secs

     total energy              =   -2169.60380510 Ry
     estimated scf accuracy    <       0.00008637 Ry

     iteration # 19     ecut=    50.00 Ry     beta= 0.30
     Davidson diagonalization with overlap

---- Real-time Memory Report at c_bands before calling an iterative solver
           237 MiB given to the printing process from OS
           208 MiB allocation reported by mallinfo(arena+hblkhd)
        101189 MiB available memory on the node where the printing process lives
------------------
     c_bands:  1 eigenvalues not converged
     ethr =  4.00E-08,  avg # of iterations = 12.3

     total cpu time spent up to now is     1369.0 secs

     total energy              =   -2169.60293479 Ry
     estimated scf accuracy    <       0.00224607 Ry

     iteration # 20     ecut=    50.00 Ry     beta= 0.30
     Davidson diagonalization with overlap

---- Real-time Memory Report at c_bands before calling an iterative solver
           237 MiB given to the printing process from OS
           208 MiB allocation reported by mallinfo(arena+hblkhd)
        101189 MiB available memory on the node where the printing process lives
------------------
     c_bands:  1 eigenvalues not converged
     c_bands:  1 eigenvalues not converged
     ethr =  4.00E-08,  avg # of iterations = 15.2

     total cpu time spent up to now is     1528.4 secs

     total energy              =   -2169.60364340 Ry
     estimated scf accuracy    <       0.00025993 Ry

     iteration # 21     ecut=    50.00 Ry     beta= 0.30
     Davidson diagonalization with overlap

---- Real-time Memory Report at c_bands before calling an iterative solver
           237 MiB given to the printing process from OS
           208 MiB allocation reported by mallinfo(arena+hblkhd)
        101189 MiB available memory on the node where the printing process lives
------------------
     ethr =  4.00E-08,  avg # of iterations =  1.8

     total cpu time spent up to now is     1568.0 secs

     total energy              =   -2169.60357794 Ry
     estimated scf accuracy    <       0.00031310 Ry

     iteration # 22     ecut=    50.00 Ry     beta= 0.30
     Davidson diagonalization with overlap

---- Real-time Memory Report at c_bands before calling an iterative solver
           237 MiB given to the printing process from OS
           208 MiB allocation reported by mallinfo(arena+hblkhd)
        101189 MiB available memory on the node where the printing process lives
------------------
     ethr =  4.00E-08,  avg # of iterations =  2.0

     total cpu time spent up to now is     1609.2 secs

     total energy              =   -2169.60353464 Ry
     estimated scf accuracy    <       0.00019052 Ry

     iteration # 23     ecut=    50.00 Ry     beta= 0.30
     Davidson diagonalization with overlap

---- Real-time Memory Report at c_bands before calling an iterative solver
           237 MiB given to the printing process from OS
           208 MiB allocation reported by mallinfo(arena+hblkhd)
        101189 MiB available memory on the node where the printing process lives
------------------
     ethr =  4.00E-08,  avg # of iterations =  5.5

     total cpu time spent up to now is     1668.7 secs

     total energy              =   -2169.60354131 Ry
     estimated scf accuracy    <       0.00003285 Ry

     iteration # 24     ecut=    50.00 Ry     beta= 0.30
     Davidson diagonalization with overlap

---- Real-time Memory Report at c_bands before calling an iterative solver
           237 MiB given to the printing process from OS
           208 MiB allocation reported by mallinfo(arena+hblkhd)
        101189 MiB available memory on the node where the printing process lives
------------------
     ethr =  1.52E-08,  avg # of iterations =  6.2

     total cpu time spent up to now is     1737.9 secs

     total energy              =   -2169.60355735 Ry
     estimated scf accuracy    <       0.00000226 Ry

     iteration # 25     ecut=    50.00 Ry     beta= 0.30
     Davidson diagonalization with overlap

---- Real-time Memory Report at c_bands before calling an iterative solver
           237 MiB given to the printing process from OS
           208 MiB allocation reported by mallinfo(arena+hblkhd)
        101189 MiB available memory on the node where the printing process lives
------------------
     ethr =  1.05E-09,  avg # of iterations =  7.2

     total cpu time spent up to now is     1806.2 secs

     total energy              =   -2169.60355672 Ry
     estimated scf accuracy    <       0.00000327 Ry

     iteration # 26     ecut=    50.00 Ry     beta= 0.30
     Davidson diagonalization with overlap

---- Real-time Memory Report at c_bands before calling an iterative solver
           237 MiB given to the printing process from OS
           208 MiB allocation reported by mallinfo(arena+hblkhd)
        101188 MiB available memory on the node where the printing process lives
------------------
     ethr =  1.05E-09,  avg # of iterations =  5.9

     total cpu time spent up to now is     1877.5 secs

     total energy              =   -2169.60355791 Ry
     estimated scf accuracy    <       0.00000062 Ry

     iteration # 27     ecut=    50.00 Ry     beta= 0.30
     Davidson diagonalization with overlap

---- Real-time Memory Report at c_bands before calling an iterative solver
           237 MiB given to the printing process from OS
           208 MiB allocation reported by mallinfo(arena+hblkhd)
        101188 MiB available memory on the node where the printing process lives
------------------
     ethr =  2.87E-10,  avg # of iterations =  5.3

     total cpu time spent up to now is     1929.1 secs

     total energy              =   -2169.60355798 Ry
     estimated scf accuracy    <       0.00000097 Ry

     iteration # 28     ecut=    50.00 Ry     beta= 0.30
     Davidson diagonalization with overlap

---- Real-time Memory Report at c_bands before calling an iterative solver
           237 MiB given to the printing process from OS
           208 MiB allocation reported by mallinfo(arena+hblkhd)
        101188 MiB available memory on the node where the printing process lives
------------------
     ethr =  2.87E-10,  avg # of iterations =  2.0

     total cpu time spent up to now is     1969.8 secs

     total energy              =   -2169.60355743 Ry
     estimated scf accuracy    <       0.00000106 Ry

     iteration # 29     ecut=    50.00 Ry     beta= 0.30
     Davidson diagonalization with overlap

---- Real-time Memory Report at c_bands before calling an iterative solver
           237 MiB given to the printing process from OS
           208 MiB allocation reported by mallinfo(arena+hblkhd)
        101188 MiB available memory on the node where the printing process lives
------------------
     ethr =  2.87E-10,  avg # of iterations =  6.0

     total cpu time spent up to now is     2041.8 secs

     total energy              =   -2169.60355768 Ry
     estimated scf accuracy    <       0.00000026 Ry

     iteration # 30     ecut=    50.00 Ry     beta= 0.30
     Davidson diagonalization with overlap

---- Real-time Memory Report at c_bands before calling an iterative solver
           237 MiB given to the printing process from OS
           208 MiB allocation reported by mallinfo(arena+hblkhd)
        101188 MiB available memory on the node where the printing process lives
------------------
     ethr =  1.22E-10,  avg # of iterations =  2.8

     total cpu time spent up to now is     2090.2 secs

     total energy              =   -2169.60355769 Ry
     estimated scf accuracy    <       0.00000005 Ry

     iteration # 31     ecut=    50.00 Ry     beta= 0.30
     Davidson diagonalization with overlap

---- Real-time Memory Report at c_bands before calling an iterative solver
           237 MiB given to the printing process from OS
           208 MiB allocation reported by mallinfo(arena+hblkhd)
        101188 MiB available memory on the node where the printing process lives
------------------
     c_bands:  1 eigenvalues not converged
     ethr =  2.12E-11,  avg # of iterations = 11.8

     total cpu time spent up to now is     2223.3 secs

     total energy              =   -2169.60355773 Ry
     estimated scf accuracy    <       0.00000052 Ry

     iteration # 32     ecut=    50.00 Ry     beta= 0.30
     Davidson diagonalization with overlap

---- Real-time Memory Report at c_bands before calling an iterative solver
           237 MiB given to the printing process from OS
           208 MiB allocation reported by mallinfo(arena+hblkhd)
        101188 MiB available memory on the node where the printing process lives
------------------
     ethr =  2.12E-11,  avg # of iterations =  5.9

     total cpu time spent up to now is     2298.0 secs

     total energy              =   -2169.60355769 Ry
     estimated scf accuracy    <       0.00000010 Ry

     iteration # 33     ecut=    50.00 Ry     beta= 0.30
     Davidson diagonalization with overlap

---- Real-time Memory Report at c_bands before calling an iterative solver
           237 MiB given to the printing process from OS
           208 MiB allocation reported by mallinfo(arena+hblkhd)
        101039 MiB available memory on the node where the printing process lives
------------------
     ethr =  2.12E-11,  avg # of iterations = 11.1

     total cpu time spent up to now is     2417.7 secs

     total energy              =   -2169.60355772 Ry
     estimated scf accuracy    <       0.00000020 Ry

     iteration # 34     ecut=    50.00 Ry     beta= 0.30
     Davidson diagonalization with overlap

---- Real-time Memory Report at c_bands before calling an iterative solver
           237 MiB given to the printing process from OS
           208 MiB allocation reported by mallinfo(arena+hblkhd)
        101040 MiB available memory on the node where the printing process lives
------------------
     ethr =  2.12E-11,  avg # of iterations =  6.4

     total cpu time spent up to now is     2491.3 secs

     End of self-consistent calculation

          k = 0.0000 0.0000 0.0000 ( 14005 PWs)   bands (ev):

   -12.1009 -11.8082 -11.8082 -11.6815 -11.6815 -11.6775 -11.5692 -11.5114
   -11.5087 -11.5087 -11.5039 -11.5039  -0.4127  -0.4127  -0.3951  -0.3409
    -0.3409  -0.3364  -0.3271  -0.3271  -0.2082  -0.2082  -0.2077  -0.2077
    -0.1903  -0.1903  -0.1876  -0.1695  -0.1695  -0.0495  -0.0269  -0.0269
    -0.0183  -0.0182   0.0224   0.0224   0.0618   0.1012   0.1012   0.1655
     0.1910   0.1910   0.1991   0.1991   0.2110   0.2438   0.2438   0.3152
     0.3153   0.3414   0.3414   0.3438   0.3438   0.3695   0.3695   0.3754
     0.3754   0.3786   0.3861   0.4296   0.4760   0.4760   0.4992   0.4992
     0.5052   0.5114   0.5114   0.5396   0.6316   0.6316   0.6396   0.6396
     0.6998   1.2463   1.3373   1.3373   1.3504   1.3505   1.8105   1.8358
     1.8358   2.0052   2.0052   2.3596   2.3596   2.3818   2.6367   2.6367
     2.6372   2.6372   2.8405   3.1132   3.1132   3.6754   3.6792   3.6792
     3.8393   3.8393   3.8993   3.8994   4.0505   4.0505   4.0881   4.2289
     4.2289   4.6131   4.6131   4.6534

     occupation numbers 
     1.0000   1.0000   1.0000   1.0000   1.0000   1.0000   1.0000   1.0000
     1.0000   1.0000   1.0000   1.0000   1.0000   1.0000   1.0000   1.0000
     1.0000   1.0000   1.0000   1.0000   1.0000   1.0000   1.0000   1.0000
     1.0000   1.0000   1.0000   1.0000   1.0000   1.0000   1.0000   1.0000
     1.0000   1.0000   1.0000   1.0000   1.0000   1.0000   1.0000   1.0000
     1.0000   1.0000   1.0000   1.0000   1.0000   1.0000   1.0000   1.0000
     1.0000   1.0000   1.0000   1.0000   1.0000   1.0000   1.0000   1.0000
     1.0000   1.0000   1.0000   1.0000   1.0000   1.0000   1.0000   1.0000
     1.0000   1.0000   1.0000   1.0000   1.0000   1.0000   1.0000   1.0000
     1.0000   1.0000   1.0000   1.0000   1.0000   1.0000   1.0000   1.0000
     1.0000   1.0000   1.0000   1.0000   1.0000   1.0000   1.0000   1.0000
     1.0000   1.0000   1.0000   1.0000   1.0000   1.0000   1.0000   1.0000
     1.0000   1.0000   1.0000   1.0000   1.0000   1.0000   1.0000   1.0000
     1.0000   1.0000   1.0000   1.0000

          k = 0.0000 0.0000 0.2197 ( 13975 PWs)   bands (ev):

   -12.0661 -11.7867 -11.7867 -11.6681 -11.6681 -11.6646 -11.6056 -11.5230
   -11.5230 -11.5206 -11.5184 -11.5184  -0.4377  -0.4377  -0.4231  -0.3653
    -0.3543  -0.3543  -0.3233  -0.3233  -0.2349  -0.2349  -0.2185  -0.2185
    -0.1922  -0.1922  -0.1876  -0.1876  -0.1662  -0.1631  -0.0951  -0.0951
    -0.0499  -0.0499   0.0138   0.0138   0.0162   0.0519   0.0748   0.0748
     0.1041   0.1041   0.1394   0.1412   0.1412   0.1805   0.2009   0.2009
     0.3317   0.3317   0.3374   0.3374   0.3465   0.3465   0.3770   0.3770
     0.4082   0.4082   0.4238   0.4317   0.4710   0.4710   0.4880   0.4880
     0.4911   0.5085   0.5085   0.5404   0.5889   0.5889   0.6228   0.6228
     1.2067   1.2107   1.3322   1.3323   1.4431   1.4431   1.7034   1.8055
     1.8055   2.1184   2.1184   2.4488   2.4488   2.6675   2.6855   2.6855
     2.8684   2.8684   2.9344   3.1943   3.1943   3.7131   3.7131   3.7984
     3.8337   3.8337   3.9494   3.9494   4.0101   4.0513   4.1060   4.1060
     4.1582   4.1582   4.5676   4.5676

     occupation numbers 
     1.0000   1.0000   1.0000   1.0000   1.0000   1.0000   1.0000   1.0000
     1.0000   1.0000   1.0000   1.0000   1.0000   1.0000   1.0000   1.0000
     1.0000   1.0000   1.0000   1.0000   1.0000   1.0000   1.0000   1.0000
     1.0000   1.0000   1.0000   1.0000   1.0000   1.0000   1.0000   1.0000
     1.0000   1.0000   1.0000   1.0000   1.0000   1.0000   1.0000   1.0000
     1.0000   1.0000   1.0000   1.0000   1.0000   1.0000   1.0000   1.0000
     1.0000   1.0000   1.0000   1.0000   1.0000   1.0000   1.0000   1.0000
     1.0000   1.0000   1.0000   1.0000   1.0000   1.0000   1.0000   1.0000
     1.0000   1.0000   1.0000   1.0000   1.0000   1.0000   1.0000   1.0000
     1.0000   1.0000   1.0000   1.0000   1.0000   1.0000   1.0000   1.0000
     1.0000   1.0000   1.0000   1.0000   1.0000   1.0000   1.0000   1.0000
     1.0000   1.0000   1.0000   1.0000   1.0000   1.0000   1.0000   1.0000
     1.0000   1.0000   1.0000   1.0000   1.0000   1.0000   1.0000   1.0000
     1.0000   1.0000   1.0000   1.0000

          k = 0.0000 0.0000 0.4393 ( 13973 PWs)   bands (ev):

   -11.9705 -11.7287 -11.7287 -11.7044 -11.6329 -11.6329 -11.6305 -11.5762
   -11.5762 -11.5472 -11.5463 -11.5463  -0.4843  -0.4843  -0.4755  -0.4197
    -0.4012  -0.4012  -0.3657  -0.3657  -0.3582  -0.3080  -0.3080  -0.3060
    -0.3060  -0.2922  -0.2306  -0.2306  -0.1461  -0.1461  -0.1388  -0.1388
    -0.1043  -0.0883  -0.0883  -0.0270  -0.0270  -0.0065  -0.0065   0.0072
     0.0072   0.0396   0.0643   0.0643   0.0874   0.0917   0.0917   0.0965
     0.3724   0.3724   0.3882   0.3882   0.3921   0.3921   0.3982   0.3982
     0.4219   0.4219   0.4377   0.4533   0.4533   0.4608   0.4608   0.4663
     0.4857   0.5207   0.5207   0.5266   0.5266   0.5378   0.5938   0.5938
     1.2194   1.3806   1.3806   1.5025   1.6215   1.6215   1.6626   1.6626
     1.9156   2.0349   2.0349   2.7230   2.7230   3.1452   3.1452   3.1789
     3.2389   3.3328   3.3573   3.3573   3.4092   3.4093   3.4858   3.4858
     3.7950   3.9234   3.9630   3.9631   3.9669   3.9669   4.0662   4.0662
     4.0844   4.0844   4.4415   4.4415

     occupation numbers 
     1.0000   1.0000   1.0000   1.0000   1.0000   1.0000   1.0000   1.0000
     1.0000   1.0000   1.0000   1.0000   1.0000   1.0000   1.0000   1.0000
     1.0000   1.0000   1.0000   1.0000   1.0000   1.0000   1.0000   1.0000
     1.0000   1.0000   1.0000   1.0000   1.0000   1.0000   1.0000   1.0000
     1.0000   1.0000   1.0000   1.0000   1.0000   1.0000   1.0000   1.0000
     1.0000   1.0000   1.0000   1.0000   1.0000   1.0000   1.0000   1.0000
     1.0000   1.0000   1.0000   1.0000   1.0000   1.0000   1.0000   1.0000
     1.0000   1.0000   1.0000   1.0000   1.0000   1.0000   1.0000   1.0000
     1.0000   1.0000   1.0000   1.0000   1.0000   1.0000   1.0000   1.0000
     1.0000   1.0000   1.0000   1.0000   1.0000   1.0000   1.0000   1.0000
     1.0000   1.0000   1.0000   1.0000   1.0000   1.0000   1.0000   1.0000
     1.0000   1.0000   1.0000   1.0000   1.0000   1.0000   1.0000   1.0000
     1.0000   1.0000   1.0000   1.0000   1.0000   1.0000   1.0000   1.0000
     1.0000   1.0000   1.0000   1.0000

          k = 0.0000 0.0000-0.6590 ( 13938 PWs)   bands (ev):

   -11.8382 -11.8382 -11.6513 -11.6513 -11.6513 -11.6513 -11.5878 -11.5878
   -11.5878 -11.5878 -11.5870 -11.5870  -0.4764  -0.4764  -0.4764  -0.4764
    -0.4737  -0.4737  -0.4220  -0.4220  -0.4061  -0.4061  -0.4061  -0.4061
    -0.2760  -0.2760  -0.2759  -0.2759  -0.0831  -0.0831  -0.0831  -0.0831
    -0.0748  -0.0748  -0.0748  -0.0748  -0.0592  -0.0592  -0.0592  -0.0592
    -0.0102  -0.0102   0.0302   0.0302   0.0302   0.0302   0.0492   0.0492
     0.4147   0.4147   0.4147   0.4147   0.4184   0.4184   0.4184   0.4184
     0.4284   0.4284   0.4284   0.4284   0.4483   0.4483   0.4620   0.4620
     0.4620   0.4620   0.5224   0.5224   0.5548   0.5548   0.5548   0.5548
     1.3285   1.3285   1.5031   1.5031   1.5031   1.5031   1.8251   1.8251
     1.8251   1.8251   2.6305   2.6305   3.0908   3.0908   3.0908   3.0908
     3.4938   3.4938   3.6909   3.6909   3.6909   3.6909   3.7182   3.7182
     3.7182   3.7182   3.7360   3.7360   3.8317   3.8317   3.8317   3.8317
     4.2652   4.2652   4.2652   4.2652

     occupation numbers 
     1.0000   1.0000   1.0000   1.0000   1.0000   1.0000   1.0000   1.0000
     1.0000   1.0000   1.0000   1.0000   1.0000   1.0000   1.0000   1.0000
     1.0000   1.0000   1.0000   1.0000   1.0000   1.0000   1.0000   1.0000
     1.0000   1.0000   1.0000   1.0000   1.0000   1.0000   1.0000   1.0000
     1.0000   1.0000   1.0000   1.0000   1.0000   1.0000   1.0000   1.0000
     1.0000   1.0000   1.0000   1.0000   1.0000   1.0000   1.0000   1.0000
     1.0000   1.0000   1.0000   1.0000   1.0000   1.0000   1.0000   1.0000
     1.0000   1.0000   1.0000   1.0000   1.0000   1.0000   1.0000   1.0000
     1.0000   1.0000   1.0000   1.0000   1.0000   1.0000   1.0000   1.0000
     1.0000   1.0000   1.0000   1.0000   1.0000   1.0000   1.0000   1.0000
     1.0000   1.0000   1.0000   1.0000   1.0000   1.0000   1.0000   1.0000
     1.0000   1.0000   1.0000   1.0000   1.0000   1.0000   1.0000   1.0000
     1.0000   1.0000   1.0000   1.0000   1.0000   1.0000   1.0000   1.0000
     1.0000   1.0000   1.0000   1.0000

          k = 0.0000 0.1283 0.0000 ( 13963 PWs)   bands (ev):

   -12.0903 -11.8791 -11.7439 -11.6826 -11.6797 -11.6781 -11.5657 -11.5123
   -11.5109 -11.5099 -11.5079 -11.5028  -0.4143  -0.4049  -0.3881  -0.3682
    -0.3479  -0.3207  -0.3187  -0.3153  -0.2266  -0.2203  -0.2119  -0.2000
    -0.1956  -0.1913  -0.1685  -0.1601  -0.1451  -0.0880  -0.0450  -0.0322
    -0.0269   0.0032   0.0348   0.0481   0.0758   0.0807   0.1366   0.1374
     0.1459   0.1588   0.2245   0.2286   0.2375   0.2462   0.2552   0.3118
     0.3149   0.3201   0.3278   0.3443   0.3482   0.3517   0.3572   0.3587
     0.3723   0.3977   0.4037   0.4227   0.4773   0.4951   0.5026   0.5075
     0.5099   0.5122   0.5286   0.5552   0.5927   0.6313   0.6352   0.6555
     0.7078   1.2093   1.2579   1.2932   1.3344   1.4063   1.8144   1.8185
     1.8345   1.8682   2.3178   2.3562   2.3696   2.3786   2.4511   2.5801
     2.7278   2.8090   2.9033   2.9700   3.2852   3.6733   3.6738   3.6939
     3.7534   3.8074   3.8671   3.8744   3.9540   4.0506   4.1547   4.2250
     4.3168   4.3178   4.5992   4.6420

     occupation numbers 
     1.0000   1.0000   1.0000   1.0000   1.0000   1.0000   1.0000   1.0000
     1.0000   1.0000   1.0000   1.0000   1.0000   1.0000   1.0000   1.0000
     1.0000   1.0000   1.0000   1.0000   1.0000   1.0000   1.0000   1.0000
     1.0000   1.0000   1.0000   1.0000   1.0000   1.0000   1.0000   1.0000
     1.0000   1.0000   1.0000   1.0000   1.0000   1.0000   1.0000   1.0000
     1.0000   1.0000   1.0000   1.0000   1.0000   1.0000   1.0000   1.0000
     1.0000   1.0000   1.0000   1.0000   1.0000   1.0000   1.0000   1.0000
     1.0000   1.0000   1.0000   1.0000   1.0000   1.0000   1.0000   1.0000
     1.0000   1.0000   1.0000   1.0000   1.0000   1.0000   1.0000   1.0000
     1.0000   1.0000   1.0000   1.0000   1.0000   1.0000   1.0000   1.0000
     1.0000   1.0000   1.0000   1.0000   1.0000   1.0000   1.0000   1.0000
     1.0000   1.0000   1.0000   1.0000   1.0000   1.0000   1.0000   1.0000
     1.0000   1.0000   1.0000   1.0000   1.0000   1.0000   1.0000   1.0000
     1.0000   1.0000   1.0000   1.0000

          k = 0.0000 0.1283 0.2197 ( 13963 PWs)   bands (ev):

   -12.0560 -11.8539 -11.7263 -11.6691 -11.6666 -11.6652 -11.6015 -11.5360
   -11.5202 -11.5194 -11.5178 -11.5174  -0.4374  -0.4317  -0.4149  -0.3910
    -0.3724  -0.3167  -0.3161  -0.3144  -0.2518  -0.2496  -0.2144  -0.2084
    -0.1921  -0.1883  -0.1784  -0.1770  -0.1733  -0.1529  -0.1262  -0.1122
    -0.0730  -0.0170   0.0110   0.0205   0.0244   0.0567   0.0617   0.0883
     0.1022   0.1063   0.1171   0.1301   0.1743   0.1896   0.1980   0.1998
     0.3125   0.3159   0.3290   0.3314   0.3550   0.3717   0.3827   0.4023
     0.4042   0.4113   0.4159   0.4260   0.4721   0.4779   0.4851   0.4902
     0.4976   0.5048   0.5100   0.5548   0.5679   0.5891   0.5983   0.6421
     1.2198   1.2245   1.2620   1.3297   1.4008   1.4656   1.7223   1.7674
     1.8081   1.9173   2.3883   2.4024   2.5501   2.6191   2.6358   2.8462
     2.8774   2.8985   2.9240   3.0575   3.3592   3.6454   3.7768   3.7942
     3.8252   3.8553   3.8865   3.9184   3.9351   3.9625   3.9728   4.0801
     4.2458   4.2519   4.5525   4.5596

     occupation numbers 
     1.0000   1.0000   1.0000   1.0000   1.0000   1.0000   1.0000   1.0000
     1.0000   1.0000   1.0000   1.0000   1.0000   1.0000   1.0000   1.0000
     1.0000   1.0000   1.0000   1.0000   1.0000   1.0000   1.0000   1.0000
     1.0000   1.0000   1.0000   1.0000   1.0000   1.0000   1.0000   1.0000
     1.0000   1.0000   1.0000   1.0000   1.0000   1.0000   1.0000   1.0000
     1.0000   1.0000   1.0000   1.0000   1.0000   1.0000   1.0000   1.0000
     1.0000   1.0000   1.0000   1.0000   1.0000   1.0000   1.0000   1.0000
     1.0000   1.0000   1.0000   1.0000   1.0000   1.0000   1.0000   1.0000
     1.0000   1.0000   1.0000   1.0000   1.0000   1.0000   1.0000   1.0000
     1.0000   1.0000   1.0000   1.0000   1.0000   1.0000   1.0000   1.0000
     1.0000   1.0000   1.0000   1.0000   1.0000   1.0000   1.0000   1.0000
     1.0000   1.0000   1.0000   1.0000   1.0000   1.0000   1.0000   1.0000
     1.0000   1.0000   1.0000   1.0000   1.0000   1.0000   1.0000   1.0000
     1.0000   1.0000   1.0000   1.0000

          k = 0.0000 0.1283 0.4393 ( 13986 PWs)   bands (ev):

   -11.9614 -11.7853 -11.6989 -11.6792 -11.6336 -11.6319 -11.6309 -11.6016
   -11.5584 -11.5471 -11.5467 -11.5461  -0.4817  -0.4815  -0.4664  -0.4402
    -0.4248  -0.3640  -0.3625  -0.3594  -0.3486  -0.3251  -0.3125  -0.3063
    -0.3010  -0.2961  -0.2220  -0.2199  -0.1777  -0.1524  -0.1343  -0.1276
    -0.1227  -0.1116  -0.0750  -0.0488  -0.0376  -0.0187   0.0160   0.0289
     0.0414   0.0543   0.0633   0.0636   0.0753   0.0897   0.0953   0.0975
     0.3711   0.3717   0.3737   0.3745   0.3836   0.4116   0.4159   0.4187
     0.4230   0.4296   0.4313   0.4470   0.4534   0.4559   0.4581   0.4638
     0.5008   0.5089   0.5136   0.5239   0.5423   0.5481   0.5717   0.6061
     1.2389   1.2964   1.4180   1.4530   1.5273   1.5906   1.7061   1.7771
     1.8038   1.9216   2.3263   2.6132   2.8925   3.0641   3.1701   3.1924
     3.2858   3.2876   3.3013   3.3089   3.3592   3.4525   3.5565   3.6044
     3.7341   3.8742   3.9391   3.9566   3.9719   4.0008   4.0102   4.0569
     4.0703   4.1303   4.4091   4.4230

     occupation numbers 
     1.0000   1.0000   1.0000   1.0000   1.0000   1.0000   1.0000   1.0000
     1.0000   1.0000   1.0000   1.0000   1.0000   1.0000   1.0000   1.0000
     1.0000   1.0000   1.0000   1.0000   1.0000   1.0000   1.0000   1.0000
     1.0000   1.0000   1.0000   1.0000   1.0000   1.0000   1.0000   1.0000
     1.0000   1.0000   1.0000   1.0000   1.0000   1.0000   1.0000   1.0000
     1.0000   1.0000   1.0000   1.0000   1.0000   1.0000   1.0000   1.0000
     1.0000   1.0000   1.0000   1.0000   1.0000   1.0000   1.0000   1.0000
     1.0000   1.0000   1.0000   1.0000   1.0000   1.0000   1.0000   1.0000
     1.0000   1.0000   1.0000   1.0000   1.0000   1.0000   1.0000   1.0000
     1.0000   1.0000   1.0000   1.0000   1.0000   1.0000   1.0000   1.0000
     1.0000   1.0000   1.0000   1.0000   1.0000   1.0000   1.0000   1.0000
     1.0000   1.0000   1.0000   1.0000   1.0000   1.0000   1.0000   1.0000
     1.0000   1.0000   1.0000   1.0000   1.0000   1.0000   1.0000   1.0000
     1.0000   1.0000   1.0000   1.0000

          k = 0.0000 0.1283-0.6590 ( 13974 PWs)   bands (ev):

   -11.8309 -11.8309 -11.6927 -11.6927 -11.6172 -11.6172 -11.5880 -11.5880
   -11.5875 -11.5875 -11.5872 -11.5872  -0.4762  -0.4762  -0.4728  -0.4728
    -0.4643  -0.4643  -0.4388  -0.4388  -0.4263  -0.4263  -0.3816  -0.3816
    -0.2706  -0.2706  -0.2682  -0.2682  -0.1415  -0.1415  -0.1188  -0.1188
    -0.0785  -0.0785  -0.0399  -0.0399  -0.0351  -0.0351  -0.0213  -0.0213
    -0.0169  -0.0169   0.0242   0.0242   0.0393   0.0393   0.0466   0.0466
     0.4088   0.4088   0.4178   0.4178   0.4190   0.4190   0.4215   0.4215
     0.4263   0.4263   0.4372   0.4372   0.4407   0.4407   0.4456   0.4456
     0.4842   0.4842   0.5293   0.5293   0.5429   0.5429   0.5615   0.5615
     1.3528   1.3528   1.4186   1.4186   1.5662   1.5662   1.5817   1.5817
     2.0823   2.0823   2.6182   2.6182   2.9786   2.9786   3.2597   3.2597
     3.4189   3.4189   3.5866   3.5866   3.7226   3.7226   3.7358   3.7358
     3.7653   3.7653   3.8058   3.8058   3.8172   3.8172   3.8434   3.8434
     4.2099   4.2099   4.2422   4.2422

     occupation numbers 
     1.0000   1.0000   1.0000   1.0000   1.0000   1.0000   1.0000   1.0000
     1.0000   1.0000   1.0000   1.0000   1.0000   1.0000   1.0000   1.0000
     1.0000   1.0000   1.0000   1.0000   1.0000   1.0000   1.0000   1.0000
     1.0000   1.0000   1.0000   1.0000   1.0000   1.0000   1.0000   1.0000
     1.0000   1.0000   1.0000   1.0000   1.0000   1.0000   1.0000   1.0000
     1.0000   1.0000   1.0000   1.0000   1.0000   1.0000   1.0000   1.0000
     1.0000   1.0000   1.0000   1.0000   1.0000   1.0000   1.0000   1.0000
     1.0000   1.0000   1.0000   1.0000   1.0000   1.0000   1.0000   1.0000
     1.0000   1.0000   1.0000   1.0000   1.0000   1.0000   1.0000   1.0000
     1.0000   1.0000   1.0000   1.0000   1.0000   1.0000   1.0000   1.0000
     1.0000   1.0000   1.0000   1.0000   1.0000   1.0000   1.0000   1.0000
     1.0000   1.0000   1.0000   1.0000   1.0000   1.0000   1.0000   1.0000
     1.0000   1.0000   1.0000   1.0000   1.0000   1.0000   1.0000   1.0000
     1.0000   1.0000   1.0000   1.0000

          k = 0.0000 0.2566 0.0000 ( 13993 PWs)   bands (ev):

   -12.0595 -11.9489 -11.6961 -11.6826 -11.6797 -11.6781 -11.5559 -11.5260
   -11.5109 -11.5099 -11.5079 -11.5077  -0.4053  -0.3978  -0.3881  -0.3682
    -0.3665  -0.3187  -0.3037  -0.2954  -0.2515  -0.2449  -0.2119  -0.2000
    -0.1913  -0.1894  -0.1646  -0.1326  -0.1309  -0.0871  -0.0450  -0.0322
    -0.0311  -0.0269   0.0032   0.0758   0.0807   0.0943   0.1262   0.1366
     0.1374   0.1975   0.2245   0.2375   0.2462   0.2552   0.2594   0.3012
     0.3015   0.3135   0.3147   0.3267   0.3278   0.3482   0.3587   0.3690
     0.3723   0.4037   0.4206   0.4227   0.4805   0.4903   0.5046   0.5075
     0.5099   0.5122   0.5552   0.5834   0.5927   0.5996   0.6326   0.6555
     0.7534   1.0365   1.2579   1.2678   1.2932   1.4063   1.8144   1.8185
     1.8311   1.8345   2.3562   2.3696   2.3786   2.3833   2.5801   2.7220
     2.7278   2.8090   2.8743   3.2125   3.4660   3.5423   3.6733   3.6738
     3.6939   3.7324   3.7534   3.7750   3.9106   3.9540   4.0506   4.1054
     4.3782   4.4095   4.5581   4.5892

     occupation numbers 
     1.0000   1.0000   1.0000   1.0000   1.0000   1.0000   1.0000   1.0000
     1.0000   1.0000   1.0000   1.0000   1.0000   1.0000   1.0000   1.0000
     1.0000   1.0000   1.0000   1.0000   1.0000   1.0000   1.0000   1.0000
     1.0000   1.0000   1.0000   1.0000   1.0000   1.0000   1.0000   1.0000
     1.0000   1.0000   1.0000   1.0000   1.0000   1.0000   1.0000   1.0000
     1.0000   1.0000   1.0000   1.0000   1.0000   1.0000   1.0000   1.0000
     1.0000   1.0000   1.0000   1.0000   1.0000   1.0000   1.0000   1.0000
     1.0000   1.0000   1.0000   1.0000   1.0000   1.0000   1.0000   1.0000
     1.0000   1.0000   1.0000   1.0000   1.0000   1.0000   1.0000   1.0000
     1.0000   1.0000   1.0000   1.0000   1.0000   1.0000   1.0000   1.0000
     1.0000   1.0000   1.0000   1.0000   1.0000   1.0000   1.0000   1.0000
     1.0000   1.0000   1.0000   1.0000   1.0000   1.0000   1.0000   1.0000
     1.0000   1.0000   1.0000   1.0000   1.0000   1.0000   1.0000   1.0000
     1.0000   1.0000   1.0000   1.0000

          k = 0.0000 0.2566 0.2197 ( 13973 PWs)   bands (ev):

   -12.0263 -11.9204 -11.6818 -11.6691 -11.6666 -11.6652 -11.5901 -11.5539
   -11.5202 -11.5194 -11.5185 -11.5178  -0.4274  -0.4255  -0.4149  -0.3910
    -0.3892  -0.3144  -0.2995  -0.2987  -0.2642  -0.2496  -0.2424  -0.1921
    -0.1886  -0.1781  -0.1733  -0.1688  -0.1574  -0.1529  -0.1515  -0.1262
    -0.0730  -0.0528  -0.0170   0.0335   0.0567   0.0617   0.0622   0.0817
     0.1033   0.1063   0.1171   0.1673   0.1743   0.1896   0.1980   0.1998
     0.3061   0.3159   0.3215   0.3308   0.3401   0.3827   0.4037   0.4042
     0.4113   0.4159   0.4231   0.4260   0.4747   0.4817   0.4910   0.4956
     0.4976   0.5048   0.5100   0.5444   0.5548   0.5733   0.5891   0.6421
     1.2198   1.2325   1.2620   1.2654   1.4008   1.4081   1.7223   1.7666
     1.7674   1.8081   2.3883   2.5501   2.6358   2.6440   2.7694   2.8462
     2.8985   2.9240   2.9664   3.1461   3.5328   3.5607   3.6454   3.7119
     3.7768   3.7942   3.8252   3.8299   3.8456   3.8865   3.9728   4.0283
     4.3492   4.3661   4.5080   4.5251

     occupation numbers 
     1.0000   1.0000   1.0000   1.0000   1.0000   1.0000   1.0000   1.0000
     1.0000   1.0000   1.0000   1.0000   1.0000   1.0000   1.0000   1.0000
     1.0000   1.0000   1.0000   1.0000   1.0000   1.0000   1.0000   1.0000
     1.0000   1.0000   1.0000   1.0000   1.0000   1.0000   1.0000   1.0000
     1.0000   1.0000   1.0000   1.0000   1.0000   1.0000   1.0000   1.0000
     1.0000   1.0000   1.0000   1.0000   1.0000   1.0000   1.0000   1.0000
     1.0000   1.0000   1.0000   1.0000   1.0000   1.0000   1.0000   1.0000
     1.0000   1.0000   1.0000   1.0000   1.0000   1.0000   1.0000   1.0000
     1.0000   1.0000   1.0000   1.0000   1.0000   1.0000   1.0000   1.0000
     1.0000   1.0000   1.0000   1.0000   1.0000   1.0000   1.0000   1.0000
     1.0000   1.0000   1.0000   1.0000   1.0000   1.0000   1.0000   1.0000
     1.0000   1.0000   1.0000   1.0000   1.0000   1.0000   1.0000   1.0000
     1.0000   1.0000   1.0000   1.0000   1.0000   1.0000   1.0000   1.0000
     1.0000   1.0000   1.0000   1.0000

          k = 0.0000 0.2566 0.4393 ( 13987 PWs)   bands (ev):

   -11.9351 -11.8425 -11.6831 -11.6438 -11.6336 -11.6319 -11.6309 -11.6307
   -11.5494 -11.5471 -11.5467 -11.5461  -0.4774  -0.4715  -0.4664  -0.4402
    -0.4381  -0.3602  -0.3594  -0.3535  -0.3486  -0.3251  -0.3214  -0.3125
    -0.2807  -0.2791  -0.2141  -0.2058  -0.1968  -0.1953  -0.1343  -0.1276
    -0.1217  -0.1116  -0.1089  -0.1058  -0.0376   0.0283   0.0289   0.0414
     0.0608   0.0633   0.0636   0.0753   0.0855   0.0897   0.0953   0.0975
     0.3664   0.3685   0.3706   0.3745   0.3746   0.4116   0.4187   0.4296
     0.4311   0.4313   0.4470   0.4540   0.4563   0.4609   0.4640   0.4657
     0.4918   0.5008   0.5136   0.5239   0.5467   0.5481   0.5717   0.6061
     1.2389   1.2689   1.2964   1.4530   1.5273   1.5815   1.5906   1.7061
     1.9092   1.9350   2.6132   2.6305   2.8925   3.0641   3.1440   3.2071
     3.2166   3.3013   3.3089   3.3417   3.3592   3.4525   3.6044   3.7121
     3.7341   3.8155   3.8169   3.9391   3.9460   3.9566   3.9719   3.9780
     4.1825   4.1924   4.3360   4.3695

     occupation numbers 
     1.0000   1.0000   1.0000   1.0000   1.0000   1.0000   1.0000   1.0000
     1.0000   1.0000   1.0000   1.0000   1.0000   1.0000   1.0000   1.0000
     1.0000   1.0000   1.0000   1.0000   1.0000   1.0000   1.0000   1.0000
     1.0000   1.0000   1.0000   1.0000   1.0000   1.0000   1.0000   1.0000
     1.0000   1.0000   1.0000   1.0000   1.0000   1.0000   1.0000   1.0000
     1.0000   1.0000   1.0000   1.0000   1.0000   1.0000   1.0000   1.0000
     1.0000   1.0000   1.0000   1.0000   1.0000   1.0000   1.0000   1.0000
     1.0000   1.0000   1.0000   1.0000   1.0000   1.0000   1.0000   1.0000
     1.0000   1.0000   1.0000   1.0000   1.0000   1.0000   1.0000   1.0000
     1.0000   1.0000   1.0000   1.0000   1.0000   1.0000   1.0000   1.0000
     1.0000   1.0000   1.0000   1.0000   1.0000   1.0000   1.0000   1.0000
     1.0000   1.0000   1.0000   1.0000   1.0000   1.0000   1.0000   1.0000
     1.0000   1.0000   1.0000   1.0000   1.0000   1.0000   1.0000   1.0000
     1.0000   1.0000   1.0000   1.0000

          k = 0.0000 0.2566-0.6590 ( 13982 PWs)   bands (ev):

   -11.8096 -11.8096 -11.7363 -11.7363 -11.5949 -11.5948 -11.5880 -11.5880
   -11.5875 -11.5875 -11.5872 -11.5872  -0.4746  -0.4746  -0.4643  -0.4643
    -0.4639  -0.4639  -0.4388  -0.4388  -0.4372  -0.4372  -0.3816  -0.3816
    -0.2543  -0.2543  -0.2454  -0.2454  -0.1901  -0.1901  -0.1659  -0.1659
    -0.0785  -0.0785  -0.0351  -0.0351  -0.0178  -0.0178  -0.0169  -0.0169
     0.0242   0.0242   0.0292   0.0292   0.0393   0.0393   0.0466   0.0466
     0.4088   0.4088   0.4170   0.4170   0.4177   0.4177   0.4214   0.4214
     0.4263   0.4263   0.4341   0.4341   0.4407   0.4407   0.4451   0.4451
     0.5093   0.5093   0.5293   0.5293   0.5429   0.5429   0.5615   0.5615
     1.3528   1.3528   1.3989   1.3989   1.4186   1.4186   1.5662   1.5662
     2.3109   2.3109   2.5738   2.5738   2.9786   2.9786   3.2597   3.2597
     3.4189   3.4189   3.5178   3.5178   3.7319   3.7319   3.7653   3.7653
     3.7976   3.7976   3.8058   3.8058   3.8434   3.8434   3.9504   3.9504
     4.0727   4.0727   4.1761   4.1761

     occupation numbers 
     1.0000   1.0000   1.0000   1.0000   1.0000   1.0000   1.0000   1.0000
     1.0000   1.0000   1.0000   1.0000   1.0000   1.0000   1.0000   1.0000
     1.0000   1.0000   1.0000   1.0000   1.0000   1.0000   1.0000   1.0000
     1.0000   1.0000   1.0000   1.0000   1.0000   1.0000   1.0000   1.0000
     1.0000   1.0000   1.0000   1.0000   1.0000   1.0000   1.0000   1.0000
     1.0000   1.0000   1.0000   1.0000   1.0000   1.0000   1.0000   1.0000
     1.0000   1.0000   1.0000   1.0000   1.0000   1.0000   1.0000   1.0000
     1.0000   1.0000   1.0000   1.0000   1.0000   1.0000   1.0000   1.0000
     1.0000   1.0000   1.0000   1.0000   1.0000   1.0000   1.0000   1.0000
     1.0000   1.0000   1.0000   1.0000   1.0000   1.0000   1.0000   1.0000
     1.0000   1.0000   1.0000   1.0000   1.0000   1.0000   1.0000   1.0000
     1.0000   1.0000   1.0000   1.0000   1.0000   1.0000   1.0000   1.0000
     1.0000   1.0000   1.0000   1.0000   1.0000   1.0000   1.0000   1.0000
     1.0000   1.0000   1.0000   1.0000

          k = 0.0000-0.3849 0.0000 ( 14018 PWs)   bands (ev):

   -12.0109 -12.0109 -11.6815 -11.6815 -11.6775 -11.6775 -11.5417 -11.5417
   -11.5114 -11.5114 -11.5087 -11.5087  -0.3951  -0.3951  -0.3874  -0.3874
    -0.3409  -0.3409  -0.2789  -0.2788  -0.2706  -0.2706  -0.2082  -0.2082
    -0.1876  -0.1876  -0.1543  -0.1543  -0.0887  -0.0887  -0.0495  -0.0495
    -0.0183  -0.0183   0.0224   0.0224   0.0618   0.0618   0.1655   0.1655
     0.1991   0.1991   0.2110   0.2110   0.2438   0.2438   0.2844   0.2844
     0.2964   0.2964   0.3176   0.3176   0.3438   0.3438   0.3754   0.3754
     0.3786   0.3786   0.4296   0.4296   0.4853   0.4853   0.5052   0.5052
     0.5114   0.5114   0.5396   0.5396   0.6275   0.6275   0.6316   0.6316
     0.8725   0.8725   1.2463   1.2463   1.3504   1.3505   1.8105   1.8105
     1.8358   1.8358   2.3596   2.3596   2.3818   2.3818   2.6367   2.6367
     2.8405   2.8406   3.1519   3.1519   3.5470   3.5470   3.6356   3.6356
     3.6754   3.6754   3.6792   3.6792   3.8393   3.8393   4.0881   4.0881
     4.4928   4.4928   4.5008   4.5008

     occupation numbers 
     1.0000   1.0000   1.0000   1.0000   1.0000   1.0000   1.0000   1.0000
     1.0000   1.0000   1.0000   1.0000   1.0000   1.0000   1.0000   1.0000
     1.0000   1.0000   1.0000   1.0000   1.0000   1.0000   1.0000   1.0000
     1.0000   1.0000   1.0000   1.0000   1.0000   1.0000   1.0000   1.0000
     1.0000   1.0000   1.0000   1.0000   1.0000   1.0000   1.0000   1.0000
     1.0000   1.0000   1.0000   1.0000   1.0000   1.0000   1.0000   1.0000
     1.0000   1.0000   1.0000   1.0000   1.0000   1.0000   1.0000   1.0000
     1.0000   1.0000   1.0000   1.0000   1.0000   1.0000   1.0000   1.0000
     1.0000   1.0000   1.0000   1.0000   1.0000   1.0000   1.0000   1.0000
     1.0000   1.0000   1.0000   1.0000   1.0000   1.0000   1.0000   1.0000
     1.0000   1.0000   1.0000   1.0000   1.0000   1.0000   1.0000   1.0000
     1.0000   1.0000   1.0000   1.0000   1.0000   1.0000   1.0000   1.0000
     1.0000   1.0000   1.0000   1.0000   1.0000   1.0000   1.0000   1.0000
     1.0000   1.0000   1.0000   1.0000

          k = 0.0000-0.3849 0.2197 ( 13970 PWs)   bands (ev):

   -11.9797 -11.9797 -11.6681 -11.6681 -11.6646 -11.6646 -11.5732 -11.5732
   -11.5206 -11.5206 -11.5184 -11.5184  -0.4231  -0.4231  -0.4096  -0.4096
    -0.3543  -0.3543  -0.2800  -0.2800  -0.2724  -0.2724  -0.2185  -0.2185
    -0.1816  -0.1816  -0.1662  -0.1662  -0.1631  -0.1631  -0.1087  -0.1087
    -0.0951  -0.0951   0.0138   0.0138   0.0519   0.0519   0.0552   0.0552
     0.1394   0.1394   0.1412   0.1412   0.1805   0.1805   0.2009   0.2009
     0.3121   0.3121   0.3326   0.3326   0.3465   0.3465   0.4082   0.4082
     0.4238   0.4238   0.4317   0.4317   0.4780   0.4780   0.4911   0.4911
     0.5085   0.5085   0.5194   0.5194   0.5404   0.5404   0.6228   0.6228
     1.2067   1.2067   1.3305   1.3305   1.3322   1.3323   1.7034   1.7034
     1.8055   1.8055   2.4488   2.4488   2.6675   2.6675   2.8684   2.8684
     2.9344   2.9344   3.1720   3.1720   3.4384   3.4384   3.6959   3.6959
     3.7131   3.7131   3.7984   3.7984   3.8337   3.8337   4.0101   4.0101
     4.4379   4.4379   4.4601   4.4601

     occupation numbers 
     1.0000   1.0000   1.0000   1.0000   1.0000   1.0000   1.0000   1.0000
     1.0000   1.0000   1.0000   1.0000   1.0000   1.0000   1.0000   1.0000
     1.0000   1.0000   1.0000   1.0000   1.0000   1.0000   1.0000   1.0000
     1.0000   1.0000   1.0000   1.0000   1.0000   1.0000   1.0000   1.0000
     1.0000   1.0000   1.0000   1.0000   1.0000   1.0000   1.0000   1.0000
     1.0000   1.0000   1.0000   1.0000   1.0000   1.0000   1.0000   1.0000
     1.0000   1.0000   1.0000   1.0000   1.0000   1.0000   1.0000   1.0000
     1.0000   1.0000   1.0000   1.0000   1.0000   1.0000   1.0000   1.0000
     1.0000   1.0000   1.0000   1.0000   1.0000   1.0000   1.0000   1.0000
     1.0000   1.0000   1.0000   1.0000   1.0000   1.0000   1.0000   1.0000
     1.0000   1.0000   1.0000   1.0000   1.0000   1.0000   1.0000   1.0000
     1.0000   1.0000   1.0000   1.0000   1.0000   1.0000   1.0000   1.0000
     1.0000   1.0000   1.0000   1.0000   1.0000   1.0000   1.0000   1.0000
     1.0000   1.0000   1.0000   1.0000

          k = 0.0000-0.3849 0.4393 ( 13962 PWs)   bands (ev):

   -11.8942 -11.8942 -11.6593 -11.6593 -11.6329 -11.6329 -11.6305 -11.6305
   -11.5472 -11.5472 -11.5463 -11.5463  -0.4755  -0.4755  -0.4554  -0.4554
    -0.4012  -0.4012  -0.3582  -0.3582  -0.3392  -0.3392  -0.3060  -0.3060
    -0.2502  -0.2502  -0.2480  -0.2480  -0.1623  -0.1623  -0.1568  -0.1568
    -0.1388  -0.1388  -0.1043  -0.1043  -0.0065  -0.0065   0.0396   0.0396
     0.0643   0.0643   0.0874   0.0874   0.0917   0.0917   0.0965   0.0965
     0.3659   0.3659   0.3708   0.3708   0.3882   0.3882   0.4219   0.4219
     0.4377   0.4377   0.4550   0.4550   0.4663   0.4663   0.4763   0.4763
     0.4857   0.4857   0.5207   0.5207   0.5378   0.5378   0.5938   0.5938
     1.2194   1.2194   1.3806   1.3806   1.5025   1.5025   1.6626   1.6626
     1.9408   1.9408   2.7230   2.7230   2.9160   2.9160   3.1789   3.1789
     3.2389   3.2389   3.3573   3.3573   3.4858   3.4858   3.5703   3.5703
     3.7950   3.7950   3.8582   3.8582   3.9234   3.9234   3.9669   3.9669
     4.2593   4.2593   4.2862   4.2862

     occupation numbers 
     1.0000   1.0000   1.0000   1.0000   1.0000   1.0000   1.0000   1.0000
     1.0000   1.0000   1.0000   1.0000   1.0000   1.0000   1.0000   1.0000
     1.0000   1.0000   1.0000   1.0000   1.0000   1.0000   1.0000   1.0000
     1.0000   1.0000   1.0000   1.0000   1.0000   1.0000   1.0000   1.0000
[...]
     xc contribution           =    -655.41789004 Ry
     ewald contribution        =   -1222.42840830 Ry

     convergence has been achieved in  34 iterations

     Forces acting on atoms (cartesian axes, Ry/au):

     atom    1 type  1   force =    -0.00000109    0.00000295   -0.00588056
     atom    2 type  1   force =    -0.00000124    0.00000070   -0.00587570
     atom    3 type  2   force =    -0.00000014    0.00000036    0.00587838
     atom    4 type  2   force =    -0.00000018    0.00000014    0.00587789
     atom    5 type  1   force =     0.00000061   -0.00000379   -0.00588049
     atom    6 type  1   force =    -0.00000159   -0.00000438   -0.00587768
     atom    7 type  2   force =     0.00000010   -0.00000002    0.00587832
     atom    8 type  2   force =     0.00000013   -0.00000037    0.00587799
     atom    9 type  1   force =     0.00000095    0.00000250   -0.00587878
     atom   10 type  1   force =     0.00000042    0.00000159   -0.00587566
     atom   11 type  2   force =     0.00000018    0.00000024    0.00587824
     atom   12 type  2   force =    -0.00000039    0.00000013    0.00587806
     atom   13 type  1   force =     0.00000146    0.00000261   -0.00587986
     atom   14 type  1   force =     0.00000066    0.00000247   -0.00587779
     atom   15 type  2   force =     0.00000024    0.00000024    0.00587813
     atom   16 type  2   force =     0.00000009   -0.00000002    0.00587790
     atom   17 type  1   force =    -0.00000028   -0.00000303   -0.00587793
     atom   18 type  1   force =     0.00000099   -0.00000610   -0.00587656
     atom   19 type  2   force =     0.00000005    0.00000024    0.00587812
     atom   20 type  2   force =    -0.00000015   -0.00000000    0.00587817
     atom   21 type  1   force =     0.00000050    0.00000116   -0.00587993
     atom   22 type  1   force =    -0.00000175    0.00000216   -0.00587686
     atom   23 type  2   force =     0.00000010    0.00000017    0.00587839
     atom   24 type  2   force =     0.00000031    0.00000007    0.00587822
     The non-local contrib.  to forces
     atom    1 type  1   force =     0.00000044   -0.00000362   -0.16881985
     atom    2 type  1   force =    -0.00000050    0.00000447   -0.16881868
     atom    3 type  2   force =    -0.00000079    0.00000756   -0.14722479
     atom    4 type  2   force =    -0.00000022   -0.00000724   -0.14722609
     atom    5 type  1   force =    -0.00000078   -0.00000579   -0.16881991
     atom    6 type  1   force =    -0.00000057    0.00000236   -0.16881841
     atom    7 type  2   force =     0.00000070    0.00000861   -0.14722492
     atom    8 type  2   force =     0.00000058   -0.00000816   -0.14722603
     atom    9 type  1   force =    -0.00000059   -0.00000298   -0.16881915
     atom   10 type  1   force =     0.00000086    0.00000509   -0.16881803
     atom   11 type  2   force =     0.00000032    0.00000804   -0.14722500
     atom   12 type  2   force =    -0.00000132   -0.00000891   -0.14722574
     atom   13 type  1   force =    -0.00000023   -0.00000294   -0.16881973
     atom   14 type  1   force =     0.00000043    0.00000506   -0.16881903
     atom   15 type  2   force =     0.00000087    0.00000718   -0.14722497
     atom   16 type  2   force =    -0.00000001   -0.00000847   -0.14722607
     atom   17 type  1   force =     0.00000063   -0.00000625   -0.16881938
     atom   18 type  1   force =     0.00000092    0.00000143   -0.16881853
     atom   19 type  2   force =    -0.00000046    0.00000974   -0.14722523
     atom   20 type  2   force =    -0.00000084   -0.00000690   -0.14722571
     atom   21 type  1   force =     0.00000059   -0.00000283   -0.16881937
     atom   22 type  1   force =    -0.00000113    0.00000546   -0.16881846
     atom   23 type  2   force =     0.00000011    0.00000732   -0.14722472
     atom   24 type  2   force =     0.00000119   -0.00000899   -0.14722555
     The ionic contribution  to forces
     atom    1 type  1   force =    -0.00000000    0.00000000   -1.08201231
     atom    2 type  1   force =     0.00000000    0.00000001   -1.08201231
     atom    3 type  2   force =    -0.00000000    0.00000000    1.08201231
     atom    4 type  2   force =     0.00000000    0.00000000    1.08201231
     atom    5 type  1   force =    -0.00000001    0.00000001   -1.08201231
     atom    6 type  1   force =     0.00000000   -0.00000001   -1.08201231
     atom    7 type  2   force =    -0.00000001    0.00000000    1.08201231
     atom    8 type  2   force =     0.00000000   -0.00000000    1.08201231
     atom    9 type  1   force =    -0.00000002   -0.00000001   -1.08201231
     atom   10 type  1   force =     0.00000001   -0.00000001   -1.08201231
     atom   11 type  2   force =    -0.00000001   -0.00000000    1.08201231
     atom   12 type  2   force =     0.00000000   -0.00000001    1.08201231
     atom   13 type  1   force =    -0.00000000    0.00000001   -1.08201231
     atom   14 type  1   force =    -0.00000000    0.00000001   -1.08201231
     atom   15 type  2   force =    -0.00000000    0.00000001    1.08201231
     atom   16 type  2   force =     0.00000000    0.00000000    1.08201231
     atom   17 type  1   force =    -0.00000001    0.00000001   -1.08201231
     atom   18 type  1   force =     0.00000001   -0.00000001   -1.08201231
     atom   19 type  2   force =    -0.00000001    0.00000000    1.08201231
     atom   20 type  2   force =     0.00000001   -0.00000000    1.08201231
     atom   21 type  1   force =     0.00000001   -0.00000001   -1.08201231
     atom   22 type  1   force =     0.00000001   -0.00000000   -1.08201231
     atom   23 type  2   force =     0.00000000   -0.00000000    1.08201231
     atom   24 type  2   force =     0.00000000   -0.00000000    1.08201231
     The local contribution  to forces
     atom    1 type  1   force =    -0.00000034    0.00000186    1.23411485
     atom    2 type  1   force =     0.00000168   -0.00000434    1.23410900
     atom    3 type  2   force =     0.00000010   -0.00001023   -0.93014447
     atom    4 type  2   force =     0.00000196    0.00000763   -0.93014154
     atom    5 type  1   force =     0.00000116    0.00000863    1.23411462
     atom    6 type  1   force =     0.00000258    0.00000091    1.23410993
     atom    7 type  2   force =     0.00000022   -0.00000507   -0.93014425
     atom    8 type  2   force =     0.00000008    0.00001228   -0.93014305
     atom    9 type  1   force =     0.00000080    0.00000128    1.23411283
     atom   10 type  1   force =    -0.00000225   -0.00000637    1.23410793
     atom   11 type  2   force =    -0.00000026   -0.00000920   -0.93014470
     atom   12 type  2   force =     0.00000160    0.00000545   -0.93014321
     atom   13 type  1   force =     0.00000009    0.00000046    1.23411345
     atom   14 type  1   force =    -0.00000147   -0.00000669    1.23411051
     atom   15 type  2   force =     0.00000038   -0.00000990   -0.93014371
     atom   16 type  2   force =    -0.00000102    0.00000845   -0.93014246
     atom   17 type  1   force =    -0.00000131    0.00000902    1.23411186
     atom   18 type  1   force =    -0.00000257    0.00000322    1.23411004
     atom   19 type  2   force =    -0.00000030   -0.00000686   -0.93014375
     atom   20 type  2   force =     0.00000055    0.00001032   -0.93014307
     atom   21 type  1   force =    -0.00000130    0.00000096    1.23411415
     atom   22 type  1   force =     0.00000274   -0.00000782    1.23410978
     atom   23 type  2   force =    -0.00000058   -0.00000837   -0.93014457
     atom   24 type  2   force =    -0.00000081    0.00000522   -0.93014336
     The core correction contribution to forces
     atom    1 type  1   force =     0.00000003    0.00000043    0.01084011
     atom    2 type  1   force =    -0.00000009   -0.00000053    0.01084024
     atom    3 type  2   force =     0.00000002   -0.00000009    0.00123637
     atom    4 type  2   force =    -0.00000000    0.00000005    0.00123639
     atom    5 type  1   force =     0.00000012    0.00000021    0.01084010
     atom    6 type  1   force =    -0.00000022   -0.00000025    0.01084019
     atom    7 type  2   force =    -0.00000001   -0.00000011    0.00123636
     atom    8 type  2   force =    -0.00000000    0.00000012    0.00123638
     atom    9 type  1   force =     0.00000003    0.00000047    0.01084012
     atom   10 type  1   force =     0.00000002   -0.00000040    0.01084025
     atom   11 type  2   force =     0.00000001   -0.00000006    0.00123637
     atom   12 type  2   force =     0.00000001    0.00000010    0.00123638
     atom   13 type  1   force =    -0.00000001    0.00000047    0.01084017
     atom   14 type  1   force =    -0.00000002   -0.00000047    0.01084024
     atom   15 type  2   force =     0.00000000   -0.00000008    0.00123637
     atom   16 type  2   force =    -0.00000001    0.00000007    0.00123639
     atom   17 type  1   force =     0.00000019    0.00000021    0.01084017
     atom   18 type  1   force =    -0.00000010   -0.00000028    0.01084017
     atom   19 type  2   force =    -0.00000000   -0.00000013    0.00123637
     atom   20 type  2   force =     0.00000002    0.00000010    0.00123637
     atom   21 type  1   force =     0.00000007    0.00000053    0.01084008
     atom   22 type  1   force =    -0.00000004   -0.00000036    0.01084022
     atom   23 type  2   force =     0.00000001   -0.00000006    0.00123637
     atom   24 type  2   force =    -0.00000003    0.00000010    0.00123638
     The Hubbard contrib.    to forces
     atom    1 type  1   force =     0.00000000    0.00000000    0.00000000
     atom    2 type  1   force =     0.00000000    0.00000000    0.00000000
     atom    3 type  2   force =     0.00000000    0.00000000    0.00000000
     atom    4 type  2   force =     0.00000000    0.00000000    0.00000000
     atom    5 type  1   force =     0.00000000    0.00000000    0.00000000
     atom    6 type  1   force =     0.00000000    0.00000000    0.00000000
     atom    7 type  2   force =     0.00000000    0.00000000    0.00000000
     atom    8 type  2   force =     0.00000000    0.00000000    0.00000000
     atom    9 type  1   force =     0.00000000    0.00000000    0.00000000
     atom   10 type  1   force =     0.00000000    0.00000000    0.00000000
     atom   11 type  2   force =     0.00000000    0.00000000    0.00000000
     atom   12 type  2   force =     0.00000000    0.00000000    0.00000000
     atom   13 type  1   force =     0.00000000    0.00000000    0.00000000
     atom   14 type  1   force =     0.00000000    0.00000000    0.00000000
     atom   15 type  2   force =     0.00000000    0.00000000    0.00000000
     atom   16 type  2   force =     0.00000000    0.00000000    0.00000000
     atom   17 type  1   force =     0.00000000    0.00000000    0.00000000
     atom   18 type  1   force =     0.00000000    0.00000000    0.00000000
     atom   19 type  2   force =     0.00000000    0.00000000    0.00000000
     atom   20 type  2   force =     0.00000000    0.00000000    0.00000000
     atom   21 type  1   force =     0.00000000    0.00000000    0.00000000
     atom   22 type  1   force =     0.00000000    0.00000000    0.00000000
     atom   23 type  2   force =     0.00000000    0.00000000    0.00000000
     atom   24 type  2   force =     0.00000000    0.00000000    0.00000000
     The SCF correction term to forces
     atom    1 type  1   force =    -0.00000124    0.00000417   -0.00000235
     atom    2 type  1   force =    -0.00000234    0.00000099    0.00000707
     atom    3 type  2   force =     0.00000051    0.00000302   -0.00000004
     atom    4 type  2   force =    -0.00000194   -0.00000041   -0.00000217
     atom    5 type  1   force =     0.00000011   -0.00000695   -0.00000197
     atom    6 type  1   force =    -0.00000338   -0.00000749    0.00000393
     atom    7 type  2   force =    -0.00000081   -0.00000355   -0.00000018
     atom    8 type  2   force =    -0.00000054   -0.00000470   -0.00000062
     atom    9 type  1   force =     0.00000071    0.00000364    0.00000074
     atom   10 type  1   force =     0.00000178    0.00000318    0.00000751
     atom   11 type  2   force =     0.00000011    0.00000137    0.00000027
     atom   12 type  2   force =    -0.00000069    0.00000340   -0.00000066
     atom   13 type  1   force =     0.00000160    0.00000450   -0.00000043
     atom   14 type  1   force =     0.00000172    0.00000446    0.00000382
     atom   15 type  2   force =    -0.00000102    0.00000294   -0.00000085
     atom   16 type  2   force =     0.00000112   -0.00000018   -0.00000126
     atom   17 type  1   force =     0.00000020   -0.00000611    0.00000274
     atom   18 type  1   force =     0.00000272   -0.00001057    0.00000508
     atom   19 type  2   force =     0.00000080   -0.00000261   -0.00000057
     atom   20 type  2   force =     0.00000010   -0.00000362   -0.00000072
     atom   21 type  1   force =     0.00000112    0.00000241   -0.00000146
     atom   22 type  1   force =    -0.00000333    0.00000478    0.00000493
     atom   23 type  2   force =     0.00000056    0.00000117    0.00000002
     atom   24 type  2   force =    -0.00000005    0.00000364   -0.00000054

     Total force =     0.028797     Total SCF correction =     0.000027

     init_run     :     41.46s CPU     24.56s WALL (       1 calls)
     electrons    :   4186.88s CPU   2466.17s WALL (       1 calls)
     forces       :     16.89s CPU      9.71s WALL (       1 calls)

     Called by init_run:
     wfcinit      :     32.59s CPU     18.01s WALL (       1 calls)
     wfcinit:atom :      0.19s CPU      0.14s WALL (      14 calls)
     wfcinit:wfcr :     30.93s CPU     16.61s WALL (      14 calls)
     potinit      :      3.15s CPU      2.06s WALL (       1 calls)
     hinit0       :      5.36s CPU      4.19s WALL (       1 calls)

     Called by electrons:
     c_bands      :   3792.71s CPU   2228.28s WALL (      34 calls)
     sum_band     :    362.91s CPU    215.32s WALL (      34 calls)
     v_of_rho     :     16.35s CPU     12.04s WALL (      35 calls)
     v_h          :      0.93s CPU      0.73s WALL (      35 calls)
     v_xc         :     15.73s CPU     11.53s WALL (      36 calls)
     newd         :     11.61s CPU      7.72s WALL (      35 calls)
     mix_rho      :      1.82s CPU      1.43s WALL (      34 calls)

     Called by c_bands:
     init_us_2    :     18.05s CPU     12.14s WALL (     980 calls)
     init_us_2:cp :     18.03s CPU     12.13s WALL (     980 calls)
     cegterg      :   3563.62s CPU   2052.40s WALL (     476 calls)

     Called by sum_band:
     sum_band:wei :      0.05s CPU      0.04s WALL (      34 calls)
     sum_band:loo :    343.38s CPU    200.41s WALL (      34 calls)
     sum_band:buf :      2.21s CPU      1.57s WALL (     476 calls)
     sum_band:ini :      6.87s CPU      5.18s WALL (     476 calls)
     sum_band:cal :     69.93s CPU     36.41s WALL (     476 calls)
     sum_band:bec :      6.89s CPU      5.80s WALL (     476 calls)
     addusdens    :     13.24s CPU      9.34s WALL (      34 calls)
     addusd:skk   :      0.19s CPU      0.12s WALL (      68 calls)
     addusd:dgemm :      2.13s CPU      1.11s WALL (      68 calls)
     addusd:qvan2 :      7.61s CPU      5.24s WALL (      68 calls)

     Called by *egterg:
     cdiaghg      :    187.31s CPU    152.95s WALL (    3611 calls)
     cegterg:over :    283.98s CPU    151.76s WALL (    3135 calls)
     cegterg:upda :    180.19s CPU    103.26s WALL (    3135 calls)
     cegterg:last :    367.50s CPU    201.09s WALL (    1627 calls)
     cdiaghg:chol :      8.80s CPU      7.51s WALL (    3611 calls)
     cdiaghg:inve :      2.98s CPU      2.44s WALL (    3611 calls)
     cdiaghg:para :     31.75s CPU     23.08s WALL (    7222 calls)
     h_psi        :   2242.39s CPU   1277.42s WALL (    3625 calls)
     s_psi        :    233.15s CPU    117.67s WALL (    3625 calls)
     g_psi        :     12.94s CPU     10.64s WALL (    3135 calls)

     Called by h_psi:
     h_psi:calbec :    274.52s CPU    142.35s WALL (    3625 calls)
     vloc_psi     :   1721.57s CPU   1006.61s WALL (    3625 calls)
     add_vuspsi   :    233.93s CPU    119.01s WALL (    3625 calls)

     General routines
     calbec       :    352.81s CPU    183.22s WALL (    4157 calls)
     fft          :     12.16s CPU     10.29s WALL (     464 calls)
     ffts         :      1.42s CPU      1.26s WALL (      69 calls)
     fftw         :   1706.51s CPU    987.58s WALL (  416770 calls)
     interpolate  :      1.35s CPU      1.14s WALL (      35 calls)

     Parallel routines

     PWSCF        :      1h10m CPU  41m41.49s WALL


   This run was terminated on:  21:16:50   9Sep2025            

=------------------------------------------------------------------------------=
   JOB DONE.
=------------------------------------------------------------------------------=
Note: The following floating-point exceptions are signalling: IEEE_UNDERFLOW_FLAG IEEE_DENORMAL
Note: The following floating-point exceptions are signalling: IEEE_UNDERFLOW_FLAG IEEE_DENORMAL
Note: The following floating-point exceptions are signalling: IEEE_UNDERFLOW_FLAG IEEE_DENORMAL
Note: The following floating-point exceptions are signalling: IEEE_UNDERFLOW_FLAG IEEE_DENORMAL
Note: The following floating-point exceptions are signalling: IEEE_UNDERFLOW_FLAG IEEE_DENORMAL
Note: The following floating-point exceptions are signalling: IEEE_UNDERFLOW_FLAG IEEE_DENORMAL
Note: The following floating-point exceptions are signalling: IEEE_UNDERFLOW_FLAG IEEE_DENORMAL
Note: The following floating-point exceptions are signalling: IEEE_UNDERFLOW_FLAG IEEE_DENORMAL
Note: The following floating-point exceptions are signalling: IEEE_UNDERFLOW_FLAG IEEE_DENORMAL
Note: The following floating-point exceptions are signalling: IEEE_UNDERFLOW_FLAG IEEE_DENORMAL
Note: The following floating-point exceptions are signalling: IEEE_UNDERFLOW_FLAG IEEE_DENORMAL
Note: The following floating-point exceptions are signalling: IEEE_UNDERFLOW_FLAG IEEE_DENORMAL
Note: The following floating-point exceptions are signalling: IEEE_UNDERFLOW_FLAG IEEE_DENORMAL
Note: The following floating-point exceptions are signalling: IEEE_UNDERFLOW_FLAG IEEE_DENORMAL
Note: The following floating-point exceptions are signalling: IEEE_UNDERFLOW_FLAG IEEE_DENORMAL
Note: The following floating-point exceptions are signalling: IEEE_UNDERFLOW_FLAG IEEE_DENORMAL
Note: The following floating-point exceptions are signalling: IEEE_UNDERFLOW_FLAG IEEE_DENORMAL
Note: The following floating-point exceptions are signalling: IEEE_UNDERFLOW_FLAG IEEE_DENORMAL
Note: The following floating-point exceptions are signalling: IEEE_UNDERFLOW_FLAG IEEE_DENORMAL
Note: The following floating-point exceptions are signalling: IEEE_UNDERFLOW_FLAG IEEE_DENORMAL
Note: The following floating-point exceptions are signalling: IEEE_UNDERFLOW_FLAG IEEE_DENORMAL
Note: The following floating-point exceptions are signalling: IEEE_UNDERFLOW_FLAG IEEE_DENORMAL
Note: The following floating-point exceptions are signalling: IEEE_UNDERFLOW_FLAG IEEE_DENORMAL
Note: The following floating-point exceptions are signalling: IEEE_UNDERFLOW_FLAG IEEE_DENORMAL
Note: The following floating-point exceptions are signalling: IEEE_UNDERFLOW_FLAG IEEE_DENORMAL
Note: The following floating-point exceptions are signalling: IEEE_UNDERFLOW_FLAG IEEE_DENORMAL
Note: The following floating-point exceptions are signalling: IEEE_UNDERFLOW_FLAG IEEE_DENORMAL
Note: The following floating-point exceptions are signalling: IEEE_UNDERFLOW_FLAG IEEE_DENORMAL
Note: The following floating-point exceptions are signalling: IEEE_UNDERFLOW_FLAG IEEE_DENORMAL
Note: The following floating-point exceptions are signalling: IEEE_UNDERFLOW_FLAG IEEE_DENORMAL
Note: The following floating-point exceptions are signalling: IEEE_UNDERFLOW_FLAG IEEE_DENORMAL
Note: The following floating-point exceptions are signalling: IEEE_UNDERFLOW_FLAG IEEE_DENORMAL
