
     Program PWSCF v.7.0 starts on 27Aug2025 at 23:12: 5 

     This program is part of the open-source Quantum ESPRESSO suite
     for quantum simulation of materials; please cite
         "P. Giannozzi et al., J. Phys.:Condens. Matter 21 395502 (2009);
         "P. Giannozzi et al., J. Phys.:Condens. Matter 29 465901 (2017);
         "P. Giannozzi et al., J. Chem. Phys. 152 154105 (2020);
          URL http://www.quantum-espresso.org", 
     in publications or presentations arising from this work. More details at
     http://www.quantum-espresso.org/quote

     Parallel version (MPI & OpenMP), running on      17 processor cores
     Number of MPI processes:                17
     Threads/MPI process:                     1

     MPI processes distributed on     1 nodes
     K-points division:     npool     =      17
     106977 MiB available memory on the printing compute node when the environment starts

     Reading input from /home/jvc/QEspresso7.2/ZnO_database/scripts/cell311.in/ZnO-3.40-1.49-311.in
Warning: card &CELL ignored
Warning: card / ignored
Warning: card &FCP ignored
Warning: card / ignored
Warning: card &RISM ignored
Warning: card / ignored

     Current dimensions of program PWSCF are:
     Max number of different atomic species (ntypx) = 10
     Max number of k-points (npk) =  40000
     Max angular momentum in pseudopotentials (lmaxx) =  4
     file Zn.upf: wavefunction(s)  3D renormalized
     Found identity + (  0.3333  0.0000  0.0000) symmetry
     This is a supercell, fractional translations are disabled
     Message from routine setup:
     using ibrav=0 with symmetry is DISCOURAGED, use correct ibrav instead

     Subspace diagonalization in iterative solution of the eigenvalue problem:
     a serial algorithm will be used


     G-vector sticks info
     --------------------
     sticks:   dense  smooth     PW     G-vecs:    dense   smooth      PW
     Sum        3431    1709    503               138455    48907    7973

     Using Slab Decomposition



     bravais-lattice index     =            0
     lattice parameter (alat)  =      19.2780  a.u.
     unit-cell volume          =    1023.9140 (a.u.)^3
     number of atoms/cell      =           12
     number of atomic types    =            2
     number of electrons       =       108.00
     number of Kohn-Sham states=           54
     kinetic-energy cutoff     =      50.0000  Ry
     charge density cutoff     =     400.0000  Ry
     scf convergence threshold =      1.0E-08
     mixing beta               =       0.3000
     number of iterations used =            8  plain     mixing
     Exchange-correlation= PBE
                           (   1   4   3   4   0   0   0)

     celldm(1)=  19.278024  celldm(2)=   0.000000  celldm(3)=   0.000000
     celldm(4)=   0.000000  celldm(5)=   0.000000  celldm(6)=   0.000000

     crystal axes: (cart. coord. in units of alat)
               a(1) = (   1.000000   0.000000   0.000000 )  
               a(2) = (  -0.166667   0.288675   0.000000 )  
               a(3) = (   0.000000   0.000000   0.495070 )  

     reciprocal axes: (cart. coord. in units 2 pi/alat)
               b(1) = (  1.000000  0.577350 -0.000000 )  
               b(2) = (  0.000000  3.464102  0.000000 )  
               b(3) = (  0.000000 -0.000000  2.019917 )  


     PseudoPot. # 1 for Zn read from file:
     /home/jvc/QEspresso7.2/ZnO_database/pseudos/Zn.upf
     MD5 check sum: 7f56cabf9682ed8c977c2f7d0c5985c5
     Pseudo is Ultrasoft + core correction, Zval = 12.0
     Generated using &quot;atomic&quot; code by A. Dal Corso  v.6.2.2
     Using radial grid of 1201 points,  6 beta functions with: 
                l(1) =   0
                l(2) =   0
                l(3) =   1
                l(4) =   1
                l(5) =   2
                l(6) =   2
     Q(r) pseudized with 0 coefficients 


     PseudoPot. # 2 for O  read from file:
     /home/jvc/QEspresso7.2/ZnO_database/pseudos/O.upf
     MD5 check sum: 91400c9766925bcf19f520983a725ff0
     Pseudo is Ultrasoft + core correction, Zval =  6.0
     Generated using &quot;atomic&quot; code by A. Dal Corso  v.6.3MaX
     Using radial grid of 1095 points,  4 beta functions with: 
                l(1) =   0
                l(2) =   0
                l(3) =   1
                l(4) =   1
     Q(r) pseudized with 0 coefficients 


     atomic species   valence    mass     pseudopotential
        Zn            12.00    65.38000     Zn( 1.00)
        O              6.00    15.99900     O ( 1.00)

      2 Sym. Ops. (no inversion) found


                                    s                        frac. trans.

      isym =  1     identity                                     

 cryst.   s( 1) = (     1          0          0      )
                  (     0          1          0      )
                  (     0          0          1      )

 cart.    s( 1) = (  1.0000000  0.0000000  0.0000000 )
                  (  0.0000000  1.0000000  0.0000000 )
                  (  0.0000000  0.0000000  1.0000000 )


      isym =  2     inv. 180 deg rotation - cryst. axis [0,1,0]  

 cryst.   s( 2) = (     1          3          0      )
                  (     0         -1          0      )
                  (     0          0          1      )

 cart.    s( 2) = (  0.5000000  0.8660254  0.0000000 )
                  (  0.8660254 -0.5000000  0.0000000 )
                  (  0.0000000  0.0000000  1.0000000 )


   Cartesian axes

     site n.     atom                  positions (alat units)
         1           Zn  tau(   1) = (   0.1666667   0.0962250   0.2478486  )
         2           Zn  tau(   2) = (  -0.0000000   0.1924501   0.0003137  )
         3           O   tau(   3) = (   0.1666667   0.0962250   0.4355013  )
         4           O   tau(   4) = (  -0.0000000   0.1924501   0.1879664  )
         5           Zn  tau(   5) = (   0.5000000   0.0962250   0.2478486  )
         6           Zn  tau(   6) = (   0.3333333   0.1924501   0.0003137  )
         7           O   tau(   7) = (   0.5000000   0.0962250   0.4355013  )
         8           O   tau(   8) = (   0.3333333   0.1924501   0.1879664  )
         9           Zn  tau(   9) = (   0.8333333   0.0962250   0.2478486  )
        10           Zn  tau(  10) = (   0.6666667   0.1924501   0.0003137  )
        11           O   tau(  11) = (   0.8333333   0.0962250   0.4355013  )
        12           O   tau(  12) = (   0.6666667   0.1924501   0.1879664  )

   Crystallographic axes

     site n.     atom                  positions (cryst. coord.)
         1           Zn  tau(   1) = (  0.2222222  0.3333333  0.5006336  )
         2           Zn  tau(   2) = (  0.1111111  0.6666667  0.0006336  )
         3           O   tau(   3) = (  0.2222222  0.3333333  0.8796764  )
         4           O   tau(   4) = (  0.1111111  0.6666667  0.3796764  )
         5           Zn  tau(   5) = (  0.5555556  0.3333333  0.5006336  )
         6           Zn  tau(   6) = (  0.4444444  0.6666667  0.0006336  )
         7           O   tau(   7) = (  0.5555556  0.3333333  0.8796764  )
         8           O   tau(   8) = (  0.4444444  0.6666667  0.3796764  )
         9           Zn  tau(   9) = (  0.8888889  0.3333333  0.5006336  )
        10           Zn  tau(  10) = (  0.7777778  0.6666667  0.0006336  )
        11           O   tau(  11) = (  0.8888889  0.3333333  0.8796764  )
        12           O   tau(  12) = (  0.7777778  0.6666667  0.3796764  )

     number of k points=    68
                       cart. coord. in units 2pi/alat
        k(    1) = (   0.0000000   0.0000000   0.0000000), wk =   0.0092593
        k(    2) = (   0.0000000   0.0000000   0.3366528), wk =   0.0185185
        k(    3) = (   0.0000000   0.0000000   0.6733056), wk =   0.0185185
        k(    4) = (   0.0000000   0.0000000  -1.0099584), wk =   0.0092593
        k(    5) = (   0.0000000   0.5773503   0.0000000), wk =   0.0370370
        k(    6) = (   0.0000000   0.5773503   0.3366528), wk =   0.0370370
        k(    7) = (   0.0000000   0.5773503   0.6733056), wk =   0.0370370
        k(    8) = (   0.0000000   0.5773503  -1.0099584), wk =   0.0370370
        k(    9) = (   0.0000000   1.1547005   0.0000000), wk =   0.0185185
        k(   10) = (   0.0000000   1.1547005   0.3366528), wk =   0.0370370
        k(   11) = (   0.0000000   1.1547005   0.6733056), wk =   0.0370370
        k(   12) = (   0.0000000   1.1547005  -1.0099584), wk =   0.0185185
        k(   13) = (   0.0000000  -1.7320508   0.0000000), wk =   0.0185185
        k(   14) = (   0.0000000  -1.7320508   0.3366528), wk =   0.0370370
        k(   15) = (   0.0000000  -1.7320508   0.6733056), wk =   0.0370370
        k(   16) = (   0.0000000  -1.7320508  -1.0099584), wk =   0.0185185
        k(   17) = (   0.1666667   0.0962250   0.0000000), wk =   0.0185185
        k(   18) = (   0.1666667   0.0962250   0.3366528), wk =   0.0185185
        k(   19) = (   0.1666667   0.0962250   0.6733056), wk =   0.0185185
        k(   20) = (   0.1666667   0.0962250  -1.0099584), wk =   0.0185185
        k(   21) = (   0.1666667   0.6735753   0.0000000), wk =   0.0370370
        k(   22) = (   0.1666667   0.6735753   0.3366528), wk =   0.0370370
        k(   23) = (   0.1666667   0.6735753   0.6733056), wk =   0.0370370
        k(   24) = (   0.1666667   0.6735753  -1.0099584), wk =   0.0370370
        k(   25) = (   0.1666667   1.2509256   0.0000000), wk =   0.0370370
        k(   26) = (   0.1666667   1.2509256   0.3366528), wk =   0.0370370
        k(   27) = (   0.1666667   1.2509256   0.6733056), wk =   0.0370370
        k(   28) = (   0.1666667   1.2509256  -1.0099584), wk =   0.0370370
        k(   29) = (   0.1666667  -1.6358258   0.0000000), wk =   0.0370370
        k(   30) = (   0.1666667  -1.6358258   0.3366528), wk =   0.0370370
        k(   31) = (   0.1666667  -1.6358258   0.6733056), wk =   0.0370370
        k(   32) = (   0.1666667  -1.6358258  -1.0099584), wk =   0.0370370
        k(   33) = (   0.1666667  -0.4811252   0.0000000), wk =   0.0370370
        k(   34) = (   0.1666667  -0.4811252   0.3366528), wk =   0.0370370
        k(   35) = (   0.1666667  -0.4811252   0.6733056), wk =   0.0370370
        k(   36) = (   0.1666667  -0.4811252  -1.0099584), wk =   0.0370370
        k(   37) = (   0.3333333   0.1924501   0.0000000), wk =   0.0185185
        k(   38) = (   0.3333333   0.1924501   0.3366528), wk =   0.0185185
        k(   39) = (   0.3333333   0.1924501   0.6733056), wk =   0.0185185
        k(   40) = (   0.3333333   0.1924501  -1.0099584), wk =   0.0185185
        k(   41) = (   0.3333333   1.3471506   0.0000000), wk =   0.0370370
        k(   42) = (   0.3333333   1.3471506   0.3366528), wk =   0.0370370
        k(   43) = (   0.3333333   1.3471506   0.6733056), wk =   0.0370370
        k(   44) = (   0.3333333   1.3471506  -1.0099584), wk =   0.0370370
        k(   45) = (  -0.5000000  -0.2886751   0.0000000), wk =   0.0092593
        k(   46) = (  -0.5000000  -0.2886751   0.3366528), wk =   0.0185185
        k(   47) = (  -0.5000000  -0.2886751   0.6733056), wk =   0.0185185
        k(   48) = (  -0.5000000  -0.2886751  -1.0099584), wk =   0.0092593
        k(   49) = (  -0.5000000   0.8660254   0.0000000), wk =   0.0185185
        k(   50) = (  -0.5000000   0.8660254   0.3366528), wk =   0.0370370
        k(   51) = (  -0.5000000   0.8660254   0.6733056), wk =   0.0370370
        k(   52) = (  -0.5000000   0.8660254  -1.0099584), wk =   0.0185185
        k(   53) = (   0.5000000  -0.2886751  -0.3366528), wk =   0.0370370
        k(   54) = (   0.5000000  -0.2886751  -0.6733056), wk =   0.0370370
        k(   55) = (   0.1666667   0.0962250  -0.3366528), wk =   0.0185185
        k(   56) = (   0.1666667   0.0962250  -0.6733056), wk =   0.0185185
        k(   57) = (   0.6666667  -0.1924501  -0.3366528), wk =   0.0370370
        k(   58) = (   0.6666667  -0.1924501  -0.6733056), wk =   0.0370370
        k(   59) = (   1.1666667  -0.4811252  -0.3366528), wk =   0.0370370
        k(   60) = (   1.1666667  -0.4811252  -0.6733056), wk =   0.0370370
        k(   61) = (  -1.3333333   0.9622504  -0.3366528), wk =   0.0370370
        k(   62) = (  -1.3333333   0.9622504  -0.6733056), wk =   0.0370370
        k(   63) = (  -0.3333333   0.3849002  -0.3366528), wk =   0.0370370
        k(   64) = (  -0.3333333   0.3849002  -0.6733056), wk =   0.0370370
        k(   65) = (   0.3333333   0.1924501  -0.3366528), wk =   0.0185185
        k(   66) = (   0.3333333   0.1924501  -0.6733056), wk =   0.0185185
        k(   67) = (   1.3333333  -0.3849002  -0.3366528), wk =   0.0370370
        k(   68) = (   1.3333333  -0.3849002  -0.6733056), wk =   0.0370370

                       cryst. coord.
        k(    1) = (   0.0000000   0.0000000   0.0000000), wk =   0.0092593
        k(    2) = (   0.0000000   0.0000000   0.1666667), wk =   0.0185185
        k(    3) = (   0.0000000   0.0000000   0.3333333), wk =   0.0185185
        k(    4) = (   0.0000000   0.0000000  -0.5000000), wk =   0.0092593
        k(    5) = (   0.0000000   0.1666667   0.0000000), wk =   0.0370370
        k(    6) = (   0.0000000   0.1666667   0.1666667), wk =   0.0370370
        k(    7) = (   0.0000000   0.1666667   0.3333333), wk =   0.0370370
        k(    8) = (   0.0000000   0.1666667  -0.5000000), wk =   0.0370370
        k(    9) = (   0.0000000   0.3333333   0.0000000), wk =   0.0185185
        k(   10) = (   0.0000000   0.3333333   0.1666667), wk =   0.0370370
        k(   11) = (   0.0000000   0.3333333   0.3333333), wk =   0.0370370
        k(   12) = (   0.0000000   0.3333333  -0.5000000), wk =   0.0185185
        k(   13) = (   0.0000000  -0.5000000   0.0000000), wk =   0.0185185
        k(   14) = (   0.0000000  -0.5000000   0.1666667), wk =   0.0370370
        k(   15) = (   0.0000000  -0.5000000   0.3333333), wk =   0.0370370
        k(   16) = (   0.0000000  -0.5000000  -0.5000000), wk =   0.0185185
        k(   17) = (   0.1666667  -0.0000000   0.0000000), wk =   0.0185185
        k(   18) = (   0.1666667  -0.0000000   0.1666667), wk =   0.0185185
        k(   19) = (   0.1666667  -0.0000000   0.3333333), wk =   0.0185185
        k(   20) = (   0.1666667  -0.0000000  -0.5000000), wk =   0.0185185
        k(   21) = (   0.1666667   0.1666667   0.0000000), wk =   0.0370370
        k(   22) = (   0.1666667   0.1666667   0.1666667), wk =   0.0370370
        k(   23) = (   0.1666667   0.1666667   0.3333333), wk =   0.0370370
        k(   24) = (   0.1666667   0.1666667  -0.5000000), wk =   0.0370370
        k(   25) = (   0.1666667   0.3333333   0.0000000), wk =   0.0370370
        k(   26) = (   0.1666667   0.3333333   0.1666667), wk =   0.0370370
        k(   27) = (   0.1666667   0.3333333   0.3333333), wk =   0.0370370
        k(   28) = (   0.1666667   0.3333333  -0.5000000), wk =   0.0370370
        k(   29) = (   0.1666667  -0.5000000   0.0000000), wk =   0.0370370
        k(   30) = (   0.1666667  -0.5000000   0.1666667), wk =   0.0370370
        k(   31) = (   0.1666667  -0.5000000   0.3333333), wk =   0.0370370
        k(   32) = (   0.1666667  -0.5000000  -0.5000000), wk =   0.0370370
        k(   33) = (   0.1666667  -0.1666667   0.0000000), wk =   0.0370370
        k(   34) = (   0.1666667  -0.1666667   0.1666667), wk =   0.0370370
        k(   35) = (   0.1666667  -0.1666667   0.3333333), wk =   0.0370370
        k(   36) = (   0.1666667  -0.1666667  -0.5000000), wk =   0.0370370
        k(   37) = (   0.3333333  -0.0000000   0.0000000), wk =   0.0185185
        k(   38) = (   0.3333333  -0.0000000   0.1666667), wk =   0.0185185
        k(   39) = (   0.3333333  -0.0000000   0.3333333), wk =   0.0185185
        k(   40) = (   0.3333333  -0.0000000  -0.5000000), wk =   0.0185185
        k(   41) = (   0.3333333   0.3333333   0.0000000), wk =   0.0370370
        k(   42) = (   0.3333333   0.3333333   0.1666667), wk =   0.0370370
        k(   43) = (   0.3333333   0.3333333   0.3333333), wk =   0.0370370
        k(   44) = (   0.3333333   0.3333333  -0.5000000), wk =   0.0370370
        k(   45) = (  -0.5000000   0.0000000   0.0000000), wk =   0.0092593
        k(   46) = (  -0.5000000   0.0000000   0.1666667), wk =   0.0185185
        k(   47) = (  -0.5000000   0.0000000   0.3333333), wk =   0.0185185
        k(   48) = (  -0.5000000   0.0000000  -0.5000000), wk =   0.0092593
        k(   49) = (  -0.5000000   0.3333333   0.0000000), wk =   0.0185185
        k(   50) = (  -0.5000000   0.3333333   0.1666667), wk =   0.0370370
        k(   51) = (  -0.5000000   0.3333333   0.3333333), wk =   0.0370370
        k(   52) = (  -0.5000000   0.3333333  -0.5000000), wk =   0.0185185
        k(   53) = (   0.5000000  -0.1666667  -0.1666667), wk =   0.0370370
        k(   54) = (   0.5000000  -0.1666667  -0.3333333), wk =   0.0370370
        k(   55) = (   0.1666667   0.0000000  -0.1666667), wk =   0.0185185
        k(   56) = (   0.1666667   0.0000000  -0.3333333), wk =   0.0185185
        k(   57) = (   0.6666667  -0.1666667  -0.1666667), wk =   0.0370370
        k(   58) = (   0.6666667  -0.1666667  -0.3333333), wk =   0.0370370
        k(   59) = (   1.1666667  -0.3333333  -0.1666667), wk =   0.0370370
        k(   60) = (   1.1666667  -0.3333333  -0.3333333), wk =   0.0370370
        k(   61) = (  -1.3333333   0.5000000  -0.1666667), wk =   0.0370370
        k(   62) = (  -1.3333333   0.5000000  -0.3333333), wk =   0.0370370
        k(   63) = (  -0.3333333   0.1666667  -0.1666667), wk =   0.0370370
        k(   64) = (  -0.3333333   0.1666667  -0.3333333), wk =   0.0370370
        k(   65) = (   0.3333333   0.0000000  -0.1666667), wk =   0.0185185
        k(   66) = (   0.3333333   0.0000000  -0.3333333), wk =   0.0185185
        k(   67) = (   1.3333333  -0.3333333  -0.1666667), wk =   0.0370370
        k(   68) = (   1.3333333  -0.3333333  -0.3333333), wk =   0.0370370

     Dense  grid:   138455 G-vectors     FFT dimensions: ( 125,  45,  64)

     Smooth grid:    48907 G-vectors     FFT dimensions: (  90,  30,  45)

     Dynamical RAM for                 wfc:       5.04 MB

     Dynamical RAM for     wfc (w. buffer):      25.18 MB

     Dynamical RAM for           str. fact:       4.23 MB

     Dynamical RAM for           local pot:       0.00 MB

     Dynamical RAM for          nlocal pot:      14.55 MB

     Dynamical RAM for                qrad:       3.21 MB

     Dynamical RAM for          rho,v,vnew:      14.58 MB

     Dynamical RAM for               rhoin:       4.86 MB

     Dynamical RAM for            rho*nmix:      33.80 MB

     Dynamical RAM for           G-vectors:       8.30 MB

     Dynamical RAM for          h,s,v(r/c):       0.53 MB

     Dynamical RAM for          <psi|beta>:       0.13 MB

     Dynamical RAM for                 psi:      10.07 MB

     Dynamical RAM for                hpsi:      10.07 MB

     Dynamical RAM for                spsi:      10.07 MB

     Dynamical RAM for      wfcinit/wfcrot:      14.69 MB

     Dynamical RAM for           addusdens:      25.85 MB

     Dynamical RAM for          addusforce:      26.18 MB

     Estimated static dynamical RAM per process >      94.98 MB

     Estimated max dynamical RAM per process >     159.66 MB

     Estimated total dynamical RAM >       2.12 GB

     Check: negative core charge=   -0.000002

     Initial potential from superposition of free atoms

     starting charge     107.9776, renormalised to     108.0000
     Starting wfcs are   78 randomized atomic wfcs

     total cpu time spent up to now is       12.5 secs

     per-process dynamical memory:   120.3 Mb

     Self-consistent Calculation

     iteration #  1     ecut=    50.00 Ry     beta= 0.30
     Davidson diagonalization with overlap

---- Real-time Memory Report at c_bands before calling an iterative solver
           141 MiB given to the printing process from OS
           117 MiB allocation reported by mallinfo(arena+hblkhd)
        105248 MiB available memory on the node where the printing process lives
------------------
     ethr =  1.00E-02,  avg # of iterations =  2.0

     total cpu time spent up to now is       22.4 secs

     total energy              =   -1084.38154686 Ry
     estimated scf accuracy    <       2.14645908 Ry

     iteration #  2     ecut=    50.00 Ry     beta= 0.30
     Davidson diagonalization with overlap

---- Real-time Memory Report at c_bands before calling an iterative solver
           190 MiB given to the printing process from OS
           166 MiB allocation reported by mallinfo(arena+hblkhd)
        104832 MiB available memory on the node where the printing process lives
------------------
     ethr =  1.99E-03,  avg # of iterations =  2.0

     total cpu time spent up to now is       34.7 secs

     total energy              =   -1084.69942517 Ry
     estimated scf accuracy    <       0.26387296 Ry

     iteration #  3     ecut=    50.00 Ry     beta= 0.30
     Davidson diagonalization with overlap

---- Real-time Memory Report at c_bands before calling an iterative solver
           192 MiB given to the printing process from OS
           167 MiB allocation reported by mallinfo(arena+hblkhd)
        104983 MiB available memory on the node where the printing process lives
------------------
     ethr =  2.44E-04,  avg # of iterations =  7.0

     total cpu time spent up to now is       55.3 secs

     total energy              =   -1084.78325791 Ry
     estimated scf accuracy    <       0.19884752 Ry

     iteration #  4     ecut=    50.00 Ry     beta= 0.30
     Davidson diagonalization with overlap

---- Real-time Memory Report at c_bands before calling an iterative solver
           194 MiB given to the printing process from OS
           169 MiB allocation reported by mallinfo(arena+hblkhd)
        105013 MiB available memory on the node where the printing process lives
------------------
     ethr =  1.84E-04,  avg # of iterations =  8.9

     total cpu time spent up to now is       80.5 secs

     total energy              =   -1084.90560698 Ry
     estimated scf accuracy    <       0.64313103 Ry

     iteration #  5     ecut=    50.00 Ry     beta= 0.30
     Davidson diagonalization with overlap

---- Real-time Memory Report at c_bands before calling an iterative solver
           195 MiB given to the printing process from OS
           170 MiB allocation reported by mallinfo(arena+hblkhd)
        105051 MiB available memory on the node where the printing process lives
------------------
     ethr =  1.84E-04,  avg # of iterations =  2.0

     total cpu time spent up to now is       90.6 secs

     total energy              =   -1084.61749516 Ry
     estimated scf accuracy    <       0.36163219 Ry

     iteration #  6     ecut=    50.00 Ry     beta= 0.30
     Davidson diagonalization with overlap

---- Real-time Memory Report at c_bands before calling an iterative solver
           197 MiB given to the printing process from OS
           172 MiB allocation reported by mallinfo(arena+hblkhd)
        104998 MiB available memory on the node where the printing process lives
------------------
     ethr =  1.84E-04,  avg # of iterations = 10.5

     total cpu time spent up to now is      117.8 secs

     total energy              =   -1084.72964354 Ry
     estimated scf accuracy    <       1.75617239 Ry

     iteration #  7     ecut=    50.00 Ry     beta= 0.30
     Davidson diagonalization with overlap

---- Real-time Memory Report at c_bands before calling an iterative solver
           198 MiB given to the printing process from OS
           173 MiB allocation reported by mallinfo(arena+hblkhd)
        105008 MiB available memory on the node where the printing process lives
------------------
     ethr =  1.84E-04,  avg # of iterations =  6.5

     total cpu time spent up to now is      136.4 secs

     total energy              =   -1084.88983319 Ry
     estimated scf accuracy    <       0.14220820 Ry

     iteration #  8     ecut=    50.00 Ry     beta= 0.30
     Davidson diagonalization with overlap

---- Real-time Memory Report at c_bands before calling an iterative solver
           200 MiB given to the printing process from OS
           175 MiB allocation reported by mallinfo(arena+hblkhd)
        105034 MiB available memory on the node where the printing process lives
------------------
     ethr =  1.32E-04,  avg # of iterations =  1.1

     total cpu time spent up to now is      145.8 secs

     total energy              =   -1084.88212746 Ry
     estimated scf accuracy    <       0.11215926 Ry

     iteration #  9     ecut=    50.00 Ry     beta= 0.30
     Davidson diagonalization with overlap

---- Real-time Memory Report at c_bands before calling an iterative solver
           201 MiB given to the printing process from OS
           176 MiB allocation reported by mallinfo(arena+hblkhd)
        105065 MiB available memory on the node where the printing process lives
------------------
     ethr =  1.04E-04,  avg # of iterations =  1.5

     total cpu time spent up to now is      155.4 secs

     total energy              =   -1084.85692926 Ry
     estimated scf accuracy    <       0.07800082 Ry

     iteration # 10     ecut=    50.00 Ry     beta= 0.30
     Davidson diagonalization with overlap

---- Real-time Memory Report at c_bands before calling an iterative solver
           203 MiB given to the printing process from OS
           178 MiB allocation reported by mallinfo(arena+hblkhd)
        105020 MiB available memory on the node where the printing process lives
------------------
     ethr =  7.22E-05,  avg # of iterations =  4.7

     total cpu time spent up to now is      168.2 secs

     total energy              =   -1084.86597617 Ry
     estimated scf accuracy    <       0.01205852 Ry

     iteration # 11     ecut=    50.00 Ry     beta= 0.30
     Davidson diagonalization with overlap

---- Real-time Memory Report at c_bands before calling an iterative solver
           203 MiB given to the printing process from OS
           178 MiB allocation reported by mallinfo(arena+hblkhd)
        105033 MiB available memory on the node where the printing process lives
------------------
     ethr =  1.12E-05,  avg # of iterations =  7.5

     total cpu time spent up to now is      189.1 secs

     total energy              =   -1084.87744377 Ry
     estimated scf accuracy    <       0.00249896 Ry

     iteration # 12     ecut=    50.00 Ry     beta= 0.30
     Davidson diagonalization with overlap

---- Real-time Memory Report at c_bands before calling an iterative solver
           203 MiB given to the printing process from OS
           178 MiB allocation reported by mallinfo(arena+hblkhd)
        105109 MiB available memory on the node where the printing process lives
------------------
     ethr =  2.31E-06,  avg # of iterations =  2.4

     total cpu time spent up to now is      200.2 secs

     total energy              =   -1084.87723146 Ry
     estimated scf accuracy    <       0.00198356 Ry

     iteration # 13     ecut=    50.00 Ry     beta= 0.30
     Davidson diagonalization with overlap

---- Real-time Memory Report at c_bands before calling an iterative solver
           203 MiB given to the printing process from OS
           178 MiB allocation reported by mallinfo(arena+hblkhd)
        105043 MiB available memory on the node where the printing process lives
------------------
     ethr =  1.84E-06,  avg # of iterations =  1.6

     total cpu time spent up to now is      209.8 secs

     total energy              =   -1084.87752897 Ry
     estimated scf accuracy    <       0.00114108 Ry

     iteration # 14     ecut=    50.00 Ry     beta= 0.30
     Davidson diagonalization with overlap

---- Real-time Memory Report at c_bands before calling an iterative solver
           203 MiB given to the printing process from OS
           178 MiB allocation reported by mallinfo(arena+hblkhd)
        104998 MiB available memory on the node where the printing process lives
------------------
     ethr =  1.06E-06,  avg # of iterations =  1.7

     total cpu time spent up to now is      219.6 secs

     total energy              =   -1084.87752424 Ry
     estimated scf accuracy    <       0.00159978 Ry

     iteration # 15     ecut=    50.00 Ry     beta= 0.30
     Davidson diagonalization with overlap

---- Real-time Memory Report at c_bands before calling an iterative solver
           203 MiB given to the printing process from OS
           178 MiB allocation reported by mallinfo(arena+hblkhd)
        105020 MiB available memory on the node where the printing process lives
------------------
     ethr =  1.06E-06,  avg # of iterations =  1.0

     total cpu time spent up to now is      228.7 secs

     total energy              =   -1084.87732354 Ry
     estimated scf accuracy    <       0.00155025 Ry

     iteration # 16     ecut=    50.00 Ry     beta= 0.30
     Davidson diagonalization with overlap

---- Real-time Memory Report at c_bands before calling an iterative solver
           203 MiB given to the printing process from OS
           178 MiB allocation reported by mallinfo(arena+hblkhd)
        105092 MiB available memory on the node where the printing process lives
------------------
     ethr =  1.06E-06,  avg # of iterations =  1.0

     total cpu time spent up to now is      238.2 secs

     total energy              =   -1084.87724089 Ry
     estimated scf accuracy    <       0.00107878 Ry

     iteration # 17     ecut=    50.00 Ry     beta= 0.30
     Davidson diagonalization with overlap

---- Real-time Memory Report at c_bands before calling an iterative solver
           203 MiB given to the printing process from OS
           178 MiB allocation reported by mallinfo(arena+hblkhd)
        104986 MiB available memory on the node where the printing process lives
------------------
     ethr =  9.99E-07,  avg # of iterations =  1.0

     total cpu time spent up to now is      247.2 secs

     total energy              =   -1084.87724526 Ry
     estimated scf accuracy    <       0.00073824 Ry

     iteration # 18     ecut=    50.00 Ry     beta= 0.30
     Davidson diagonalization with overlap

---- Real-time Memory Report at c_bands before calling an iterative solver
           203 MiB given to the printing process from OS
           178 MiB allocation reported by mallinfo(arena+hblkhd)
        104982 MiB available memory on the node where the printing process lives
------------------
     ethr =  6.84E-07,  avg # of iterations =  1.0

     total cpu time spent up to now is      256.3 secs

     total energy              =   -1084.87723441 Ry
     estimated scf accuracy    <       0.00066295 Ry

     iteration # 19     ecut=    50.00 Ry     beta= 0.30
     Davidson diagonalization with overlap

---- Real-time Memory Report at c_bands before calling an iterative solver
           203 MiB given to the printing process from OS
           178 MiB allocation reported by mallinfo(arena+hblkhd)
        104989 MiB available memory on the node where the printing process lives
------------------
     ethr =  6.14E-07,  avg # of iterations =  1.0

     total cpu time spent up to now is      265.5 secs

     total energy              =   -1084.87691694 Ry
     estimated scf accuracy    <       0.00056999 Ry

     iteration # 20     ecut=    50.00 Ry     beta= 0.30
     Davidson diagonalization with overlap

---- Real-time Memory Report at c_bands before calling an iterative solver
           203 MiB given to the printing process from OS
           178 MiB allocation reported by mallinfo(arena+hblkhd)
        105039 MiB available memory on the node where the printing process lives
------------------
     ethr =  5.28E-07,  avg # of iterations =  4.8

     total cpu time spent up to now is      280.6 secs

     total energy              =   -1084.87711269 Ry
     estimated scf accuracy    <       0.00006875 Ry

     iteration # 21     ecut=    50.00 Ry     beta= 0.30
     Davidson diagonalization with overlap

---- Real-time Memory Report at c_bands before calling an iterative solver
           203 MiB given to the printing process from OS
           178 MiB allocation reported by mallinfo(arena+hblkhd)
        105095 MiB available memory on the node where the printing process lives
------------------
     ethr =  6.37E-08,  avg # of iterations =  4.9

     total cpu time spent up to now is      294.0 secs

     total energy              =   -1084.87711408 Ry
     estimated scf accuracy    <       0.00002517 Ry

     iteration # 22     ecut=    50.00 Ry     beta= 0.30
     Davidson diagonalization with overlap

---- Real-time Memory Report at c_bands before calling an iterative solver
           203 MiB given to the printing process from OS
           178 MiB allocation reported by mallinfo(arena+hblkhd)
        105031 MiB available memory on the node where the printing process lives
------------------
     ethr =  2.33E-08,  avg # of iterations =  6.9

     total cpu time spent up to now is      313.2 secs

     total energy              =   -1084.87713022 Ry
     estimated scf accuracy    <       0.00002387 Ry

     iteration # 23     ecut=    50.00 Ry     beta= 0.30
     Davidson diagonalization with overlap

---- Real-time Memory Report at c_bands before calling an iterative solver
           203 MiB given to the printing process from OS
           178 MiB allocation reported by mallinfo(arena+hblkhd)
        105028 MiB available memory on the node where the printing process lives
------------------
     ethr =  2.21E-08,  avg # of iterations =  2.0

     total cpu time spent up to now is      323.7 secs

     total energy              =   -1084.87712599 Ry
     estimated scf accuracy    <       0.00000731 Ry

     iteration # 24     ecut=    50.00 Ry     beta= 0.30
     Davidson diagonalization with overlap

---- Real-time Memory Report at c_bands before calling an iterative solver
           203 MiB given to the printing process from OS
           178 MiB allocation reported by mallinfo(arena+hblkhd)
        104990 MiB available memory on the node where the printing process lives
------------------
     ethr =  6.77E-09,  avg # of iterations =  8.0

     total cpu time spent up to now is      348.1 secs

     total energy              =   -1084.87713751 Ry
     estimated scf accuracy    <       0.00002000 Ry

     iteration # 25     ecut=    50.00 Ry     beta= 0.30
     Davidson diagonalization with overlap

---- Real-time Memory Report at c_bands before calling an iterative solver
           203 MiB given to the printing process from OS
           178 MiB allocation reported by mallinfo(arena+hblkhd)
        105021 MiB available memory on the node where the printing process lives
------------------
     ethr =  6.77E-09,  avg # of iterations =  1.4

     total cpu time spent up to now is      357.7 secs

     total energy              =   -1084.87714521 Ry
     estimated scf accuracy    <       0.00001932 Ry

     iteration # 26     ecut=    50.00 Ry     beta= 0.30
     Davidson diagonalization with overlap

---- Real-time Memory Report at c_bands before calling an iterative solver
           203 MiB given to the printing process from OS
           178 MiB allocation reported by mallinfo(arena+hblkhd)
        104983 MiB available memory on the node where the printing process lives
------------------
     ethr =  6.77E-09,  avg # of iterations =  3.3

     total cpu time spent up to now is      370.3 secs

     total energy              =   -1084.87714773 Ry
     estimated scf accuracy    <       0.00003719 Ry

     iteration # 27     ecut=    50.00 Ry     beta= 0.30
     Davidson diagonalization with overlap

---- Real-time Memory Report at c_bands before calling an iterative solver
           203 MiB given to the printing process from OS
           178 MiB allocation reported by mallinfo(arena+hblkhd)
        105024 MiB available memory on the node where the printing process lives
------------------
     ethr =  6.77E-09,  avg # of iterations =  2.1

     total cpu time spent up to now is      380.9 secs

     total energy              =   -1084.87713938 Ry
     estimated scf accuracy    <       0.00004727 Ry

     iteration # 28     ecut=    50.00 Ry     beta= 0.30
     Davidson diagonalization with overlap

---- Real-time Memory Report at c_bands before calling an iterative solver
           203 MiB given to the printing process from OS
           178 MiB allocation reported by mallinfo(arena+hblkhd)
        104984 MiB available memory on the node where the printing process lives
------------------
     ethr =  6.77E-09,  avg # of iterations =  2.0

     total cpu time spent up to now is      390.8 secs

     total energy              =   -1084.87713738 Ry
     estimated scf accuracy    <       0.00003249 Ry

     iteration # 29     ecut=    50.00 Ry     beta= 0.30
     Davidson diagonalization with overlap

---- Real-time Memory Report at c_bands before calling an iterative solver
           203 MiB given to the printing process from OS
           178 MiB allocation reported by mallinfo(arena+hblkhd)
        105004 MiB available memory on the node where the printing process lives
------------------
     ethr =  6.77E-09,  avg # of iterations =  1.9

     total cpu time spent up to now is      400.7 secs

     total energy              =   -1084.87713514 Ry
     estimated scf accuracy    <       0.00002532 Ry

     iteration # 30     ecut=    50.00 Ry     beta= 0.30
     Davidson diagonalization with overlap

---- Real-time Memory Report at c_bands before calling an iterative solver
           203 MiB given to the printing process from OS
           178 MiB allocation reported by mallinfo(arena+hblkhd)
        104990 MiB available memory on the node where the printing process lives
------------------
     ethr =  6.77E-09,  avg # of iterations =  2.0

     total cpu time spent up to now is      410.6 secs

     total energy              =   -1084.87713284 Ry
     estimated scf accuracy    <       0.00001760 Ry

     iteration # 31     ecut=    50.00 Ry     beta= 0.30
     Davidson diagonalization with overlap

---- Real-time Memory Report at c_bands before calling an iterative solver
           203 MiB given to the printing process from OS
           178 MiB allocation reported by mallinfo(arena+hblkhd)
        105008 MiB available memory on the node where the printing process lives
------------------
     ethr =  6.77E-09,  avg # of iterations =  2.0

     total cpu time spent up to now is      421.4 secs

     total energy              =   -1084.87712922 Ry
     estimated scf accuracy    <       0.00000944 Ry

     iteration # 32     ecut=    50.00 Ry     beta= 0.30
     Davidson diagonalization with overlap

---- Real-time Memory Report at c_bands before calling an iterative solver
           203 MiB given to the printing process from OS
           178 MiB allocation reported by mallinfo(arena+hblkhd)
        104993 MiB available memory on the node where the printing process lives
------------------
     ethr =  6.77E-09,  avg # of iterations =  5.9

     total cpu time spent up to now is      438.4 secs

     total energy              =   -1084.87713234 Ry
     estimated scf accuracy    <       0.00000031 Ry

     iteration # 33     ecut=    50.00 Ry     beta= 0.30
     Davidson diagonalization with overlap

---- Real-time Memory Report at c_bands before calling an iterative solver
           203 MiB given to the printing process from OS
           178 MiB allocation reported by mallinfo(arena+hblkhd)
        104983 MiB available memory on the node where the printing process lives
------------------
     ethr =  2.88E-10,  avg # of iterations =  6.3

     total cpu time spent up to now is      457.6 secs

     total energy              =   -1084.87713265 Ry
     estimated scf accuracy    <       0.00000012 Ry

     iteration # 34     ecut=    50.00 Ry     beta= 0.30
     Davidson diagonalization with overlap

---- Real-time Memory Report at c_bands before calling an iterative solver
           203 MiB given to the printing process from OS
           178 MiB allocation reported by mallinfo(arena+hblkhd)
        105065 MiB available memory on the node where the printing process lives
------------------
     ethr =  1.09E-10,  avg # of iterations =  3.7

     total cpu time spent up to now is      469.2 secs

     total energy              =   -1084.87713292 Ry
     estimated scf accuracy    <       0.00000024 Ry

     iteration # 35     ecut=    50.00 Ry     beta= 0.30
     Davidson diagonalization with overlap

---- Real-time Memory Report at c_bands before calling an iterative solver
           203 MiB given to the printing process from OS
           178 MiB allocation reported by mallinfo(arena+hblkhd)
        104990 MiB available memory on the node where the printing process lives
------------------
     ethr =  1.09E-10,  avg # of iterations =  8.7

     total cpu time spent up to now is      494.2 secs

     total energy              =   -1084.87713269 Ry
     estimated scf accuracy    <       0.00000199 Ry

     iteration # 36     ecut=    50.00 Ry     beta= 0.30
     Davidson diagonalization with overlap

---- Real-time Memory Report at c_bands before calling an iterative solver
           203 MiB given to the printing process from OS
           178 MiB allocation reported by mallinfo(arena+hblkhd)
        104888 MiB available memory on the node where the printing process lives
------------------
     ethr =  1.09E-10,  avg # of iterations =  4.7

     total cpu time spent up to now is      508.2 secs

     total energy              =   -1084.87713268 Ry
     estimated scf accuracy    <       0.00000079 Ry

     iteration # 37     ecut=    50.00 Ry     beta= 0.30
     Davidson diagonalization with overlap

---- Real-time Memory Report at c_bands before calling an iterative solver
           203 MiB given to the printing process from OS
           178 MiB allocation reported by mallinfo(arena+hblkhd)
        105326 MiB available memory on the node where the printing process lives
------------------
     ethr =  1.09E-10,  avg # of iterations =  2.1

     total cpu time spent up to now is      518.8 secs

     total energy              =   -1084.87713256 Ry
     estimated scf accuracy    <       0.00000061 Ry

     iteration # 38     ecut=    50.00 Ry     beta= 0.30
     Davidson diagonalization with overlap

---- Real-time Memory Report at c_bands before calling an iterative solver
           203 MiB given to the printing process from OS
           178 MiB allocation reported by mallinfo(arena+hblkhd)
        104621 MiB available memory on the node where the printing process lives
------------------
     ethr =  1.09E-10,  avg # of iterations =  5.3

     total cpu time spent up to now is      534.7 secs

     total energy              =   -1084.87713253 Ry
     estimated scf accuracy    <       0.00000015 Ry

     iteration # 39     ecut=    50.00 Ry     beta= 0.30
     Davidson diagonalization with overlap

---- Real-time Memory Report at c_bands before calling an iterative solver
           203 MiB given to the printing process from OS
           178 MiB allocation reported by mallinfo(arena+hblkhd)
        104962 MiB available memory on the node where the printing process lives
------------------
     ethr =  1.09E-10,  avg # of iterations =  5.7

     total cpu time spent up to now is      549.9 secs

     End of self-consistent calculation

          k = 0.0000 0.0000 0.0000 (  6083 PWs)   bands (ev):

   -11.2538 -10.8640 -10.8640 -10.5051 -10.4335 -10.4335   0.7745   0.7745
     0.9876   1.0013   1.0016   1.1145   1.1145   1.1501   1.1501   1.2199
     1.2201   1.3023   1.3023   1.3622   1.5791   1.5791   1.6791   1.6791
     1.9442   1.9442   1.9558   1.9558   2.0204   2.0204   2.1753   2.1754
     2.2126   2.2126   2.3204   2.3204   2.3594   2.6501   2.6501   3.4363
     3.4364   4.2145   4.2145   4.4259   4.4260   5.4036   5.4039   5.6693
     5.6693   5.8691   5.8692   6.3291   6.3295   6.3948

     occupation numbers 
     1.0000   1.0000   1.0000   1.0000   1.0000   1.0000   1.0000   1.0000
     1.0000   1.0000   1.0000   1.0000   1.0000   1.0000   1.0000   1.0000
     1.0000   1.0000   1.0000   1.0000   1.0000   1.0000   1.0000   1.0000
     1.0000   1.0000   1.0000   1.0000   1.0000   1.0000   1.0000   1.0000
     1.0000   1.0000   1.0000   1.0000   1.0000   1.0000   1.0000   1.0000
     1.0000   1.0000   1.0000   1.0000   1.0000   1.0000   1.0000   1.0000
     1.0000   1.0000   1.0000   1.0000   1.0000   1.0000

          k = 0.0000 0.0000 0.3367 (  6087 PWs)   bands (ev):

   -11.2051 -10.8331 -10.8331 -10.5564 -10.4597 -10.4597   0.7277   0.7277
     0.9290   1.0049   1.0051   1.0067   1.0067   1.1014   1.1690   1.1691
     1.1923   1.1924   1.2672   1.2672   1.5098   1.5098   1.5375   1.5375
     1.9628   1.9628   1.9688   1.9688   2.0325   2.0325   2.1706   2.1706
     2.1965   2.1965   2.2922   2.2922   2.7972   2.8978   2.8978   3.6237
     3.6237   4.1940   4.1940   4.5369   4.5369   5.4688   5.4691   5.7533
     5.7533   5.7808   5.7809   5.8280   6.2708   6.2712

     occupation numbers 
     1.0000   1.0000   1.0000   1.0000   1.0000   1.0000   1.0000   1.0000
     1.0000   1.0000   1.0000   1.0000   1.0000   1.0000   1.0000   1.0000
     1.0000   1.0000   1.0000   1.0000   1.0000   1.0000   1.0000   1.0000
     1.0000   1.0000   1.0000   1.0000   1.0000   1.0000   1.0000   1.0000
     1.0000   1.0000   1.0000   1.0000   1.0000   1.0000   1.0000   1.0000
     1.0000   1.0000   1.0000   1.0000   1.0000   1.0000   1.0000   1.0000
     1.0000   1.0000   1.0000   1.0000   1.0000   1.0000

          k = 0.0000 0.0000 0.6733 (  6136 PWs)   bands (ev):

   -11.0709 -10.7498 -10.7498 -10.6961 -10.5337 -10.5336   0.6324   0.6324
     0.7566   0.7566   0.8047   0.8164   1.0222   1.0223   1.1288   1.1290
     1.2265   1.2266   1.2359   1.2359   1.3434   1.3434   1.4356   1.4356
     2.0295   2.0296   2.0492   2.0492   2.0651   2.0651   2.1477   2.1478
     2.1573   2.1573   2.2330   2.2330   3.1747   3.1747   3.5700   3.6345
     3.6345   4.6547   4.6547   4.8238   4.8239   5.0979   5.5358   5.5359
     5.6450   5.6453   5.7346   5.7346   6.1085   6.1089

     occupation numbers 
     1.0000   1.0000   1.0000   1.0000   1.0000   1.0000   1.0000   1.0000
     1.0000   1.0000   1.0000   1.0000   1.0000   1.0000   1.0000   1.0000
     1.0000   1.0000   1.0000   1.0000   1.0000   1.0000   1.0000   1.0000
     1.0000   1.0000   1.0000   1.0000   1.0000   1.0000   1.0000   1.0000
     1.0000   1.0000   1.0000   1.0000   1.0000   1.0000   1.0000   1.0000
     1.0000   1.0000   1.0000   1.0000   1.0000   1.0000   1.0000   1.0000
     1.0000   1.0000   1.0000   1.0000   1.0000   1.0000

          k = 0.0000 0.0000-1.0100 (  6150 PWs)   bands (ev):

   -10.8849 -10.8848 -10.6395 -10.6394 -10.6394 -10.6393   0.6110   0.6110
     0.6110   0.6110   0.7301   0.7301   1.0643   1.0644   1.0645   1.0645
     1.2608   1.2608   1.2608   1.2608   1.3203   1.3203   1.3203   1.3203
     2.0980   2.0980   2.0980   2.0980   2.1100   2.1100   2.1100   2.1100
     2.1488   2.1488   2.1488   2.1488   3.4165   3.4165   3.4165   3.4165
     4.3570   4.3571   5.1896   5.1896   5.1897   5.1897   5.3344   5.3344
     5.3345   5.3345   5.8802   5.8803   5.8806   5.8806

     occupation numbers 
     1.0000   1.0000   1.0000   1.0000   1.0000   1.0000   1.0000   1.0000
     1.0000   1.0000   1.0000   1.0000   1.0000   1.0000   1.0000   1.0000
     1.0000   1.0000   1.0000   1.0000   1.0000   1.0000   1.0000   1.0000
     1.0000   1.0000   1.0000   1.0000   1.0000   1.0000   1.0000   1.0000
     1.0000   1.0000   1.0000   1.0000   1.0000   1.0000   1.0000   1.0000
     1.0000   1.0000   1.0000   1.0000   1.0000   1.0000   1.0000   1.0000
     1.0000   1.0000   1.0000   1.0000   1.0000   1.0000

          k = 0.0000 0.5774 0.0000 (  6111 PWs)   bands (ev):

   -11.1350 -10.9388 -10.6919 -10.4730 -10.4475 -10.4380   0.8513   0.8743
     0.8945   1.0212   1.0608   1.0768   1.0996   1.1689   1.1928   1.2515
     1.2972   1.3226   1.3540   1.5130   1.5380   1.6776   1.7392   1.7783
     1.8676   1.9014   1.9475   1.9750   1.9793   2.0096   2.1906   2.2069
     2.2251   2.2436   2.2911   2.3610   2.4075   2.6087   2.6973   3.2517
     3.6687   3.9603   4.0017   4.0718   4.6208   4.6863   5.0808   5.2301
     5.2550   5.4310   5.8243   5.8476   6.1867   6.2078

     occupation numbers 
     1.0000   1.0000   1.0000   1.0000   1.0000   1.0000   1.0000   1.0000
     1.0000   1.0000   1.0000   1.0000   1.0000   1.0000   1.0000   1.0000
     1.0000   1.0000   1.0000   1.0000   1.0000   1.0000   1.0000   1.0000
     1.0000   1.0000   1.0000   1.0000   1.0000   1.0000   1.0000   1.0000
     1.0000   1.0000   1.0000   1.0000   1.0000   1.0000   1.0000   1.0000
     1.0000   1.0000   1.0000   1.0000   1.0000   1.0000   1.0000   1.0000
     1.0000   1.0000   1.0000   1.0000   1.0000   1.0000

          k = 0.0000 0.5774 0.3367 (  6109 PWs)   bands (ev):

   -11.0910 -10.9038 -10.6722 -10.5173 -10.4696 -10.4602   0.7996   0.8309
     0.8469   0.9756   1.0354   1.0475   1.0680   1.1107   1.1515   1.1962
     1.2132   1.2925   1.3134   1.3513   1.4678   1.4737   1.5766   1.6969
     1.9150   1.9389   1.9704   1.9746   2.0171   2.0756   2.1818   2.1941
     2.2128   2.2164   2.2748   2.3615   2.7386   2.8776   2.9696   3.3058
     3.7233   4.0767   4.1534   4.2819   4.6537   4.7012   5.0892   5.1600
     5.2722   5.4275   5.7314   5.9068   6.1172   6.1767

     occupation numbers 
     1.0000   1.0000   1.0000   1.0000   1.0000   1.0000   1.0000   1.0000
     1.0000   1.0000   1.0000   1.0000   1.0000   1.0000   1.0000   1.0000
     1.0000   1.0000   1.0000   1.0000   1.0000   1.0000   1.0000   1.0000
     1.0000   1.0000   1.0000   1.0000   1.0000   1.0000   1.0000   1.0000
     1.0000   1.0000   1.0000   1.0000   1.0000   1.0000   1.0000   1.0000
     1.0000   1.0000   1.0000   1.0000   1.0000   1.0000   1.0000   1.0000
     1.0000   1.0000   1.0000   1.0000   1.0000   1.0000

          k = 0.0000 0.5774 0.6733 (  6105 PWs)   bands (ev):

   -10.9703 -10.8089 -10.6386 -10.6205 -10.5576 -10.4977   0.6906   0.7288
     0.7314   0.7803   0.7979   0.8236   1.0766   1.0944   1.1434   1.1838
     1.1869   1.2008   1.2217   1.2928   1.3264   1.3821   1.4651   1.5408
     2.0175   2.0194   2.0279   2.0402   2.0589   2.0951   2.1508   2.1613
     2.1741   2.2210   2.2291   2.3266   2.8714   3.2003   3.4070   3.5869
     3.9537   4.0586   4.6212   4.7207   4.7943   4.8592   5.0119   5.0883
     5.3722   5.4789   5.5974   5.8325   5.9242   5.9455

     occupation numbers 
     1.0000   1.0000   1.0000   1.0000   1.0000   1.0000   1.0000   1.0000
     1.0000   1.0000   1.0000   1.0000   1.0000   1.0000   1.0000   1.0000
     1.0000   1.0000   1.0000   1.0000   1.0000   1.0000   1.0000   1.0000
     1.0000   1.0000   1.0000   1.0000   1.0000   1.0000   1.0000   1.0000
     1.0000   1.0000   1.0000   1.0000   1.0000   1.0000   1.0000   1.0000
     1.0000   1.0000   1.0000   1.0000   1.0000   1.0000   1.0000   1.0000
     1.0000   1.0000   1.0000   1.0000   1.0000   1.0000

          k = 0.0000 0.5774-1.0100 (  6118 PWs)   bands (ev):

   -10.8046 -10.8046 -10.6816 -10.6815 -10.5556 -10.5555   0.6525   0.6525
     0.6813   0.6813   0.6896   0.6896   1.1115   1.1115   1.1473   1.1473
     1.1701   1.1701   1.2815   1.2815   1.2924   1.2924   1.4382   1.4383
     2.0822   2.0822   2.0956   2.0956   2.0976   2.0976   2.1067   2.1067
     2.1437   2.1437   2.2737   2.2737   3.0356   3.0356   3.7125   3.7126
     4.1802   4.1802   4.5155   4.5156   5.1138   5.1139   5.4094   5.4094
     5.4441   5.4442   5.5161   5.5161   5.6529   5.6530

     occupation numbers 
     1.0000   1.0000   1.0000   1.0000   1.0000   1.0000   1.0000   1.0000
     1.0000   1.0000   1.0000   1.0000   1.0000   1.0000   1.0000   1.0000
     1.0000   1.0000   1.0000   1.0000   1.0000   1.0000   1.0000   1.0000
     1.0000   1.0000   1.0000   1.0000   1.0000   1.0000   1.0000   1.0000
     1.0000   1.0000   1.0000   1.0000   1.0000   1.0000   1.0000   1.0000
     1.0000   1.0000   1.0000   1.0000   1.0000   1.0000   1.0000   1.0000
     1.0000   1.0000   1.0000   1.0000   1.0000   1.0000

          k = 0.0000 1.1547 0.0000 (  6143 PWs)   bands (ev):

   -10.8640 -10.8640 -10.5304 -10.5303 -10.4335 -10.4335   0.7746   0.7746
     0.9628   1.1145   1.1146   1.1499   1.1499   1.2124   1.2124   1.3023
     1.3023   1.5790   1.5790   1.6791   1.6791   1.7976   1.7976   1.8741
     1.9544   1.9559   1.9559   2.0205   2.0205   2.0515   2.1563   2.1564
     2.2126   2.2126   2.3203   2.3204   2.6206   2.6502   2.6502   3.0567
     3.0567   3.4365   3.4365   4.2146   4.2146   4.4257   4.4257   4.6179
     4.6179   5.0106   5.6693   5.6693   5.8689   5.8689

     occupation numbers 
     1.0000   1.0000   1.0000   1.0000   1.0000   1.0000   1.0000   1.0000
     1.0000   1.0000   1.0000   1.0000   1.0000   1.0000   1.0000   1.0000
     1.0000   1.0000   1.0000   1.0000   1.0000   1.0000   1.0000   1.0000
     1.0000   1.0000   1.0000   1.0000   1.0000   1.0000   1.0000   1.0000
     1.0000   1.0000   1.0000   1.0000   1.0000   1.0000   1.0000   1.0000
     1.0000   1.0000   1.0000   1.0000   1.0000   1.0000   1.0000   1.0000
     1.0000   1.0000   1.0000   1.0000   1.0000   1.0000

          k = 0.0000 1.1547 0.3367 (  6111 PWs)   bands (ev):

   -10.8331 -10.8331 -10.5263 -10.5262 -10.4598 -10.4597   0.7278   0.7278
     0.9912   1.0067   1.0067   1.1159   1.1160   1.1689   1.1689   1.2673
     1.2673   1.5099   1.5099   1.5374   1.5374   1.6896   1.6897   1.7155
     1.9422   1.9628   1.9628   2.0325   2.0325   2.0435   2.1965   2.1965
     2.2615   2.2615   2.2922   2.2922   2.8835   2.8978   2.8978   3.0060
     3.0060   3.6238   3.6238   4.1941   4.1941   4.5367   4.5367   4.8567
     4.8568   4.8662   5.7533   5.7534   5.7806   5.7806

     occupation numbers 
     1.0000   1.0000   1.0000   1.0000   1.0000   1.0000   1.0000   1.0000
     1.0000   1.0000   1.0000   1.0000   1.0000   1.0000   1.0000   1.0000
     1.0000   1.0000   1.0000   1.0000   1.0000   1.0000   1.0000   1.0000
     1.0000   1.0000   1.0000   1.0000   1.0000   1.0000   1.0000   1.0000
     1.0000   1.0000   1.0000   1.0000   1.0000   1.0000   1.0000   1.0000
     1.0000   1.0000   1.0000   1.0000   1.0000   1.0000   1.0000   1.0000
     1.0000   1.0000   1.0000   1.0000   1.0000   1.0000

          k = 0.0000 1.1547 0.6733 (  6120 PWs)   bands (ev):

   -10.7498 -10.7498 -10.5337 -10.5336 -10.5181 -10.5180   0.6325   0.6325
     0.7566   0.7566   0.9164   0.9164   1.0785   1.2264   1.2264   1.2360
     1.2360   1.3434   1.3434   1.4355   1.4355   1.4485   1.5933   1.5933
     1.9617   2.0218   2.0492   2.0492   2.0651   2.0651   2.1573   2.1573
     2.2331   2.2331   2.3761   2.3761   2.9388   2.9388   3.1748   3.1748
     3.3887   3.6346   3.6346   4.4788   4.6547   4.6548   4.8236   4.8236
     5.2912   5.2913   5.5356   5.5356   5.7346   5.7347

     occupation numbers 
     1.0000   1.0000   1.0000   1.0000   1.0000   1.0000   1.0000   1.0000
     1.0000   1.0000   1.0000   1.0000   1.0000   1.0000   1.0000   1.0000
     1.0000   1.0000   1.0000   1.0000   1.0000   1.0000   1.0000   1.0000
     1.0000   1.0000   1.0000   1.0000   1.0000   1.0000   1.0000   1.0000
     1.0000   1.0000   1.0000   1.0000   1.0000   1.0000   1.0000   1.0000
     1.0000   1.0000   1.0000   1.0000   1.0000   1.0000   1.0000   1.0000
     1.0000   1.0000   1.0000   1.0000   1.0000   1.0000

          k = 0.0000 1.1547-1.0100 (  6122 PWs)   bands (ev):

   -10.6395 -10.6394 -10.6394 -10.6393 -10.5140 -10.5139   0.6111   0.6111
     0.6111   0.6111   0.8205   0.8205   1.2299   1.2300   1.2609   1.2609
     1.2609   1.2609   1.3201   1.3201   1.3201   1.3202   1.5657   1.5657
     1.9918   1.9918   2.1100   2.1100   2.1100   2.1100   2.1488   2.1488
     2.1488   2.1488   2.4160   2.4161   2.9152   2.9152   3.4166   3.4166
     3.4166   3.4166   3.9515   3.9515   5.1893   5.1894   5.1894   5.1894
     5.3345   5.3345   5.3345   5.3346   5.4963   5.4964

     occupation numbers 
     1.0000   1.0000   1.0000   1.0000   1.0000   1.0000   1.0000   1.0000
     1.0000   1.0000   1.0000   1.0000   1.0000   1.0000   1.0000   1.0000
     1.0000   1.0000   1.0000   1.0000   1.0000   1.0000   1.0000   1.0000
     1.0000   1.0000   1.0000   1.0000   1.0000   1.0000   1.0000   1.0000
     1.0000   1.0000   1.0000   1.0000   1.0000   1.0000   1.0000   1.0000
     1.0000   1.0000   1.0000   1.0000   1.0000   1.0000   1.0000   1.0000
     1.0000   1.0000   1.0000   1.0000   1.0000   1.0000

          k = 0.0000-1.7321 0.0000 (  6102 PWs)   bands (ev):

   -10.6920 -10.6919 -10.6858 -10.4517 -10.4475 -10.4475   0.8077   0.8946
     0.8946   1.0995   1.0995   1.1578   1.1763   1.2973   1.2973   1.3540
     1.3540   1.4551   1.5169   1.6776   1.6776   1.7411   1.7782   1.7782
     1.9750   1.9750   2.0002   2.0096   2.0096   2.1072   2.2218   2.2252
     2.2252   2.2610   2.3610   2.3610   2.6974   2.6974   2.8165   3.2071
     3.2517   3.2518   3.6686   3.6686   3.7433   4.0017   4.0017   4.0643
     5.2300   5.2301   5.2450   5.4308   5.4308   5.6958

     occupation numbers 
     1.0000   1.0000   1.0000   1.0000   1.0000   1.0000   1.0000   1.0000
     1.0000   1.0000   1.0000   1.0000   1.0000   1.0000   1.0000   1.0000
     1.0000   1.0000   1.0000   1.0000   1.0000   1.0000   1.0000   1.0000
     1.0000   1.0000   1.0000   1.0000   1.0000   1.0000   1.0000   1.0000
     1.0000   1.0000   1.0000   1.0000   1.0000   1.0000   1.0000   1.0000
     1.0000   1.0000   1.0000   1.0000   1.0000   1.0000   1.0000   1.0000
     1.0000   1.0000   1.0000   1.0000   1.0000   1.0000

          k = 0.0000-1.7321 0.3367 (  6116 PWs)   bands (ev):

   -10.6722 -10.6722 -10.6667 -10.4637 -10.4602 -10.4601   0.7517   0.8469
     0.8470   0.9956   1.0475   1.0475   1.1961   1.1961   1.2026   1.3513
     1.3513   1.4267   1.4820   1.5766   1.5766   1.6899   1.6968   1.6968
     1.9746   1.9746   2.0707   2.0756   2.0756   2.1101   2.1983   2.2165
     2.2165   2.2614   2.3615   2.3615   2.7387   2.7387   2.7672   3.1254
     3.3059   3.3059   3.7231   3.7232   4.0939   4.1991   4.2819   4.2819
     5.2719   5.2720   5.3961   5.4275   5.4275   5.5989

     occupation numbers 
     1.0000   1.0000   1.0000   1.0000   1.0000   1.0000   1.0000   1.0000
     1.0000   1.0000   1.0000   1.0000   1.0000   1.0000   1.0000   1.0000
     1.0000   1.0000   1.0000   1.0000   1.0000   1.0000   1.0000   1.0000
     1.0000   1.0000   1.0000   1.0000   1.0000   1.0000   1.0000   1.0000
     1.0000   1.0000   1.0000   1.0000   1.0000   1.0000   1.0000   1.0000
     1.0000   1.0000   1.0000   1.0000   1.0000   1.0000   1.0000   1.0000
     1.0000   1.0000   1.0000   1.0000   1.0000   1.0000

          k = 0.0000-1.7321 0.6733 (  6108 PWs)   bands (ev):

   -10.6205 -10.6205 -10.6167 -10.4991 -10.4977 -10.4977   0.6376   0.7286
     0.7315   0.7315   0.8236   0.8236   1.2007   1.2007   1.2816   1.3265
     1.3265   1.3943   1.4219   1.4651   1.4651   1.5407   1.5407   1.5593
     2.0402   2.0402   2.0951   2.0951   2.1192   2.1608   2.1685   2.2291
     2.2292   2.2547   2.3266   2.3266   2.7681   2.8714   2.8715   2.9786
     3.2003   3.2004   4.0584   4.0584   4.5347   4.7754   4.8591   4.8592
     5.0117   5.0118   5.3299   5.5622   5.5974   5.5974

     occupation numbers 
     1.0000   1.0000   1.0000   1.0000   1.0000   1.0000   1.0000   1.0000
     1.0000   1.0000   1.0000   1.0000   1.0000   1.0000   1.0000   1.0000
     1.0000   1.0000   1.0000   1.0000   1.0000   1.0000   1.0000   1.0000
     1.0000   1.0000   1.0000   1.0000   1.0000   1.0000   1.0000   1.0000
     1.0000   1.0000   1.0000   1.0000   1.0000   1.0000   1.0000   1.0000
     1.0000   1.0000   1.0000   1.0000   1.0000   1.0000   1.0000   1.0000
     1.0000   1.0000   1.0000   1.0000   1.0000   1.0000

          k = 0.0000-1.7321-1.0100 (  6116 PWs)   bands (ev):

   -10.5556 -10.5555 -10.5555 -10.5555 -10.5544 -10.5543   0.5972   0.5973
     0.6896   0.6896   0.6897   0.6897   1.2815   1.2815   1.2815   1.2815
     1.3890   1.3890   1.4071   1.4071   1.4382   1.4382   1.4382   1.4382
     2.0822   2.0822   2.0823   2.0823   2.1347   2.1347   2.2280   2.2280
     2.2738   2.2738   2.2738   2.2738   2.8511   2.8511   3.0356   3.0356
     3.0356   3.0357   4.5153   4.5154   4.5154   4.5154   4.9470   4.9471
     5.3573   5.3573   5.4441   5.4442   5.4442   5.4442

     occupation numbers 
     1.0000   1.0000   1.0000   1.0000   1.0000   1.0000   1.0000   1.0000
     1.0000   1.0000   1.0000   1.0000   1.0000   1.0000   1.0000   1.0000
     1.0000   1.0000   1.0000   1.0000   1.0000   1.0000   1.0000   1.0000
     1.0000   1.0000   1.0000   1.0000   1.0000   1.0000   1.0000   1.0000
     1.0000   1.0000   1.0000   1.0000   1.0000   1.0000   1.0000   1.0000
     1.0000   1.0000   1.0000   1.0000   1.0000   1.0000   1.0000   1.0000
     1.0000   1.0000   1.0000   1.0000   1.0000   1.0000

          k = 0.1667 0.0962 0.0000 (  6085 PWs)   bands (ev):

   -11.2399 -10.9595 -10.7768 -10.5010 -10.4407 -10.4360   0.7819   0.7890
     0.9640   1.0089   1.0200   1.1105   1.1253   1.1263   1.1657   1.2140
     1.2318   1.2418   1.3694   1.3840   1.4865   1.6174   1.6622   1.7026
     1.8979   1.9386   1.9434   1.9855   1.9897   2.0604   2.1775   2.1867
     2.2064   2.2177   2.2715   2.3604   2.3715   2.5864   2.6508   3.3077
     3.7485   3.9445   4.2388   4.5367   4.6452   5.3046   5.3645   5.4663
     5.7783   5.8751   5.9771   6.0628   6.3130   6.3801

     occupation numbers 
     1.0000   1.0000   1.0000   1.0000   1.0000   1.0000   1.0000   1.0000
     1.0000   1.0000   1.0000   1.0000   1.0000   1.0000   1.0000   1.0000
     1.0000   1.0000   1.0000   1.0000   1.0000   1.0000   1.0000   1.0000
     1.0000   1.0000   1.0000   1.0000   1.0000   1.0000   1.0000   1.0000
     1.0000   1.0000   1.0000   1.0000   1.0000   1.0000   1.0000   1.0000
     1.0000   1.0000   1.0000   1.0000   1.0000   1.0000   1.0000   1.0000
     1.0000   1.0000   1.0000   1.0000   1.0000   1.0000

          k = 0.1667 0.0962 0.3367 (  6106 PWs)   bands (ev):

   -11.1917 -10.9234 -10.7512 -10.5515 -10.4737 -10.4556   0.7307   0.7449
     0.9149   0.9997   1.0127   1.0135   1.0169   1.0975   1.1407   1.1884
     1.2034   1.2040   1.2071   1.3352   1.4498   1.4660   1.5146   1.6156
     1.9315   1.9646   1.9680   2.0019   2.0119   2.0675   2.1721   2.1760
     2.1927   2.1986   2.2614   2.3218   2.7633   2.8061   2.9587   3.4322
     3.8924   4.0721   4.3612   4.4479   4.7446   5.3728   5.4315   5.5847
     5.6854   5.6918   5.8946   5.9202   6.2533   6.2753

     occupation numbers 
     1.0000   1.0000   1.0000   1.0000   1.0000   1.0000   1.0000   1.0000
     1.0000   1.0000   1.0000   1.0000   1.0000   1.0000   1.0000   1.0000
     1.0000   1.0000   1.0000   1.0000   1.0000   1.0000   1.0000   1.0000
     1.0000   1.0000   1.0000   1.0000   1.0000   1.0000   1.0000   1.0000
     1.0000   1.0000   1.0000   1.0000   1.0000   1.0000   1.0000   1.0000
     1.0000   1.0000   1.0000   1.0000   1.0000   1.0000   1.0000   1.0000
     1.0000   1.0000   1.0000   1.0000   1.0000   1.0000

          k = 0.1667 0.0962 0.6733 (  6121 PWs)   bands (ev):

   -11.0590 -10.8256 -10.6891 -10.6830 -10.5654 -10.5117   0.6280   0.6524
     0.7439   0.7704   0.7951   0.8145   1.0277   1.0312   1.1345   1.1399
     1.1733   1.1861   1.2571   1.2854   1.3033   1.3612   1.3914   1.5000
     2.0265   2.0279   2.0288   2.0454   2.0890   2.0896   2.1481   2.1509
     2.1548   2.1599   2.2116   2.2541   2.9430   3.3358   3.4003   3.5754
     3.9599   4.6722   4.6913   4.6931   5.0054   5.0444   5.4275   5.5642
     5.6122   5.6556   5.6657   5.8103   6.0801   6.0870

     occupation numbers 
     1.0000   1.0000   1.0000   1.0000   1.0000   1.0000   1.0000   1.0000
     1.0000   1.0000   1.0000   1.0000   1.0000   1.0000   1.0000   1.0000
     1.0000   1.0000   1.0000   1.0000   1.0000   1.0000   1.0000   1.0000
     1.0000   1.0000   1.0000   1.0000   1.0000   1.0000   1.0000   1.0000
     1.0000   1.0000   1.0000   1.0000   1.0000   1.0000   1.0000   1.0000
     1.0000   1.0000   1.0000   1.0000   1.0000   1.0000   1.0000   1.0000
     1.0000   1.0000   1.0000   1.0000   1.0000   1.0000

          k = 0.1667 0.0962-1.0100 (  6142 PWs)   bands (ev):

   -10.8753 -10.8752 -10.6941 -10.6940 -10.5944 -10.5943   0.6015   0.6015
     0.6285   0.6285   0.7241   0.7241   1.0692   1.0693   1.0746   1.0746
     1.2016   1.2016   1.2631   1.2631   1.3213   1.3213   1.3667   1.3667
     2.0975   2.0975   2.0987   2.0987   2.1014   2.1015   2.1211   2.1211
     2.1289   2.1289   2.1770   2.1770   3.1398   3.1398   3.7133   3.7133
     4.3437   4.3437   5.0619   5.0620   5.3423   5.3423   5.3431   5.3432
     5.3456   5.3456   5.8219   5.8220   5.8532   5.8533

     occupation numbers 
     1.0000   1.0000   1.0000   1.0000   1.0000   1.0000   1.0000   1.0000
     1.0000   1.0000   1.0000   1.0000   1.0000   1.0000   1.0000   1.0000
     1.0000   1.0000   1.0000   1.0000   1.0000   1.0000   1.0000   1.0000
     1.0000   1.0000   1.0000   1.0000   1.0000   1.0000   1.0000   1.0000
     1.0000   1.0000   1.0000   1.0000   1.0000   1.0000   1.0000   1.0000
     1.0000   1.0000   1.0000   1.0000   1.0000   1.0000   1.0000   1.0000
     1.0000   1.0000   1.0000   1.0000   1.0000   1.0000

          k = 0.1667 0.6736 0.0000 (  6121 PWs)   bands (ev):

   -11.0869 -11.0196 -10.6445 -10.4621 -10.4619 -10.4492   0.8430   0.8522
     0.8947   1.0452   1.0650   1.0976   1.1297   1.1346   1.1988   1.2207
     1.3472   1.3676   1.3977   1.4330   1.6012   1.6156   1.6746   1.8110
     1.8793   1.8900   1.9516   1.9608   1.9693   2.0562   2.1953   2.2008
     2.2301   2.2532   2.2626   2.2642   2.4522   2.5254   2.8179   3.2099
     3.3837   4.1180   4.1654   4.3912   4.4459   4.8257   4.9490   5.0751
     5.1216   5.3772   5.9803   6.0033   6.1097   6.1241

     occupation numbers 
     1.0000   1.0000   1.0000   1.0000   1.0000   1.0000   1.0000   1.0000
     1.0000   1.0000   1.0000   1.0000   1.0000   1.0000   1.0000   1.0000
     1.0000   1.0000   1.0000   1.0000   1.0000   1.0000   1.0000   1.0000
     1.0000   1.0000   1.0000   1.0000   1.0000   1.0000   1.0000   1.0000
     1.0000   1.0000   1.0000   1.0000   1.0000   1.0000   1.0000   1.0000
     1.0000   1.0000   1.0000   1.0000   1.0000   1.0000   1.0000   1.0000
     1.0000   1.0000   1.0000   1.0000   1.0000   1.0000

          k = 0.1667 0.6736 0.3367 (  6116 PWs)   bands (ev):

   -11.0449 -10.9806 -10.6286 -10.5034 -10.4862 -10.4702   0.7963   0.8081
     0.8519   0.9970   1.0225   1.0865   1.1083   1.1144   1.1390   1.1615
     1.1765   1.3357   1.3587   1.3982   1.4131   1.4171   1.5593   1.7333
     1.9220   1.9309   1.9760   1.9906   2.0152   2.0732   2.1852   2.1891
     2.2274   2.2336   2.2475   2.2883   2.7801   2.9103   2.9495   3.1760
     3.5449   4.2811   4.3987   4.4577   4.4842   4.8086   4.9131   5.0831
     5.1682   5.3386   5.8969   6.0296   6.0343   6.1187

     occupation numbers 
     1.0000   1.0000   1.0000   1.0000   1.0000   1.0000   1.0000   1.0000
     1.0000   1.0000   1.0000   1.0000   1.0000   1.0000   1.0000   1.0000
     1.0000   1.0000   1.0000   1.0000   1.0000   1.0000   1.0000   1.0000
     1.0000   1.0000   1.0000   1.0000   1.0000   1.0000   1.0000   1.0000
     1.0000   1.0000   1.0000   1.0000   1.0000   1.0000   1.0000   1.0000
     1.0000   1.0000   1.0000   1.0000   1.0000   1.0000   1.0000   1.0000
     1.0000   1.0000   1.0000   1.0000   1.0000   1.0000

          k = 0.1667 0.6736 0.6733 (  6108 PWs)   bands (ev):

   -10.9301 -10.8745 -10.6169 -10.5885 -10.5877 -10.4960   0.6940   0.7082
     0.7415   0.7820   0.7898   0.8383   1.0931   1.1129   1.1236   1.1564
     1.1930   1.2096   1.2476   1.2615   1.3178   1.3841   1.4882   1.5685
     2.0166   2.0177   2.0310   2.0406   2.0524   2.0808   2.1520   2.1549
     2.1847   2.2003   2.2769   2.3229   2.8033   3.0380   3.5168   3.5694
     3.9533   4.2117   4.4397   4.7972   4.8789   4.9375   4.9945   5.0516
     5.2511   5.5345   5.6689   5.8263   5.8823   5.9174

     occupation numbers 
     1.0000   1.0000   1.0000   1.0000   1.0000   1.0000   1.0000   1.0000
     1.0000   1.0000   1.0000   1.0000   1.0000   1.0000   1.0000   1.0000
     1.0000   1.0000   1.0000   1.0000   1.0000   1.0000   1.0000   1.0000
     1.0000   1.0000   1.0000   1.0000   1.0000   1.0000   1.0000   1.0000
     1.0000   1.0000   1.0000   1.0000   1.0000   1.0000   1.0000   1.0000
     1.0000   1.0000   1.0000   1.0000   1.0000   1.0000   1.0000   1.0000
     1.0000   1.0000   1.0000   1.0000   1.0000   1.0000

          k = 0.1667 0.6736-1.0100 (  6120 PWs)   bands (ev):

   -10.7732 -10.7731 -10.7306 -10.7305 -10.5381 -10.5380   0.6554   0.6554
     0.6667   0.6667   0.6998   0.6998   1.1262   1.1262   1.1435   1.1435
     1.1854   1.1854   1.2378   1.2379   1.2977   1.2977   1.4746   1.4746
     2.0713   2.0714   2.0955   2.0955   2.0961   2.0961   2.1123   2.1124
     2.1238   2.1239   2.3163   2.3163   2.9046   2.9046   3.9164   3.9164
     4.0753   4.0753   4.4339   4.4340   5.3292   5.3292   5.4371   5.4371
     5.4425   5.4425   5.4538   5.4538   5.5495   5.5496

     occupation numbers 
     1.0000   1.0000   1.0000   1.0000   1.0000   1.0000   1.0000   1.0000
     1.0000   1.0000   1.0000   1.0000   1.0000   1.0000   1.0000   1.0000
     1.0000   1.0000   1.0000   1.0000   1.0000   1.0000   1.0000   1.0000
     1.0000   1.0000   1.0000   1.0000   1.0000   1.0000   1.0000   1.0000
     1.0000   1.0000   1.0000   1.0000   1.0000   1.0000   1.0000   1.0000
     1.0000   1.0000   1.0000   1.0000   1.0000   1.0000   1.0000   1.0000
     1.0000   1.0000   1.0000   1.0000   1.0000   1.0000

          k = 0.1667 1.2509 0.0000 (  6125 PWs)   bands (ev):

   -10.9043 -10.8124 -10.5772 -10.4930 -10.4353 -10.4335   0.7897   0.7907
     0.9593   1.1014   1.1180   1.1418   1.1573   1.1590   1.2656   1.2761
     1.3361   1.5409   1.6234   1.6610   1.6684   1.7070   1.8121   1.8623
     1.9210   1.9233   1.9734   2.0000   2.0321   2.0329   2.1959   2.2093
     2.2100   2.2158   2.2981   2.3635   2.6328   2.6505   2.7430   2.9275
     3.2103   3.3658   3.5858   4.0547   4.2705   4.3041   4.3821   4.5174
     4.8361   5.0751   5.5527   5.7621   5.7784   5.8826

     occupation numbers 
     1.0000   1.0000   1.0000   1.0000   1.0000   1.0000   1.0000   1.0000
     1.0000   1.0000   1.0000   1.0000   1.0000   1.0000   1.0000   1.0000
     1.0000   1.0000   1.0000   1.0000   1.0000   1.0000   1.0000   1.0000
     1.0000   1.0000   1.0000   1.0000   1.0000   1.0000   1.0000   1.0000
     1.0000   1.0000   1.0000   1.0000   1.0000   1.0000   1.0000   1.0000
     1.0000   1.0000   1.0000   1.0000   1.0000   1.0000   1.0000   1.0000
     1.0000   1.0000   1.0000   1.0000   1.0000   1.0000

          k = 0.1667 1.2509 0.3367 (  6115 PWs)   bands (ev):

   -10.8712 -10.7845 -10.5676 -10.4946 -10.4645 -10.4559   0.7401   0.7445
     0.9709   1.0085   1.0104   1.0796   1.1500   1.1621   1.1739   1.2413
     1.3025   1.4940   1.5024   1.5202   1.5727   1.5864   1.6745   1.7499
     1.9380   1.9530   1.9768   2.0219   2.0496   2.0552   2.1952   2.1990
     2.2457   2.2805   2.2921   2.3161   2.8292   2.8680   2.9432   2.9929
     3.1580   3.5315   3.7516   4.1092   4.2809   4.3872   4.5926   4.6440
     4.9197   5.0658   5.6461   5.6961   5.7876   5.8374

     occupation numbers 
     1.0000   1.0000   1.0000   1.0000   1.0000   1.0000   1.0000   1.0000
     1.0000   1.0000   1.0000   1.0000   1.0000   1.0000   1.0000   1.0000
     1.0000   1.0000   1.0000   1.0000   1.0000   1.0000   1.0000   1.0000
     1.0000   1.0000   1.0000   1.0000   1.0000   1.0000   1.0000   1.0000
     1.0000   1.0000   1.0000   1.0000   1.0000   1.0000   1.0000   1.0000
     1.0000   1.0000   1.0000   1.0000   1.0000   1.0000   1.0000   1.0000
     1.0000   1.0000   1.0000   1.0000   1.0000   1.0000

          k = 0.1667 1.2509 0.6733 (  6109 PWs)   bands (ev):

   -10.7815 -10.7098 -10.5461 -10.5442 -10.5196 -10.5018   0.6396   0.6488
     0.7584   0.7678   0.8724   0.9118   1.1068   1.1868   1.2196   1.2314
     1.2726   1.3174   1.3737   1.4050   1.4250   1.4735   1.5659   1.5883
     1.9812   2.0314   2.0369   2.0557   2.0603   2.0864   2.1582   2.1638
     2.2254   2.2492   2.3370   2.3877   2.8737   3.0100   3.0535   3.2905
     3.4777   3.4909   3.7861   4.5413   4.6097   4.6583   4.7500   4.8650
     5.1665   5.4089   5.4189   5.5457   5.7013   5.7808

     occupation numbers 
     1.0000   1.0000   1.0000   1.0000   1.0000   1.0000   1.0000   1.0000
     1.0000   1.0000   1.0000   1.0000   1.0000   1.0000   1.0000   1.0000
     1.0000   1.0000   1.0000   1.0000   1.0000   1.0000   1.0000   1.0000
     1.0000   1.0000   1.0000   1.0000   1.0000   1.0000   1.0000   1.0000
     1.0000   1.0000   1.0000   1.0000   1.0000   1.0000   1.0000   1.0000
     1.0000   1.0000   1.0000   1.0000   1.0000   1.0000   1.0000   1.0000
     1.0000   1.0000   1.0000   1.0000   1.0000   1.0000

          k = 0.1667 1.2509-1.0100 (  6116 PWs)   bands (ev):

   -10.6619 -10.6618 -10.6120 -10.6119 -10.5190 -10.5189   0.6146   0.6146
     0.6249   0.6249   0.7997   0.7997   1.2228   1.2228   1.2402   1.2402
     1.2821   1.2821   1.3018   1.3018   1.3535   1.3535   1.5424   1.5424
     2.0106   2.0106   2.1037   2.1037   2.1113   2.1113   2.1433   2.1433
     2.1708   2.1708   2.3946   2.3946   2.9252   2.9252   3.2715   3.2715
     3.5587   3.5587   4.0302   4.0302   5.0439   5.0440   5.1880   5.1880
     5.3640   5.3640   5.3676   5.3677   5.4903   5.4903

     occupation numbers 
     1.0000   1.0000   1.0000   1.0000   1.0000   1.0000   1.0000   1.0000
     1.0000   1.0000   1.0000   1.0000   1.0000   1.0000   1.0000   1.0000
     1.0000   1.0000   1.0000   1.0000   1.0000   1.0000   1.0000   1.0000
     1.0000   1.0000   1.0000   1.0000   1.0000   1.0000   1.0000   1.0000
     1.0000   1.0000   1.0000   1.0000   1.0000   1.0000   1.0000   1.0000
     1.0000   1.0000   1.0000   1.0000   1.0000   1.0000   1.0000   1.0000
     1.0000   1.0000   1.0000   1.0000   1.0000   1.0000

          k = 0.1667-1.6358 0.0000 (  6122 PWs)   bands (ev):

   -10.6937 -10.6892 -10.6867 -10.4511 -10.4494 -10.4463   0.8169   0.8459
     0.9540   1.0431   1.1425   1.1673   1.1827   1.2409   1.3099   1.3526
     1.3916   1.4347   1.5362   1.5905   1.7479   1.7507   1.7622   1.8258
     1.9261   1.9677   1.9865   1.9963   2.0644   2.0963   2.2228   2.2242
     2.2254   2.2747   2.3120   2.3992   2.6682   2.7461   2.7947   3.1999
     3.2296   3.2662   3.6755   3.7088   3.7217   3.9661   4.0341   4.0558
     5.2302   5.2396   5.2484   5.3332   5.5541   5.6562

     occupation numbers 
     1.0000   1.0000   1.0000   1.0000   1.0000   1.0000   1.0000   1.0000
     1.0000   1.0000   1.0000   1.0000   1.0000   1.0000   1.0000   1.0000
     1.0000   1.0000   1.0000   1.0000   1.0000   1.0000   1.0000   1.0000
     1.0000   1.0000   1.0000   1.0000   1.0000   1.0000   1.0000   1.0000
     1.0000   1.0000   1.0000   1.0000   1.0000   1.0000   1.0000   1.0000
     1.0000   1.0000   1.0000   1.0000   1.0000   1.0000   1.0000   1.0000
     1.0000   1.0000   1.0000   1.0000   1.0000   1.0000

          k = 0.1667-1.6358 0.3367 (  6129 PWs)   bands (ev):

   -10.6738 -10.6697 -10.6675 -10.4631 -10.4617 -10.4592   0.7620   0.7941
     0.9145   0.9887   1.0152   1.0544   1.1764   1.1932   1.2341   1.3302
     1.3823   1.4128   1.4957   1.5300   1.6213   1.6881   1.6924   1.6968
     1.9339   2.0245   2.0593   2.0702   2.0865   2.1014   2.2037   2.2119
     2.2183   2.2756   2.3148   2.3910   2.7353   2.7539   2.7620   3.1628
     3.2452   3.2935   3.6873   3.8511   4.0037   4.2447   4.2665   4.2803
     5.2017   5.3524   5.3870   5.4137   5.4780   5.5608

     occupation numbers 
     1.0000   1.0000   1.0000   1.0000   1.0000   1.0000   1.0000   1.0000
     1.0000   1.0000   1.0000   1.0000   1.0000   1.0000   1.0000   1.0000
     1.0000   1.0000   1.0000   1.0000   1.0000   1.0000   1.0000   1.0000
     1.0000   1.0000   1.0000   1.0000   1.0000   1.0000   1.0000   1.0000
     1.0000   1.0000   1.0000   1.0000   1.0000   1.0000   1.0000   1.0000
     1.0000   1.0000   1.0000   1.0000   1.0000   1.0000   1.0000   1.0000
     1.0000   1.0000   1.0000   1.0000   1.0000   1.0000

          k = 0.1667-1.6358 0.6733 (  6133 PWs)   bands (ev):

   -10.6216 -10.6188 -10.6173 -10.4989 -10.4983 -10.4973   0.6492   0.6826
     0.7444   0.7780   0.7837   0.8374   1.1851   1.2336   1.2670   1.2999
     1.3588   1.3840   1.4316   1.4498   1.4730   1.5337   1.5499   1.5568
     2.0194   2.0758   2.0899   2.1056   2.1095   2.1269   2.1979   2.2185
     2.2338   2.2669   2.2967   2.3434   2.7752   2.8079   2.9341   3.0150
     3.1029   3.2605   3.9331   4.2510   4.4389   4.7802   4.8218   4.8742
     4.9912   5.1280   5.2681   5.5731   5.5881   5.6019

     occupation numbers 
     1.0000   1.0000   1.0000   1.0000   1.0000   1.0000   1.0000   1.0000
     1.0000   1.0000   1.0000   1.0000   1.0000   1.0000   1.0000   1.0000
     1.0000   1.0000   1.0000   1.0000   1.0000   1.0000   1.0000   1.0000
     1.0000   1.0000   1.0000   1.0000   1.0000   1.0000   1.0000   1.0000
     1.0000   1.0000   1.0000   1.0000   1.0000   1.0000   1.0000   1.0000
     1.0000   1.0000   1.0000   1.0000   1.0000   1.0000   1.0000   1.0000
     1.0000   1.0000   1.0000   1.0000   1.0000   1.0000

          k = 0.1667-1.6358-1.0100 (  6102 PWs)   bands (ev):

   -10.5559 -10.5558 -10.5550 -10.5550 -10.5546 -10.5545   0.6104   0.6104
     0.6455   0.6456   0.7217   0.7217   1.2524   1.2524   1.3238   1.3238
     1.3641   1.3641   1.4214   1.4215   1.4330   1.4330   1.4399   1.4399
     2.0725   2.0725   2.1009   2.1009   2.1229   2.1230   2.2384   2.2384
     2.2576   2.2576   2.2828   2.2828   2.8763   2.8763   2.9451   2.9451
     3.1056   3.1056   4.3874   4.3875   4.7034   4.7035   4.8735   4.8736
     5.3800   5.3800   5.4175   5.4175   5.4569   5.4570

     occupation numbers 
     1.0000   1.0000   1.0000   1.0000   1.0000   1.0000   1.0000   1.0000
     1.0000   1.0000   1.0000   1.0000   1.0000   1.0000   1.0000   1.0000
     1.0000   1.0000   1.0000   1.0000   1.0000   1.0000   1.0000   1.0000
     1.0000   1.0000   1.0000   1.0000   1.0000   1.0000   1.0000   1.0000
     1.0000   1.0000   1.0000   1.0000   1.0000   1.0000   1.0000   1.0000
     1.0000   1.0000   1.0000   1.0000   1.0000   1.0000   1.0000   1.0000
     1.0000   1.0000   1.0000   1.0000   1.0000   1.0000

          k = 0.1667-0.4811 0.0000 (  6105 PWs)   bands (ev):

   -11.1601 -10.8515 -10.7659 -10.4792 -10.4353 -10.4323   0.8727   0.8898
     0.8974   1.0142   1.0408   1.0443   1.0674   1.1962   1.2071   1.2449
     1.2878   1.3011   1.3236   1.5022   1.5996   1.6761   1.7624   1.7739
     1.8749   1.9116   1.9310   1.9433   1.9909   1.9926   2.1876   2.2133
     2.2196   2.2359   2.3503   2.3896   2.4166   2.6385   2.6562   3.4156
     3.6782   3.8910   3.8928   4.0102   4.3612   4.8092   5.0734   5.4343
     5.4436   5.5324   5.6551   5.6711   6.2057   6.2516

     occupation numbers 
     1.0000   1.0000   1.0000   1.0000   1.0000   1.0000   1.0000   1.0000
     1.0000   1.0000   1.0000   1.0000   1.0000   1.0000   1.0000   1.0000
     1.0000   1.0000   1.0000   1.0000   1.0000   1.0000   1.0000   1.0000
     1.0000   1.0000   1.0000   1.0000   1.0000   1.0000   1.0000   1.0000
     1.0000   1.0000   1.0000   1.0000   1.0000   1.0000   1.0000   1.0000
     1.0000   1.0000   1.0000   1.0000   1.0000   1.0000   1.0000   1.0000
     1.0000   1.0000   1.0000   1.0000   1.0000   1.0000

          k = 0.1667-0.4811 0.3367 (  6109 PWs)   bands (ev):

[...]
     1.0000   1.0000   1.0000   1.0000   1.0000   1.0000   1.0000   1.0000
     1.0000   1.0000   1.0000   1.0000   1.0000   1.0000   1.0000   1.0000
     1.0000   1.0000   1.0000   1.0000   1.0000   1.0000   1.0000   1.0000
     1.0000   1.0000   1.0000   1.0000   1.0000   1.0000   1.0000   1.0000
     1.0000   1.0000   1.0000   1.0000   1.0000   1.0000   1.0000   1.0000
     1.0000   1.0000   1.0000   1.0000   1.0000   1.0000   1.0000   1.0000
     1.0000   1.0000   1.0000   1.0000   1.0000   1.0000

          k =-1.3333 0.9623-0.3367 (  6129 PWs)   bands (ev):

   -10.6738 -10.6697 -10.6675 -10.4631 -10.4617 -10.4592   0.7620   0.7941
     0.9145   0.9887   1.0152   1.0544   1.1764   1.1932   1.2341   1.3302
     1.3823   1.4128   1.4957   1.5300   1.6213   1.6881   1.6924   1.6968
     1.9339   2.0245   2.0593   2.0702   2.0865   2.1014   2.2037   2.2119
     2.2183   2.2756   2.3148   2.3910   2.7353   2.7539   2.7620   3.1628
     3.2452   3.2935   3.6873   3.8511   4.0037   4.2447   4.2665   4.2803
     5.2017   5.3524   5.3870   5.4137   5.4780   5.5608

     occupation numbers 
     1.0000   1.0000   1.0000   1.0000   1.0000   1.0000   1.0000   1.0000
     1.0000   1.0000   1.0000   1.0000   1.0000   1.0000   1.0000   1.0000
     1.0000   1.0000   1.0000   1.0000   1.0000   1.0000   1.0000   1.0000
     1.0000   1.0000   1.0000   1.0000   1.0000   1.0000   1.0000   1.0000
     1.0000   1.0000   1.0000   1.0000   1.0000   1.0000   1.0000   1.0000
     1.0000   1.0000   1.0000   1.0000   1.0000   1.0000   1.0000   1.0000
     1.0000   1.0000   1.0000   1.0000   1.0000   1.0000

          k =-1.3333 0.9623-0.6733 (  6133 PWs)   bands (ev):

   -10.6216 -10.6188 -10.6173 -10.4989 -10.4983 -10.4973   0.6492   0.6826
     0.7444   0.7780   0.7837   0.8374   1.1851   1.2336   1.2670   1.2999
     1.3588   1.3840   1.4316   1.4498   1.4730   1.5337   1.5499   1.5568
     2.0194   2.0758   2.0899   2.1056   2.1095   2.1269   2.1979   2.2185
     2.2338   2.2669   2.2967   2.3434   2.7752   2.8079   2.9341   3.0150
     3.1029   3.2605   3.9331   4.2510   4.4389   4.7802   4.8218   4.8742
     4.9912   5.1280   5.2681   5.5731   5.5881   5.6019

     occupation numbers 
     1.0000   1.0000   1.0000   1.0000   1.0000   1.0000   1.0000   1.0000
     1.0000   1.0000   1.0000   1.0000   1.0000   1.0000   1.0000   1.0000
     1.0000   1.0000   1.0000   1.0000   1.0000   1.0000   1.0000   1.0000
     1.0000   1.0000   1.0000   1.0000   1.0000   1.0000   1.0000   1.0000
     1.0000   1.0000   1.0000   1.0000   1.0000   1.0000   1.0000   1.0000
     1.0000   1.0000   1.0000   1.0000   1.0000   1.0000   1.0000   1.0000
     1.0000   1.0000   1.0000   1.0000   1.0000   1.0000

          k =-0.3333 0.3849-0.3367 (  6109 PWs)   bands (ev):

   -11.1151 -10.8212 -10.7409 -10.5250 -10.4577 -10.4542   0.8159   0.8349
     0.8528   0.9713   0.9954   1.0258   1.0555   1.1075   1.1869   1.2060
     1.2496   1.2715   1.2874   1.2914   1.5196   1.5540   1.5614   1.6320
     1.9165   1.9353   1.9444   1.9684   2.0473   2.0682   2.1795   2.2002
     2.2051   2.2073   2.3142   2.3611   2.8144   2.8602   2.9271   3.4983
     3.7597   4.0089   4.0901   4.1550   4.3409   4.8913   5.0811   5.3075
     5.4069   5.5620   5.5838   5.7542   6.1376   6.2110

     occupation numbers 
     1.0000   1.0000   1.0000   1.0000   1.0000   1.0000   1.0000   1.0000
     1.0000   1.0000   1.0000   1.0000   1.0000   1.0000   1.0000   1.0000
     1.0000   1.0000   1.0000   1.0000   1.0000   1.0000   1.0000   1.0000
     1.0000   1.0000   1.0000   1.0000   1.0000   1.0000   1.0000   1.0000
     1.0000   1.0000   1.0000   1.0000   1.0000   1.0000   1.0000   1.0000
     1.0000   1.0000   1.0000   1.0000   1.0000   1.0000   1.0000   1.0000
     1.0000   1.0000   1.0000   1.0000   1.0000   1.0000

          k =-0.3333 0.3849-0.6733 (  6110 PWs)   bands (ev):

   -10.9914 -10.7398 -10.6744 -10.6503 -10.5294 -10.5084   0.6987   0.7148
     0.7463   0.7875   0.8009   0.8035   1.0600   1.0814   1.1709   1.1832
     1.2028   1.2049   1.2143   1.2590   1.3456   1.4084   1.4454   1.4995
     2.0208   2.0215   2.0275   2.0293   2.0815   2.0970   2.1503   2.1687
     2.1737   2.1949   2.2499   2.2894   3.0389   3.2378   3.4285   3.5903
     3.6856   4.2549   4.5131   4.7255   4.7281   4.7856   5.1215   5.1859
     5.2868   5.4219   5.6836   5.7655   5.9483   5.9793

     occupation numbers 
     1.0000   1.0000   1.0000   1.0000   1.0000   1.0000   1.0000   1.0000
     1.0000   1.0000   1.0000   1.0000   1.0000   1.0000   1.0000   1.0000
     1.0000   1.0000   1.0000   1.0000   1.0000   1.0000   1.0000   1.0000
     1.0000   1.0000   1.0000   1.0000   1.0000   1.0000   1.0000   1.0000
     1.0000   1.0000   1.0000   1.0000   1.0000   1.0000   1.0000   1.0000
     1.0000   1.0000   1.0000   1.0000   1.0000   1.0000   1.0000   1.0000
     1.0000   1.0000   1.0000   1.0000   1.0000   1.0000

          k = 0.3333 0.1925-0.3367 (  6111 PWs)   bands (ev):

   -11.1526 -11.0123 -10.6903 -10.5376 -10.4944 -10.4598   0.7442   0.7821
     0.8789   0.9964   1.0281   1.0295   1.0352   1.0950   1.1054   1.1494
     1.1993   1.2380   1.2487   1.3652   1.3922   1.3963   1.4967   1.6703
     1.9276   1.9535   1.9675   1.9810   2.0530   2.0976   2.1762   2.1874
     2.1913   2.1988   2.2361   2.2985   2.7249   2.8332   2.9302   3.2362
     4.0749   4.2419   4.2742   4.7613   4.9600   5.0967   5.3238   5.4080
     5.4497   5.6216   6.0115   6.0649   6.2007   6.2488

     occupation numbers 
     1.0000   1.0000   1.0000   1.0000   1.0000   1.0000   1.0000   1.0000
     1.0000   1.0000   1.0000   1.0000   1.0000   1.0000   1.0000   1.0000
     1.0000   1.0000   1.0000   1.0000   1.0000   1.0000   1.0000   1.0000
     1.0000   1.0000   1.0000   1.0000   1.0000   1.0000   1.0000   1.0000
     1.0000   1.0000   1.0000   1.0000   1.0000   1.0000   1.0000   1.0000
     1.0000   1.0000   1.0000   1.0000   1.0000   1.0000   1.0000   1.0000
     1.0000   1.0000   1.0000   1.0000   1.0000   1.0000

          k = 0.3333 0.1925-0.6733 (  6120 PWs)   bands (ev):

   -11.0244 -10.9018 -10.6690 -10.6349 -10.6022 -10.5014   0.6334   0.6868
     0.7332   0.7680   0.7848   0.8082   1.0456   1.0563   1.1196   1.1400
     1.1522   1.1714   1.2294   1.2755   1.2872   1.3641   1.4180   1.5437
     2.0186   2.0239   2.0274   2.0331   2.1099   2.1389   2.1491   2.1526
     2.1600   2.1608   2.1916   2.2631   2.7963   3.0919   3.5400   3.5867
     4.2980   4.5708   4.7493   4.8438   4.8822   5.1953   5.3544   5.3554
     5.5171   5.5893   5.8006   5.8790   6.0154   6.0235

     occupation numbers 
     1.0000   1.0000   1.0000   1.0000   1.0000   1.0000   1.0000   1.0000
     1.0000   1.0000   1.0000   1.0000   1.0000   1.0000   1.0000   1.0000
     1.0000   1.0000   1.0000   1.0000   1.0000   1.0000   1.0000   1.0000
     1.0000   1.0000   1.0000   1.0000   1.0000   1.0000   1.0000   1.0000
     1.0000   1.0000   1.0000   1.0000   1.0000   1.0000   1.0000   1.0000
     1.0000   1.0000   1.0000   1.0000   1.0000   1.0000   1.0000   1.0000
     1.0000   1.0000   1.0000   1.0000   1.0000   1.0000

          k = 1.3333-0.3849-0.3367 (  6119 PWs)   bands (ev):

   -10.8954 -10.7294 -10.6171 -10.4728 -10.4682 -10.4553   0.7785   0.7828
     0.9160   0.9943   1.0256   1.0621   1.1432   1.1786   1.1962   1.2242
     1.3276   1.4317   1.4757   1.4812   1.5389   1.6276   1.6429   1.7370
     1.9204   1.9672   1.9782   2.0182   2.0637   2.0741   2.1944   2.2049
     2.2319   2.2759   2.3340   2.3484   2.7623   2.7826   2.9641   3.1548
     3.4002   3.4327   3.9228   4.0123   4.2238   4.2637   4.4433   4.6272
     5.0680   5.2582   5.4817   5.5722   5.7540   5.8885

     occupation numbers 
     1.0000   1.0000   1.0000   1.0000   1.0000   1.0000   1.0000   1.0000
     1.0000   1.0000   1.0000   1.0000   1.0000   1.0000   1.0000   1.0000
     1.0000   1.0000   1.0000   1.0000   1.0000   1.0000   1.0000   1.0000
     1.0000   1.0000   1.0000   1.0000   1.0000   1.0000   1.0000   1.0000
     1.0000   1.0000   1.0000   1.0000   1.0000   1.0000   1.0000   1.0000
     1.0000   1.0000   1.0000   1.0000   1.0000   1.0000   1.0000   1.0000
     1.0000   1.0000   1.0000   1.0000   1.0000   1.0000

          k = 1.3333-0.3849-0.6733 (  6103 PWs)   bands (ev):

   -10.8019 -10.6654 -10.5790 -10.5546 -10.5066 -10.4954   0.6739   0.6759
     0.7781   0.7811   0.8024   0.8739   1.1536   1.1576   1.1998   1.2250
     1.2980   1.2990   1.3725   1.3875   1.4140   1.5104   1.5203   1.5649
     2.0158   2.0206   2.0522   2.0593   2.0687   2.1023   2.1605   2.1874
     2.2220   2.2805   2.2824   2.3690   2.8447   2.9467   3.0933   3.3302
     3.3756   3.7420   3.9058   4.3722   4.6892   4.7066   4.7993   4.8328
     5.0467   5.2188   5.5034   5.5126   5.6602   5.8190

     occupation numbers 
     1.0000   1.0000   1.0000   1.0000   1.0000   1.0000   1.0000   1.0000
     1.0000   1.0000   1.0000   1.0000   1.0000   1.0000   1.0000   1.0000
     1.0000   1.0000   1.0000   1.0000   1.0000   1.0000   1.0000   1.0000
     1.0000   1.0000   1.0000   1.0000   1.0000   1.0000   1.0000   1.0000
     1.0000   1.0000   1.0000   1.0000   1.0000   1.0000   1.0000   1.0000
     1.0000   1.0000   1.0000   1.0000   1.0000   1.0000   1.0000   1.0000
     1.0000   1.0000   1.0000   1.0000   1.0000   1.0000

     highest occupied level (ev):     6.3948

!    total energy              =   -1084.87713258 Ry
     estimated scf accuracy    <          1.1E-09 Ry

     The total energy is the sum of the following terms:
     one-electron contribution =    -478.28358061 Ry
     hartree contribution      =     360.54222474 Ry
     xc contribution           =    -328.46381338 Ry
     ewald contribution        =    -638.67196332 Ry

     convergence has been achieved in  39 iterations

     Forces acting on atoms (cartesian axes, Ry/au):

     atom    1 type  1   force =     0.00001361    0.00000786   -0.02913029
     atom    2 type  1   force =     0.00000045    0.00000026   -0.02913975
     atom    3 type  2   force =    -0.00000008   -0.00000005    0.02913298
     atom    4 type  2   force =     0.00000018    0.00000010    0.02913411
     atom    5 type  1   force =    -0.00000607   -0.00000350   -0.02913114
     atom    6 type  1   force =    -0.00001674   -0.00000967   -0.02913629
     atom    7 type  2   force =    -0.00000096   -0.00000056    0.02913365
     atom    8 type  2   force =    -0.00000057   -0.00000033    0.02913375
     atom    9 type  1   force =     0.00001583    0.00000914   -0.02912807
     atom   10 type  1   force =    -0.00000563   -0.00000325   -0.02913744
     atom   11 type  2   force =    -0.00000009   -0.00000005    0.02913303
     atom   12 type  2   force =     0.00000006    0.00000003    0.02913546
     The non-local contrib.  to forces
     atom    1 type  1   force =     0.00000478    0.00000276   -0.24345623
     atom    2 type  1   force =     0.00000229    0.00000132   -0.24345622
     atom    3 type  2   force =    -0.00018186   -0.00010500   -0.18957556
     atom    4 type  2   force =     0.00017909    0.00010340   -0.18957225
     atom    5 type  1   force =    -0.00000405   -0.00000234   -0.24345493
     atom    6 type  1   force =    -0.00000521   -0.00000301   -0.24345707
     atom    7 type  2   force =    -0.00018021   -0.00010404   -0.18957355
     atom    8 type  2   force =     0.00018232    0.00010526   -0.18957260
     atom    9 type  1   force =     0.00000240    0.00000139   -0.24345650
     atom   10 type  1   force =     0.00000086    0.00000050   -0.24345471
     atom   11 type  2   force =    -0.00018338   -0.00010588   -0.18957363
     atom   12 type  2   force =     0.00018220    0.00010520   -0.18957154
     The ionic contribution  to forces
     atom    1 type  1   force =     0.00000001    0.00000001   -1.61646319
     atom    2 type  1   force =     0.00000001    0.00000000   -1.61646319
     atom    3 type  2   force =     0.00000000    0.00000000    1.61646319
     atom    4 type  2   force =     0.00000000    0.00000000    1.61646319
     atom    5 type  1   force =    -0.00000001    0.00000000   -1.61646320
     atom    6 type  1   force =     0.00000001   -0.00000000   -1.61646320
     atom    7 type  2   force =    -0.00000001    0.00000000    1.61646320
     atom    8 type  2   force =     0.00000001   -0.00000000    1.61646320
     atom    9 type  1   force =    -0.00000001   -0.00000000   -1.61646319
     atom   10 type  1   force =    -0.00000001   -0.00000001   -1.61646319
     atom   11 type  2   force =    -0.00000000   -0.00000000    1.61646319
     atom   12 type  2   force =    -0.00000000   -0.00000000    1.61646319
     The local contribution  to forces
     atom    1 type  1   force =    -0.00000192   -0.00000111    1.81299305
     atom    2 type  1   force =    -0.00001993   -0.00001156    1.81300995
     atom    3 type  2   force =     0.00017928    0.00010351   -1.39920441
     atom    4 type  2   force =    -0.00018374   -0.00010610   -1.39920251
     atom    5 type  1   force =     0.00002847    0.00001654    1.81299641
     atom    6 type  1   force =     0.00000390    0.00000215    1.81300252
     atom    7 type  2   force =     0.00018786    0.00010849   -1.39920362
     atom    8 type  2   force =    -0.00017527   -0.00010122   -1.39920644
     atom    9 type  1   force =     0.00000129    0.00000080    1.81299200
     atom   10 type  1   force =    -0.00001381   -0.00000797    1.81300876
     atom   11 type  2   force =     0.00017565    0.00010143   -1.39921012
     atom   12 type  2   force =    -0.00018185   -0.00010499   -1.39920230
     The core correction contribution to forces
     atom    1 type  1   force =    -0.00000367   -0.00000203    0.01779568
     atom    2 type  1   force =     0.00000403    0.00000232    0.01779484
     atom    3 type  2   force =     0.00000208    0.00000119    0.00144210
     atom    4 type  2   force =    -0.00000202   -0.00000116    0.00144206
     atom    5 type  1   force =    -0.00000425   -0.00000247    0.01779534
     atom    6 type  1   force =     0.00000373    0.00000217    0.01779527
     atom    7 type  2   force =     0.00000207    0.00000119    0.00144208
     atom    8 type  2   force =    -0.00000209   -0.00000120    0.00144205
     atom    9 type  1   force =    -0.00000382   -0.00000220    0.01779569
     atom   10 type  1   force =     0.00000392    0.00000218    0.01779471
     atom   11 type  2   force =     0.00000207    0.00000119    0.00144205
     atom   12 type  2   force =    -0.00000208   -0.00000119    0.00144205
     The Hubbard contrib.    to forces
     atom    1 type  1   force =     0.00000000    0.00000000    0.00000000
     atom    2 type  1   force =     0.00000000    0.00000000    0.00000000
     atom    3 type  2   force =     0.00000000    0.00000000    0.00000000
     atom    4 type  2   force =     0.00000000    0.00000000    0.00000000
     atom    5 type  1   force =     0.00000000    0.00000000    0.00000000
     atom    6 type  1   force =     0.00000000    0.00000000    0.00000000
     atom    7 type  2   force =     0.00000000    0.00000000    0.00000000
     atom    8 type  2   force =     0.00000000    0.00000000    0.00000000
     atom    9 type  1   force =     0.00000000    0.00000000    0.00000000
     atom   10 type  1   force =     0.00000000    0.00000000    0.00000000
     atom   11 type  2   force =     0.00000000    0.00000000    0.00000000
     atom   12 type  2   force =     0.00000000    0.00000000    0.00000000
     The SCF correction term to forces
     atom    1 type  1   force =     0.00001454    0.00000839   -0.00000681
     atom    2 type  1   force =     0.00001425    0.00000823   -0.00003235
     atom    3 type  2   force =     0.00000060    0.00000035    0.00000044
     atom    4 type  2   force =     0.00000702    0.00000405   -0.00000361
     atom    5 type  1   force =    -0.00002609   -0.00001506   -0.00001198
     atom    6 type  1   force =    -0.00001896   -0.00001095   -0.00002104
     atom    7 type  2   force =    -0.00001052   -0.00000607   -0.00000167
     atom    8 type  2   force =    -0.00000535   -0.00000309    0.00000033
     atom    9 type  1   force =     0.00001611    0.00000930   -0.00000329
     atom   10 type  1   force =     0.00000362    0.00000209   -0.00003023
     atom   11 type  2   force =     0.00000575    0.00000332    0.00000431
     atom   12 type  2   force =     0.00000195    0.00000113   -0.00000317

     Total force =     0.100923     Total SCF correction =     0.000072

     init_run     :     10.09s CPU     10.32s WALL (       1 calls)
     electrons    :    536.00s CPU    537.42s WALL (       1 calls)
     forces       :      4.74s CPU      4.81s WALL (       1 calls)

     Called by init_run:
     wfcinit      :      3.25s CPU      3.30s WALL (       1 calls)
     wfcinit:atom :      0.03s CPU      0.03s WALL (       4 calls)
     wfcinit:wfcr :      2.97s CPU      3.00s WALL (       4 calls)
     potinit      :      2.36s CPU      2.44s WALL (       1 calls)
     hinit0       :      3.96s CPU      4.01s WALL (       1 calls)

     Called by electrons:
     c_bands      :    447.67s CPU    448.29s WALL (      39 calls)
     sum_band     :     59.44s CPU     60.06s WALL (      39 calls)
     v_of_rho     :     15.58s CPU     15.73s WALL (      40 calls)
     v_h          :      0.81s CPU      0.81s WALL (      40 calls)
     v_xc         :     15.18s CPU     15.37s WALL (      41 calls)
     newd         :      9.70s CPU      9.73s WALL (      40 calls)
     mix_rho      :      2.50s CPU      2.55s WALL (      39 calls)

     Called by c_bands:
     init_us_2    :      3.21s CPU      3.26s WALL (     320 calls)
     init_us_2:cp :      3.21s CPU      3.26s WALL (     320 calls)
     cegterg      :    280.57s CPU    281.08s WALL (     156 calls)

     Called by sum_band:
     sum_band:wei :      0.03s CPU      0.03s WALL (      39 calls)
     sum_band:loo :     36.17s CPU     36.27s WALL (      39 calls)
     sum_band:buf :      0.42s CPU      0.45s WALL (     156 calls)
     sum_band:ini :      1.49s CPU      1.50s WALL (     156 calls)
     sum_band:cal :      6.97s CPU      6.97s WALL (     156 calls)
     sum_band:bec :      0.03s CPU      0.03s WALL (     156 calls)
     addusdens    :      4.84s CPU      5.06s WALL (      39 calls)
     addusd:skk   :      0.03s CPU      0.03s WALL (      78 calls)
     addusd:dgemm :      0.88s CPU      0.89s WALL (      78 calls)
     addusd:qvan2 :      2.21s CPU      2.23s WALL (      78 calls)

     Called by *egterg:
     cdiaghg      :      6.73s CPU      6.74s WALL (     815 calls)
     cegterg:over :     21.32s CPU     21.33s WALL (     659 calls)
     cegterg:upda :     11.58s CPU     11.61s WALL (     659 calls)
     cegterg:last :     25.03s CPU     25.06s WALL (     402 calls)
     h_psi        :    189.45s CPU    189.84s WALL (     819 calls)
     s_psi        :     20.16s CPU     20.17s WALL (     819 calls)
     g_psi        :      1.21s CPU      1.22s WALL (     659 calls)

     Called by h_psi:
     h_psi:calbec :     22.74s CPU     22.76s WALL (     819 calls)
     vloc_psi     :    144.85s CPU    145.18s WALL (     819 calls)
     add_vuspsi   :     20.80s CPU     20.81s WALL (     819 calls)

     General routines
     calbec       :     30.91s CPU     30.92s WALL (     991 calls)
     fft          :      7.69s CPU      7.70s WALL (     529 calls)
     ffts         :      0.66s CPU      0.66s WALL (      79 calls)
     fftw         :    146.13s CPU    146.41s WALL (   57634 calls)
     interpolate  :      1.21s CPU      1.22s WALL (      40 calls)

     Parallel routines

     PWSCF        :   9m13.13s CPU   9m14.87s WALL


   This run was terminated on:  23:21:20  27Aug2025            

=------------------------------------------------------------------------------=
   JOB DONE.
=------------------------------------------------------------------------------=
