
     Program PWSCF v.7.0 starts on 26Aug2025 at 15:56:45 

     This program is part of the open-source Quantum ESPRESSO suite
     for quantum simulation of materials; please cite
         "P. Giannozzi et al., J. Phys.:Condens. Matter 21 395502 (2009);
         "P. Giannozzi et al., J. Phys.:Condens. Matter 29 465901 (2017);
         "P. Giannozzi et al., J. Chem. Phys. 152 154105 (2020);
          URL http://www.quantum-espresso.org", 
     in publications or presentations arising from this work. More details at
     http://www.quantum-espresso.org/quote

     Parallel version (MPI & OpenMP), running on      16 processor cores
     Number of MPI processes:                16
     Threads/MPI process:                     1

     MPI processes distributed on     1 nodes
     K-points division:     npool     =       4
     band groups division:  nbgrp     =       4
     106853 MiB available memory on the printing compute node when the environment starts

     Reading input from /home/jvc/QEspresso7.2/ZnO_database/scripts/cell121.in/ZnO-3.14-1.49-121.in
Warning: card &CELL ignored
Warning: card / ignored
Warning: card &FCP ignored
Warning: card / ignored
Warning: card &RISM ignored
Warning: card / ignored

     Current dimensions of program PWSCF are:
     Max number of different atomic species (ntypx) = 10
     Max number of k-points (npk) =  40000
     Max angular momentum in pseudopotentials (lmaxx) =  4
     file Zn.upf: wavefunction(s)  3D renormalized
     Found identity + (  0.0000 -0.5000  0.0000) symmetry
     This is a supercell, fractional translations are disabled
     Message from routine setup:
     using ibrav=0 with symmetry is DISCOURAGED, use correct ibrav instead

     Subspace diagonalization in iterative solution of the eigenvalue problem:
     a serial algorithm will be used


     G-vector sticks info
     --------------------
     sticks:   dense  smooth     PW     G-vecs:    dense   smooth      PW
     Sum        1929     981    305                72457    25675    4559

     Using Slab Decomposition



     bravais-lattice index     =            0
     lattice parameter (alat)  =       5.9317  a.u.
     unit-cell volume          =     536.8907 (a.u.)^3
     number of atoms/cell      =            8
     number of atomic types    =            2
     number of electrons       =        72.00
     number of Kohn-Sham states=           36
     kinetic-energy cutoff     =      50.0000  Ry
     charge density cutoff     =     400.0000  Ry
     scf convergence threshold =      1.0E-08
     mixing beta               =       0.3000
     number of iterations used =            8  plain     mixing
     Exchange-correlation= PBE
                           (   1   4   3   4   0   0   0)

     celldm(1)=   5.931700  celldm(2)=   0.000000  celldm(3)=   0.000000
     celldm(4)=   0.000000  celldm(5)=   0.000000  celldm(6)=   0.000000

     crystal axes: (cart. coord. in units of alat)
               a(1) = (   1.000000   0.000000   0.000000 )  
               a(2) = (  -1.000000   1.732051   0.000000 )  
               a(3) = (   0.000000   0.000000   1.485210 )  

     reciprocal axes: (cart. coord. in units 2 pi/alat)
               b(1) = (  1.000000  0.577350 -0.000000 )  
               b(2) = (  0.000000  0.577350  0.000000 )  
               b(3) = (  0.000000 -0.000000  0.673306 )  


     PseudoPot. # 1 for Zn read from file:
     /home/jvc/QEspresso7.2/ZnO_database/pseudos/Zn.upf
     MD5 check sum: 7f56cabf9682ed8c977c2f7d0c5985c5
     Pseudo is Ultrasoft + core correction, Zval = 12.0
     Generated using &quot;atomic&quot; code by A. Dal Corso  v.6.2.2
     Using radial grid of 1201 points,  6 beta functions with: 
                l(1) =   0
                l(2) =   0
                l(3) =   1
                l(4) =   1
                l(5) =   2
                l(6) =   2
     Q(r) pseudized with 0 coefficients 


     PseudoPot. # 2 for O  read from file:
     /home/jvc/QEspresso7.2/ZnO_database/pseudos/O.upf
     MD5 check sum: 91400c9766925bcf19f520983a725ff0
     Pseudo is Ultrasoft + core correction, Zval =  6.0
     Generated using &quot;atomic&quot; code by A. Dal Corso  v.6.3MaX
     Using radial grid of 1095 points,  4 beta functions with: 
                l(1) =   0
                l(2) =   0
                l(3) =   1
                l(4) =   1
     Q(r) pseudized with 0 coefficients 


     atomic species   valence    mass     pseudopotential
        Zn            12.00    65.38000     Zn( 1.00)
        O              6.00    15.99900     O ( 1.00)

      2 Sym. Ops. (no inversion) found


                                    s                        frac. trans.

      isym =  1     identity                                     

 cryst.   s( 1) = (     1          0          0      )
                  (     0          1          0      )
                  (     0          0          1      )

 cart.    s( 1) = (  1.0000000  0.0000000  0.0000000 )
                  (  0.0000000  1.0000000  0.0000000 )
                  (  0.0000000  0.0000000  1.0000000 )


      isym =  2     inv. 180 deg rotation - cart. axis [1,0,0]   

 cryst.   s( 2) = (    -1          0          0      )
                  (     2          1          0      )
                  (     0          0          1      )

 cart.    s( 2) = ( -1.0000000  0.0000000  0.0000000 )
                  (  0.0000000  1.0000000  0.0000000 )
                  (  0.0000000  0.0000000  1.0000000 )


   Cartesian axes

     site n.     atom                  positions (alat units)
         1           Zn  tau(   1) = (   0.5000000   0.2886751   0.7435459  )
         2           Zn  tau(   2) = (   0.0000000   0.5773503   0.0009410  )
         3           O   tau(   3) = (   0.5000000   0.2886751   1.3065039  )
         4           O   tau(   4) = (   0.0000000   0.5773503   0.5638991  )
         5           Zn  tau(   5) = (   0.0000000   1.1547005   0.7435459  )
         6           Zn  tau(   6) = (  -0.5000000   1.4433757   0.0009410  )
         7           O   tau(   7) = (   0.0000000   1.1547005   1.3065039  )
         8           O   tau(   8) = (  -0.5000000   1.4433757   0.5638991  )

   Crystallographic axes

     site n.     atom                  positions (cryst. coord.)
         1           Zn  tau(   1) = (  0.6666667  0.1666667  0.5006336  )
         2           Zn  tau(   2) = (  0.3333333  0.3333333  0.0006336  )
         3           O   tau(   3) = (  0.6666667  0.1666667  0.8796764  )
         4           O   tau(   4) = (  0.3333333  0.3333333  0.3796764  )
         5           Zn  tau(   5) = (  0.6666667  0.6666667  0.5006336  )
         6           Zn  tau(   6) = (  0.3333333  0.8333333  0.0006336  )
         7           O   tau(   7) = (  0.6666667  0.6666667  0.8796764  )
         8           O   tau(   8) = (  0.3333333  0.8333333  0.3796764  )

     number of k points=    80
                       cart. coord. in units 2pi/alat
        k(    1) = (   0.0000000   0.0000000   0.0000000), wk =   0.0092593
        k(    2) = (   0.0000000   0.0000000   0.1122176), wk =   0.0185185
        k(    3) = (   0.0000000   0.0000000   0.2244352), wk =   0.0185185
        k(    4) = (   0.0000000   0.0000000  -0.3366528), wk =   0.0092593
        k(    5) = (   0.0000000   0.0962250   0.0000000), wk =   0.0185185
        k(    6) = (   0.0000000   0.0962250   0.1122176), wk =   0.0185185
        k(    7) = (   0.0000000   0.0962250   0.2244352), wk =   0.0185185
        k(    8) = (   0.0000000   0.0962250  -0.3366528), wk =   0.0185185
        k(    9) = (   0.0000000   0.1924501   0.0000000), wk =   0.0185185
        k(   10) = (   0.0000000   0.1924501   0.1122176), wk =   0.0185185
        k(   11) = (   0.0000000   0.1924501   0.2244352), wk =   0.0185185
        k(   12) = (   0.0000000   0.1924501  -0.3366528), wk =   0.0185185
        k(   13) = (   0.0000000  -0.2886751   0.0000000), wk =   0.0092593
        k(   14) = (   0.0000000  -0.2886751   0.1122176), wk =   0.0185185
        k(   15) = (   0.0000000  -0.2886751   0.2244352), wk =   0.0185185
        k(   16) = (   0.0000000  -0.2886751  -0.3366528), wk =   0.0092593
        k(   17) = (   0.1666667   0.0962250   0.0000000), wk =   0.0370370
        k(   18) = (   0.1666667   0.0962250   0.1122176), wk =   0.0370370
        k(   19) = (   0.1666667   0.0962250   0.2244352), wk =   0.0370370
        k(   20) = (   0.1666667   0.0962250  -0.3366528), wk =   0.0370370
        k(   21) = (   0.1666667   0.1924501   0.0000000), wk =   0.0370370
        k(   22) = (   0.1666667   0.1924501   0.1122176), wk =   0.0370370
        k(   23) = (   0.1666667   0.1924501   0.2244352), wk =   0.0370370
        k(   24) = (   0.1666667   0.1924501  -0.3366528), wk =   0.0370370
        k(   25) = (   0.1666667   0.2886751   0.0000000), wk =   0.0185185
        k(   26) = (   0.1666667   0.2886751   0.1122176), wk =   0.0370370
        k(   27) = (   0.1666667   0.2886751   0.2244352), wk =   0.0370370
        k(   28) = (   0.1666667   0.2886751  -0.3366528), wk =   0.0185185
        k(   29) = (   0.1666667   0.0000000   0.0000000), wk =   0.0185185
        k(   30) = (   0.1666667   0.0000000   0.1122176), wk =   0.0370370
        k(   31) = (   0.1666667   0.0000000   0.2244352), wk =   0.0370370
        k(   32) = (   0.1666667   0.0000000  -0.3366528), wk =   0.0185185
        k(   33) = (   0.3333333   0.1924501   0.0000000), wk =   0.0370370
        k(   34) = (   0.3333333   0.1924501   0.1122176), wk =   0.0370370
        k(   35) = (   0.3333333   0.1924501   0.2244352), wk =   0.0370370
        k(   36) = (   0.3333333   0.1924501  -0.3366528), wk =   0.0370370
        k(   37) = (   0.3333333   0.2886751   0.0000000), wk =   0.0185185
        k(   38) = (   0.3333333   0.2886751   0.1122176), wk =   0.0370370
        k(   39) = (   0.3333333   0.2886751   0.2244352), wk =   0.0370370
        k(   40) = (   0.3333333   0.2886751  -0.3366528), wk =   0.0185185
        k(   41) = (   0.3333333  -0.0962250   0.0000000), wk =   0.0370370
        k(   42) = (   0.3333333  -0.0962250   0.1122176), wk =   0.0370370
        k(   43) = (   0.3333333  -0.0962250   0.2244352), wk =   0.0370370
        k(   44) = (   0.3333333  -0.0962250  -0.3366528), wk =   0.0370370
        k(   45) = (   0.3333333  -0.0000000   0.0000000), wk =   0.0185185
        k(   46) = (   0.3333333  -0.0000000   0.1122176), wk =   0.0370370
        k(   47) = (   0.3333333  -0.0000000   0.2244352), wk =   0.0370370
        k(   48) = (   0.3333333  -0.0000000  -0.3366528), wk =   0.0185185
        k(   49) = (  -0.5000000  -0.2886751   0.0000000), wk =   0.0092593
        k(   50) = (  -0.5000000  -0.2886751   0.1122176), wk =   0.0185185
        k(   51) = (  -0.5000000  -0.2886751   0.2244352), wk =   0.0185185
        k(   52) = (  -0.5000000  -0.2886751  -0.3366528), wk =   0.0092593
        k(   53) = (  -0.5000000  -0.1924501   0.0000000), wk =   0.0185185
        k(   54) = (  -0.5000000  -0.1924501   0.1122176), wk =   0.0185185
        k(   55) = (  -0.5000000  -0.1924501   0.2244352), wk =   0.0185185
        k(   56) = (  -0.5000000  -0.1924501  -0.3366528), wk =   0.0185185
        k(   57) = (  -0.5000000  -0.0962250   0.0000000), wk =   0.0185185
        k(   58) = (  -0.5000000  -0.0962250   0.1122176), wk =   0.0185185
        k(   59) = (  -0.5000000  -0.0962250   0.2244352), wk =   0.0185185
        k(   60) = (  -0.5000000  -0.0962250  -0.3366528), wk =   0.0185185
        k(   61) = (  -0.5000000  -0.5773503   0.0000000), wk =   0.0092593
        k(   62) = (  -0.5000000  -0.5773503   0.1122176), wk =   0.0185185
        k(   63) = (  -0.5000000  -0.5773503   0.2244352), wk =   0.0185185
        k(   64) = (  -0.5000000  -0.5773503  -0.3366528), wk =   0.0092593
        k(   65) = (   0.0000000   0.0962250  -0.1122176), wk =   0.0185185
        k(   66) = (   0.0000000   0.0962250  -0.2244352), wk =   0.0185185
        k(   67) = (   0.0000000   0.1924501  -0.1122176), wk =   0.0185185
        k(   68) = (   0.0000000   0.1924501  -0.2244352), wk =   0.0185185
        k(   69) = (  -0.1666667   0.0962250  -0.1122176), wk =   0.0370370
        k(   70) = (  -0.1666667   0.0962250  -0.2244352), wk =   0.0370370
        k(   71) = (  -0.1666667   0.1924501  -0.1122176), wk =   0.0370370
        k(   72) = (  -0.1666667   0.1924501  -0.2244352), wk =   0.0370370
        k(   73) = (  -0.3333333   0.1924501  -0.1122176), wk =   0.0370370
        k(   74) = (  -0.3333333   0.1924501  -0.2244352), wk =   0.0370370
        k(   75) = (  -0.3333333  -0.0962250  -0.1122176), wk =   0.0370370
        k(   76) = (  -0.3333333  -0.0962250  -0.2244352), wk =   0.0370370
        k(   77) = (   0.5000000  -0.1924501  -0.1122176), wk =   0.0185185
        k(   78) = (   0.5000000  -0.1924501  -0.2244352), wk =   0.0185185
        k(   79) = (   0.5000000  -0.0962250  -0.1122176), wk =   0.0185185
        k(   80) = (   0.5000000  -0.0962250  -0.2244352), wk =   0.0185185

                       cryst. coord.
        k(    1) = (   0.0000000   0.0000000   0.0000000), wk =   0.0092593
        k(    2) = (   0.0000000   0.0000000   0.1666667), wk =   0.0185185
        k(    3) = (   0.0000000   0.0000000   0.3333333), wk =   0.0185185
        k(    4) = (   0.0000000   0.0000000  -0.5000000), wk =   0.0092593
        k(    5) = (   0.0000000   0.1666667   0.0000000), wk =   0.0185185
        k(    6) = (   0.0000000   0.1666667   0.1666667), wk =   0.0185185
        k(    7) = (   0.0000000   0.1666667   0.3333333), wk =   0.0185185
        k(    8) = (   0.0000000   0.1666667  -0.5000000), wk =   0.0185185
        k(    9) = (   0.0000000   0.3333333   0.0000000), wk =   0.0185185
        k(   10) = (   0.0000000   0.3333333   0.1666667), wk =   0.0185185
        k(   11) = (   0.0000000   0.3333333   0.3333333), wk =   0.0185185
        k(   12) = (   0.0000000   0.3333333  -0.5000000), wk =   0.0185185
        k(   13) = (   0.0000000  -0.5000000   0.0000000), wk =   0.0092593
        k(   14) = (   0.0000000  -0.5000000   0.1666667), wk =   0.0185185
        k(   15) = (   0.0000000  -0.5000000   0.3333333), wk =   0.0185185
        k(   16) = (   0.0000000  -0.5000000  -0.5000000), wk =   0.0092593
        k(   17) = (   0.1666667  -0.0000000   0.0000000), wk =   0.0370370
        k(   18) = (   0.1666667  -0.0000000   0.1666667), wk =   0.0370370
        k(   19) = (   0.1666667  -0.0000000   0.3333333), wk =   0.0370370
        k(   20) = (   0.1666667  -0.0000000  -0.5000000), wk =   0.0370370
        k(   21) = (   0.1666667   0.1666667   0.0000000), wk =   0.0370370
        k(   22) = (   0.1666667   0.1666667   0.1666667), wk =   0.0370370
        k(   23) = (   0.1666667   0.1666667   0.3333333), wk =   0.0370370
        k(   24) = (   0.1666667   0.1666667  -0.5000000), wk =   0.0370370
        k(   25) = (   0.1666667   0.3333333   0.0000000), wk =   0.0185185
        k(   26) = (   0.1666667   0.3333333   0.1666667), wk =   0.0370370
        k(   27) = (   0.1666667   0.3333333   0.3333333), wk =   0.0370370
        k(   28) = (   0.1666667   0.3333333  -0.5000000), wk =   0.0185185
        k(   29) = (   0.1666667  -0.1666667   0.0000000), wk =   0.0185185
        k(   30) = (   0.1666667  -0.1666667   0.1666667), wk =   0.0370370
        k(   31) = (   0.1666667  -0.1666667   0.3333333), wk =   0.0370370
        k(   32) = (   0.1666667  -0.1666667  -0.5000000), wk =   0.0185185
        k(   33) = (   0.3333333  -0.0000000   0.0000000), wk =   0.0370370
        k(   34) = (   0.3333333  -0.0000000   0.1666667), wk =   0.0370370
        k(   35) = (   0.3333333  -0.0000000   0.3333333), wk =   0.0370370
        k(   36) = (   0.3333333  -0.0000000  -0.5000000), wk =   0.0370370
        k(   37) = (   0.3333333   0.1666667   0.0000000), wk =   0.0185185
        k(   38) = (   0.3333333   0.1666667   0.1666667), wk =   0.0370370
        k(   39) = (   0.3333333   0.1666667   0.3333333), wk =   0.0370370
        k(   40) = (   0.3333333   0.1666667  -0.5000000), wk =   0.0185185
        k(   41) = (   0.3333333  -0.5000000   0.0000000), wk =   0.0370370
        k(   42) = (   0.3333333  -0.5000000   0.1666667), wk =   0.0370370
        k(   43) = (   0.3333333  -0.5000000   0.3333333), wk =   0.0370370
        k(   44) = (   0.3333333  -0.5000000  -0.5000000), wk =   0.0370370
        k(   45) = (   0.3333333  -0.3333333   0.0000000), wk =   0.0185185
        k(   46) = (   0.3333333  -0.3333333   0.1666667), wk =   0.0370370
        k(   47) = (   0.3333333  -0.3333333   0.3333333), wk =   0.0370370
        k(   48) = (   0.3333333  -0.3333333  -0.5000000), wk =   0.0185185
        k(   49) = (  -0.5000000   0.0000000   0.0000000), wk =   0.0092593
        k(   50) = (  -0.5000000   0.0000000   0.1666667), wk =   0.0185185
        k(   51) = (  -0.5000000   0.0000000   0.3333333), wk =   0.0185185
        k(   52) = (  -0.5000000   0.0000000  -0.5000000), wk =   0.0092593
        k(   53) = (  -0.5000000   0.1666667   0.0000000), wk =   0.0185185
        k(   54) = (  -0.5000000   0.1666667   0.1666667), wk =   0.0185185
        k(   55) = (  -0.5000000   0.1666667   0.3333333), wk =   0.0185185
        k(   56) = (  -0.5000000   0.1666667  -0.5000000), wk =   0.0185185
        k(   57) = (  -0.5000000   0.3333333   0.0000000), wk =   0.0185185
        k(   58) = (  -0.5000000   0.3333333   0.1666667), wk =   0.0185185
        k(   59) = (  -0.5000000   0.3333333   0.3333333), wk =   0.0185185
        k(   60) = (  -0.5000000   0.3333333  -0.5000000), wk =   0.0185185
        k(   61) = (  -0.5000000  -0.5000000   0.0000000), wk =   0.0092593
        k(   62) = (  -0.5000000  -0.5000000   0.1666667), wk =   0.0185185
        k(   63) = (  -0.5000000  -0.5000000   0.3333333), wk =   0.0185185
        k(   64) = (  -0.5000000  -0.5000000  -0.5000000), wk =   0.0092593
        k(   65) = (   0.0000000   0.1666667  -0.1666667), wk =   0.0185185
        k(   66) = (   0.0000000   0.1666667  -0.3333333), wk =   0.0185185
        k(   67) = (   0.0000000   0.3333333  -0.1666667), wk =   0.0185185
        k(   68) = (   0.0000000   0.3333333  -0.3333333), wk =   0.0185185
        k(   69) = (  -0.1666667   0.3333333  -0.1666667), wk =   0.0370370
        k(   70) = (  -0.1666667   0.3333333  -0.3333333), wk =   0.0370370
        k(   71) = (  -0.1666667   0.5000000  -0.1666667), wk =   0.0370370
        k(   72) = (  -0.1666667   0.5000000  -0.3333333), wk =   0.0370370
        k(   73) = (  -0.3333333   0.6666667  -0.1666667), wk =   0.0370370
        k(   74) = (  -0.3333333   0.6666667  -0.3333333), wk =   0.0370370
        k(   75) = (  -0.3333333   0.1666667  -0.1666667), wk =   0.0370370
        k(   76) = (  -0.3333333   0.1666667  -0.3333333), wk =   0.0370370
        k(   77) = (   0.5000000  -0.8333333  -0.1666667), wk =   0.0185185
        k(   78) = (   0.5000000  -0.8333333  -0.3333333), wk =   0.0185185
        k(   79) = (   0.5000000  -0.6666667  -0.1666667), wk =   0.0185185
        k(   80) = (   0.5000000  -0.6666667  -0.3333333), wk =   0.0185185

     Dense  grid:    72457 G-vectors     FFT dimensions: (  40,  75,  60)

     Smooth grid:    25675 G-vectors     FFT dimensions: (  27,  54,  40)

     Dynamical RAM for                 wfc:       1.76 MB

     Dynamical RAM for     wfc (w. buffer):      36.97 MB

     Dynamical RAM for           str. fact:       2.21 MB

     Dynamical RAM for           local pot:       0.00 MB

     Dynamical RAM for          nlocal pot:       5.09 MB

     Dynamical RAM for                qrad:       3.21 MB

     Dynamical RAM for          rho,v,vnew:       7.44 MB

     Dynamical RAM for               rhoin:       2.48 MB

     Dynamical RAM for            rho*nmix:      17.69 MB

     Dynamical RAM for           G-vectors:       4.34 MB

     Dynamical RAM for          h,s,v(r/c):       0.24 MB

     Dynamical RAM for          <psi|beta>:       0.06 MB

     Dynamical RAM for                 psi:       3.52 MB

     Dynamical RAM for                hpsi:       3.52 MB

     Dynamical RAM for                spsi:       3.52 MB

     Dynamical RAM for      wfcinit/wfcrot:       5.15 MB

     Dynamical RAM for           addusdens:      53.34 MB

     Dynamical RAM for          addusforce:      54.74 MB

     Estimated static dynamical RAM per process >      71.92 MB

     Estimated max dynamical RAM per process >     144.35 MB

     Estimated total dynamical RAM >       2.05 GB

     Check: negative core charge=   -0.000001

     Initial potential from superposition of free atoms

     starting charge      71.9851, renormalised to      72.0000
     Starting wfcs are   52 randomized atomic wfcs

     total cpu time spent up to now is        9.1 secs

     per-process dynamical memory:    89.5 Mb

     Self-consistent Calculation

     iteration #  1     ecut=    50.00 Ry     beta= 0.30
     Davidson diagonalization with overlap

---- Real-time Memory Report at c_bands before calling an iterative solver
           118 MiB given to the printing process from OS
            87 MiB allocation reported by mallinfo(arena+hblkhd)
        105024 MiB available memory on the node where the printing process lives
------------------
     ethr =  1.00E-02,  avg # of iterations =  2.0

     total cpu time spent up to now is       17.0 secs

     total energy              =    -722.79448850 Ry
     estimated scf accuracy    <       1.36630006 Ry

     iteration #  2     ecut=    50.00 Ry     beta= 0.30
     Davidson diagonalization with overlap

---- Real-time Memory Report at c_bands before calling an iterative solver
           188 MiB given to the printing process from OS
           112 MiB allocation reported by mallinfo(arena+hblkhd)
        104578 MiB available memory on the node where the printing process lives
------------------
     ethr =  1.90E-03,  avg # of iterations =  2.0

     total cpu time spent up to now is       25.8 secs

     total energy              =    -722.90662189 Ry
     estimated scf accuracy    <       0.24740409 Ry

     iteration #  3     ecut=    50.00 Ry     beta= 0.30
     Davidson diagonalization with overlap

---- Real-time Memory Report at c_bands before calling an iterative solver
           189 MiB given to the printing process from OS
           113 MiB allocation reported by mallinfo(arena+hblkhd)
        104348 MiB available memory on the node where the printing process lives
------------------
     ethr =  3.44E-04,  avg # of iterations =  6.6

     total cpu time spent up to now is       40.2 secs

     total energy              =    -723.03714979 Ry
     estimated scf accuracy    <       0.15175676 Ry

     iteration #  4     ecut=    50.00 Ry     beta= 0.30
     Davidson diagonalization with overlap

---- Real-time Memory Report at c_bands before calling an iterative solver
           192 MiB given to the printing process from OS
           116 MiB allocation reported by mallinfo(arena+hblkhd)
        105128 MiB available memory on the node where the printing process lives
------------------
     ethr =  2.11E-04,  avg # of iterations =  2.0

     total cpu time spent up to now is       48.1 secs

     total energy              =    -723.07993805 Ry
     estimated scf accuracy    <       0.02175807 Ry

     iteration #  5     ecut=    50.00 Ry     beta= 0.30
     Davidson diagonalization with overlap

---- Real-time Memory Report at c_bands before calling an iterative solver
           194 MiB given to the printing process from OS
           117 MiB allocation reported by mallinfo(arena+hblkhd)
        104147 MiB available memory on the node where the printing process lives
------------------
     ethr =  3.02E-05,  avg # of iterations = 11.0

     total cpu time spent up to now is       73.7 secs

     total energy              =    -723.24578815 Ry
     estimated scf accuracy    <       0.99454582 Ry

     iteration #  6     ecut=    50.00 Ry     beta= 0.30
     Davidson diagonalization with overlap

---- Real-time Memory Report at c_bands before calling an iterative solver
           194 MiB given to the printing process from OS
           118 MiB allocation reported by mallinfo(arena+hblkhd)
        104278 MiB available memory on the node where the printing process lives
------------------
     ethr =  3.02E-05,  avg # of iterations =  4.0

     total cpu time spent up to now is       86.6 secs

     total energy              =    -723.18000599 Ry
     estimated scf accuracy    <       0.69044914 Ry

     iteration #  7     ecut=    50.00 Ry     beta= 0.30
     Davidson diagonalization with overlap

---- Real-time Memory Report at c_bands before calling an iterative solver
           195 MiB given to the printing process from OS
           118 MiB allocation reported by mallinfo(arena+hblkhd)
        105269 MiB available memory on the node where the printing process lives
------------------
     ethr =  3.02E-05,  avg # of iterations =  4.2

     total cpu time spent up to now is       99.3 secs

     total energy              =    -722.94270314 Ry
     estimated scf accuracy    <       0.46333472 Ry

     iteration #  8     ecut=    50.00 Ry     beta= 0.30
     Davidson diagonalization with overlap

---- Real-time Memory Report at c_bands before calling an iterative solver
           196 MiB given to the printing process from OS
           119 MiB allocation reported by mallinfo(arena+hblkhd)
        104586 MiB available memory on the node where the printing process lives
------------------
     ethr =  3.02E-05,  avg # of iterations = 10.4

     total cpu time spent up to now is      124.2 secs

     total energy              =    -723.07979301 Ry
     estimated scf accuracy    <       0.02235398 Ry

     iteration #  9     ecut=    50.00 Ry     beta= 0.30
     Davidson diagonalization with overlap

---- Real-time Memory Report at c_bands before calling an iterative solver
           197 MiB given to the printing process from OS
           120 MiB allocation reported by mallinfo(arena+hblkhd)
        104900 MiB available memory on the node where the printing process lives
------------------
     ethr =  3.02E-05,  avg # of iterations =  1.1

     total cpu time spent up to now is      132.9 secs

     total energy              =    -723.07432071 Ry
     estimated scf accuracy    <       0.02440894 Ry

     iteration # 10     ecut=    50.00 Ry     beta= 0.30
     Davidson diagonalization with overlap

---- Real-time Memory Report at c_bands before calling an iterative solver
           198 MiB given to the printing process from OS
           121 MiB allocation reported by mallinfo(arena+hblkhd)
        104670 MiB available memory on the node where the printing process lives
------------------
     ethr =  3.02E-05,  avg # of iterations =  1.0

     total cpu time spent up to now is      141.6 secs

     total energy              =    -723.06816060 Ry
     estimated scf accuracy    <       0.01386089 Ry

     iteration # 11     ecut=    50.00 Ry     beta= 0.30
     Davidson diagonalization with overlap

---- Real-time Memory Report at c_bands before calling an iterative solver
           198 MiB given to the printing process from OS
           121 MiB allocation reported by mallinfo(arena+hblkhd)
        104889 MiB available memory on the node where the printing process lives
------------------
     ethr =  1.93E-05,  avg # of iterations =  3.9

     total cpu time spent up to now is      155.0 secs

     total energy              =    -723.07209294 Ry
     estimated scf accuracy    <       0.00000784 Ry

     iteration # 12     ecut=    50.00 Ry     beta= 0.30
     Davidson diagonalization with overlap

---- Real-time Memory Report at c_bands before calling an iterative solver
           198 MiB given to the printing process from OS
           121 MiB allocation reported by mallinfo(arena+hblkhd)
        104456 MiB available memory on the node where the printing process lives
------------------
     c_bands:  2 eigenvalues not converged
     c_bands:  2 eigenvalues not converged
     c_bands:  1 eigenvalues not converged
     c_bands:  1 eigenvalues not converged
     ethr =  1.09E-08,  avg # of iterations = 14.5

     total cpu time spent up to now is      191.5 secs

     total energy              =    -723.07273677 Ry
     estimated scf accuracy    <       0.00030791 Ry

     iteration # 13     ecut=    50.00 Ry     beta= 0.30
     Davidson diagonalization with overlap

---- Real-time Memory Report at c_bands before calling an iterative solver
           198 MiB given to the printing process from OS
           121 MiB allocation reported by mallinfo(arena+hblkhd)
        104973 MiB available memory on the node where the printing process lives
------------------
     c_bands:  1 eigenvalues not converged
     ethr =  1.09E-08,  avg # of iterations = 12.5

     total cpu time spent up to now is      222.7 secs

     total energy              =    -723.07283499 Ry
     estimated scf accuracy    <       0.00018502 Ry

     iteration # 14     ecut=    50.00 Ry     beta= 0.30
     Davidson diagonalization with overlap

---- Real-time Memory Report at c_bands before calling an iterative solver
           198 MiB given to the printing process from OS
           121 MiB allocation reported by mallinfo(arena+hblkhd)
        104703 MiB available memory on the node where the printing process lives
------------------
     ethr =  1.09E-08,  avg # of iterations =  9.3

     total cpu time spent up to now is      242.4 secs

     total energy              =    -723.07287086 Ry
     estimated scf accuracy    <       0.00000374 Ry

     iteration # 15     ecut=    50.00 Ry     beta= 0.30
     Davidson diagonalization with overlap

---- Real-time Memory Report at c_bands before calling an iterative solver
           198 MiB given to the printing process from OS
           121 MiB allocation reported by mallinfo(arena+hblkhd)
        105337 MiB available memory on the node where the printing process lives
------------------
     ethr =  5.20E-09,  avg # of iterations = 11.9

     total cpu time spent up to now is      266.1 secs

     total energy              =    -723.07288730 Ry
     estimated scf accuracy    <       0.00018282 Ry

     iteration # 16     ecut=    50.00 Ry     beta= 0.30
     Davidson diagonalization with overlap

---- Real-time Memory Report at c_bands before calling an iterative solver
           198 MiB given to the printing process from OS
           121 MiB allocation reported by mallinfo(arena+hblkhd)
        104431 MiB available memory on the node where the printing process lives
------------------
     ethr =  5.20E-09,  avg # of iterations =  6.2

     total cpu time spent up to now is      280.4 secs

     total energy              =    -723.07288344 Ry
     estimated scf accuracy    <       0.00010716 Ry

     iteration # 17     ecut=    50.00 Ry     beta= 0.30
     Davidson diagonalization with overlap

---- Real-time Memory Report at c_bands before calling an iterative solver
           198 MiB given to the printing process from OS
           121 MiB allocation reported by mallinfo(arena+hblkhd)
        104611 MiB available memory on the node where the printing process lives
------------------
     ethr =  5.20E-09,  avg # of iterations =  2.9

     total cpu time spent up to now is      288.9 secs

     total energy              =    -723.07286670 Ry
     estimated scf accuracy    <       0.00009038 Ry

     iteration # 18     ecut=    50.00 Ry     beta= 0.30
     Davidson diagonalization with overlap

---- Real-time Memory Report at c_bands before calling an iterative solver
           198 MiB given to the printing process from OS
           121 MiB allocation reported by mallinfo(arena+hblkhd)
        104444 MiB available memory on the node where the printing process lives
------------------
     ethr =  5.20E-09,  avg # of iterations =  6.6

     total cpu time spent up to now is      304.5 secs

     total energy              =    -723.07286833 Ry
     estimated scf accuracy    <       0.00003207 Ry

     iteration # 19     ecut=    50.00 Ry     beta= 0.30
     Davidson diagonalization with overlap

---- Real-time Memory Report at c_bands before calling an iterative solver
           199 MiB given to the printing process from OS
           121 MiB allocation reported by mallinfo(arena+hblkhd)
        105287 MiB available memory on the node where the printing process lives
------------------
     ethr =  5.20E-09,  avg # of iterations =  1.8

     total cpu time spent up to now is      311.7 secs

     total energy              =    -723.07286380 Ry
     estimated scf accuracy    <       0.00002737 Ry

     iteration # 20     ecut=    50.00 Ry     beta= 0.30
     Davidson diagonalization with overlap

---- Real-time Memory Report at c_bands before calling an iterative solver
           199 MiB given to the printing process from OS
           121 MiB allocation reported by mallinfo(arena+hblkhd)
        104515 MiB available memory on the node where the printing process lives
------------------
     ethr =  5.20E-09,  avg # of iterations =  3.5

     total cpu time spent up to now is      321.0 secs

     total energy              =    -723.07285701 Ry
     estimated scf accuracy    <       0.00001534 Ry

     iteration # 21     ecut=    50.00 Ry     beta= 0.30
     Davidson diagonalization with overlap

---- Real-time Memory Report at c_bands before calling an iterative solver
           199 MiB given to the printing process from OS
           121 MiB allocation reported by mallinfo(arena+hblkhd)
        104510 MiB available memory on the node where the printing process lives
------------------
     ethr =  5.20E-09,  avg # of iterations =  7.3

     total cpu time spent up to now is      337.9 secs

     total energy              =    -723.07286177 Ry
     estimated scf accuracy    <       0.00000062 Ry

     iteration # 22     ecut=    50.00 Ry     beta= 0.30
     Davidson diagonalization with overlap

---- Real-time Memory Report at c_bands before calling an iterative solver
           199 MiB given to the printing process from OS
           121 MiB allocation reported by mallinfo(arena+hblkhd)
        105001 MiB available memory on the node where the printing process lives
------------------
     ethr =  8.59E-10,  avg # of iterations =  3.9

     total cpu time spent up to now is      348.3 secs

     End of self-consistent calculation

          k = 0.0000 0.0000 0.0000 (  3201 PWs)   bands (ev):

    -9.4919  -8.5644  -8.2881  -8.1905   3.0511   3.1852   3.2684   3.5323
     3.5325   3.5629   3.8018   3.8448   3.8449   3.9836   4.3442   4.6246
     5.2288   5.2289   5.2982   5.5154   5.6206   5.6206   5.7051   5.7654
     5.9327   6.2289   6.3564   6.9763   7.0328   8.8046   8.9285   8.9287
     9.2506  10.1956  10.1958  10.2401

     occupation numbers 
     1.0000   1.0000   1.0000   1.0000   1.0000   1.0000   1.0000   1.0000
     1.0000   1.0000   1.0000   1.0000   1.0000   1.0000   1.0000   1.0000
     1.0000   1.0000   1.0000   1.0000   1.0000   1.0000   1.0000   1.0000
     1.0000   1.0000   1.0000   1.0000   1.0000   1.0000   1.0000   1.0000
     1.0000   1.0000   1.0000   1.0000

          k = 0.0000 0.0000 0.1122 (  3206 PWs)   bands (ev):

    -9.4152  -8.5319  -8.3721  -8.2070   2.9459   3.0179   3.1236   3.4512
     3.5364   3.5365   3.8042   3.8044   3.8362   3.9475   4.2569   4.5362
     5.2714   5.2715   5.4046   5.5210   5.6146   5.6146   5.6648   5.7666
     6.2381   6.2734   6.3374   7.2387   7.3927   8.9622   9.0151   9.0153
     9.1259   9.7408  10.1146  10.1149

     occupation numbers 
     1.0000   1.0000   1.0000   1.0000   1.0000   1.0000   1.0000   1.0000
     1.0000   1.0000   1.0000   1.0000   1.0000   1.0000   1.0000   1.0000
     1.0000   1.0000   1.0000   1.0000   1.0000   1.0000   1.0000   1.0000
     1.0000   1.0000   1.0000   1.0000   1.0000   1.0000   1.0000   1.0000
     1.0000   1.0000   1.0000   1.0000

          k = 0.0000 0.0000 0.2244 (  3238 PWs)   bands (ev):

    -9.2026  -8.5998  -8.4477  -8.2589   2.7293   2.7296   2.9508   3.1989
     3.5592   3.5593   3.7108   3.7109   3.9360   3.9407   4.1032   4.3312
     5.3764   5.3764   5.5372   5.5680   5.5788   5.5788   5.6049   5.7473
     6.2273   6.2458   7.2145   7.7171   8.1997   8.7774   8.9900   9.1458
     9.2521   9.2523   9.8894   9.8897

     occupation numbers 
     1.0000   1.0000   1.0000   1.0000   1.0000   1.0000   1.0000   1.0000
     1.0000   1.0000   1.0000   1.0000   1.0000   1.0000   1.0000   1.0000
     1.0000   1.0000   1.0000   1.0000   1.0000   1.0000   1.0000   1.0000
     1.0000   1.0000   1.0000   1.0000   1.0000   1.0000   1.0000   1.0000
     1.0000   1.0000   1.0000   1.0000

          k = 0.0000 0.0000-0.3367 (  3236 PWs)   bands (ev):

    -8.9050  -8.9050  -8.3452  -8.3452   2.6126   2.6126   2.9829   2.9829
     3.6181   3.6181   3.6182   3.6183   3.9888   3.9888   4.1123   4.1123
     5.4943   5.4943   5.4943   5.4943   5.5636   5.5636   5.6841   5.6841
     6.2354   6.2354   8.1532   8.1532   8.2742   8.2743   8.8999   8.8999
     9.5739   9.5740   9.5741   9.5742

     occupation numbers 
     1.0000   1.0000   1.0000   1.0000   1.0000   1.0000   1.0000   1.0000
     1.0000   1.0000   1.0000   1.0000   1.0000   1.0000   1.0000   1.0000
     1.0000   1.0000   1.0000   1.0000   1.0000   1.0000   1.0000   1.0000
     1.0000   1.0000   1.0000   1.0000   1.0000   1.0000   1.0000   1.0000
     1.0000   1.0000   1.0000   1.0000

          k = 0.0000 0.0962 0.0000 (  3211 PWs)   bands (ev):

    -9.4422  -8.6557  -8.2727  -8.1718   2.9848   3.3020   3.3188   3.4418
     3.5571   3.6227   3.7923   3.8398   3.8818   3.9446   4.3666   4.5468
     5.2057   5.2267   5.2771   5.4623   5.6209   5.6288   5.7012   5.7295
     5.9117   5.9485   6.6768   7.1794   7.1911   8.6712   8.8103   8.9560
     9.3243   9.7622  10.1423  10.1834

     occupation numbers 
     1.0000   1.0000   1.0000   1.0000   1.0000   1.0000   1.0000   1.0000
     1.0000   1.0000   1.0000   1.0000   1.0000   1.0000   1.0000   1.0000
     1.0000   1.0000   1.0000   1.0000   1.0000   1.0000   1.0000   1.0000
     1.0000   1.0000   1.0000   1.0000   1.0000   1.0000   1.0000   1.0000
     1.0000   1.0000   1.0000   1.0000

          k = 0.0000 0.0962 0.1122 (  3215 PWs)   bands (ev):

    -9.3672  -8.6167  -8.3536  -8.1964   2.8929   3.1129   3.1526   3.3686
     3.5621   3.5863   3.8068   3.8238   3.8403   3.9098   4.2502   4.4667
     5.2529   5.2688   5.3357   5.4726   5.6208   5.6252   5.6667   5.8072
     5.9970   6.3514   6.7303   7.3796   7.3909   8.7622   8.9022   9.1024
     9.2022   9.4602  10.0576  10.0948

     occupation numbers 
     1.0000   1.0000   1.0000   1.0000   1.0000   1.0000   1.0000   1.0000
     1.0000   1.0000   1.0000   1.0000   1.0000   1.0000   1.0000   1.0000
     1.0000   1.0000   1.0000   1.0000   1.0000   1.0000   1.0000   1.0000
     1.0000   1.0000   1.0000   1.0000   1.0000   1.0000   1.0000   1.0000
     1.0000   1.0000   1.0000   1.0000

          k = 0.0000 0.0962 0.2244 (  3220 PWs)   bands (ev):

    -9.1594  -8.5734  -8.5142  -8.2700   2.7053   2.7886   2.9481   3.1502
     3.5798   3.5875   3.7196   3.7449   3.8962   3.9198   4.0737   4.2793
     5.3677   5.3735   5.4775   5.5026   5.5805   5.5878   5.6046   5.7397
     6.2481   6.6388   7.2293   7.8316   8.1317   8.8609   8.8629   9.0343
     9.1529   9.2251   9.8027   9.8219

     occupation numbers 
     1.0000   1.0000   1.0000   1.0000   1.0000   1.0000   1.0000   1.0000
     1.0000   1.0000   1.0000   1.0000   1.0000   1.0000   1.0000   1.0000
     1.0000   1.0000   1.0000   1.0000   1.0000   1.0000   1.0000   1.0000
     1.0000   1.0000   1.0000   1.0000   1.0000   1.0000   1.0000   1.0000
     1.0000   1.0000   1.0000   1.0000

          k = 0.0000 0.0962-0.3367 (  3210 PWs)   bands (ev):

    -8.8695  -8.8695  -8.3849  -8.3849   2.6301   2.6301   2.9551   2.9551
     3.6308   3.6308   3.6494   3.6494   3.9506   3.9506   4.0779   4.0779
     5.4925   5.4925   5.4953   5.4953   5.5482   5.5482   5.6226   5.6226
     6.4641   6.4641   8.1317   8.1317   8.3700   8.3700   8.8900   8.8900
     9.4020   9.4020   9.4913   9.4913

     occupation numbers 
     1.0000   1.0000   1.0000   1.0000   1.0000   1.0000   1.0000   1.0000
     1.0000   1.0000   1.0000   1.0000   1.0000   1.0000   1.0000   1.0000
     1.0000   1.0000   1.0000   1.0000   1.0000   1.0000   1.0000   1.0000
     1.0000   1.0000   1.0000   1.0000   1.0000   1.0000   1.0000   1.0000
     1.0000   1.0000   1.0000   1.0000

          k = 0.0000 0.1925 0.0000 (  3195 PWs)   bands (ev):

    -9.3014  -8.8602  -8.2333  -8.1625   2.9812   3.2521   3.4429   3.4768
     3.6216   3.6793   3.7598   3.8498   3.8851   3.9892   4.3317   4.3626
     5.1216   5.1441   5.2333   5.3588   5.5277   5.6045   5.6486   5.6890
     6.0142   6.1707   6.7314   7.5764   7.8056   8.0219   8.4894   9.1181
     9.3050   9.5169   9.9885   9.9933

     occupation numbers 
     1.0000   1.0000   1.0000   1.0000   1.0000   1.0000   1.0000   1.0000
     1.0000   1.0000   1.0000   1.0000   1.0000   1.0000   1.0000   1.0000
     1.0000   1.0000   1.0000   1.0000   1.0000   1.0000   1.0000   1.0000
     1.0000   1.0000   1.0000   1.0000   1.0000   1.0000   1.0000   1.0000
     1.0000   1.0000   1.0000   1.0000

          k = 0.0000 0.1925 0.1122 (  3209 PWs)   bands (ev):

    -9.2313  -8.8093  -8.3051  -8.2035   2.9051   3.1578   3.2181   3.2682
     3.6298   3.6586   3.7834   3.8244   3.8504   3.9445   4.1702   4.2980
     5.1997   5.2074   5.2728   5.3804   5.6352   5.6491   5.6621   5.7024
     6.3268   6.3972   6.9584   7.7191   7.7330   8.1253   8.5959   8.9219
     9.4016   9.4102   9.8944   9.9660

     occupation numbers 
     1.0000   1.0000   1.0000   1.0000   1.0000   1.0000   1.0000   1.0000
     1.0000   1.0000   1.0000   1.0000   1.0000   1.0000   1.0000   1.0000
     1.0000   1.0000   1.0000   1.0000   1.0000   1.0000   1.0000   1.0000
     1.0000   1.0000   1.0000   1.0000   1.0000   1.0000   1.0000   1.0000
     1.0000   1.0000   1.0000   1.0000

          k = 0.0000 0.1925 0.2244 (  3213 PWs)   bands (ev):

    -9.0381  -8.6723  -8.5021  -8.3207   2.7444   2.8574   2.9257   3.0319
     3.6365   3.6636   3.7615   3.8089   3.8412   3.8579   3.9810   4.1467
     5.3482   5.3725   5.3726   5.4388   5.5843   5.5974   5.6125   5.6907
     6.6710   7.1964   7.2480   8.0360   8.1289   8.3779   8.6067   8.8828
     9.0802   9.3842   9.6325   9.6598

     occupation numbers 
     1.0000   1.0000   1.0000   1.0000   1.0000   1.0000   1.0000   1.0000
     1.0000   1.0000   1.0000   1.0000   1.0000   1.0000   1.0000   1.0000
     1.0000   1.0000   1.0000   1.0000   1.0000   1.0000   1.0000   1.0000
     1.0000   1.0000   1.0000   1.0000   1.0000   1.0000   1.0000   1.0000
     1.0000   1.0000   1.0000   1.0000

          k = 0.0000 0.1925-0.3367 (  3208 PWs)   bands (ev):

    -8.7712  -8.7711  -8.4915  -8.4915   2.6853   2.6853   2.8777   2.8777
     3.6754   3.6754   3.7358   3.7358   3.8590   3.8590   3.9840   3.9841
     5.4901   5.4901   5.5003   5.5003   5.5174   5.5174   5.5527   5.5527
     6.9719   6.9719   7.9847   7.9847   8.6215   8.6215   8.8706   8.8706
     9.0666   9.0666   9.2639   9.2639

     occupation numbers 
     1.0000   1.0000   1.0000   1.0000   1.0000   1.0000   1.0000   1.0000
     1.0000   1.0000   1.0000   1.0000   1.0000   1.0000   1.0000   1.0000
     1.0000   1.0000   1.0000   1.0000   1.0000   1.0000   1.0000   1.0000
     1.0000   1.0000   1.0000   1.0000   1.0000   1.0000   1.0000   1.0000
     1.0000   1.0000   1.0000   1.0000

          k = 0.0000-0.2887 0.0000 (  3192 PWs)   bands (ev):

    -9.0941  -9.0941  -8.1884  -8.1884   3.0855   3.0855   3.5262   3.5262
     3.6990   3.6990   3.7398   3.7398   4.0986   4.0986   4.1575   4.1575
     5.0760   5.0760   5.2738   5.2738   5.5584   5.5585   5.6706   5.6706
     6.1341   6.1341   7.2629   7.2629   8.0462   8.0462   8.4694   8.4694
     9.6856   9.6856   9.7620   9.7620

     occupation numbers 
     1.0000   1.0000   1.0000   1.0000   1.0000   1.0000   1.0000   1.0000
     1.0000   1.0000   1.0000   1.0000   1.0000   1.0000   1.0000   1.0000
     1.0000   1.0000   1.0000   1.0000   1.0000   1.0000   1.0000   1.0000
     1.0000   1.0000   1.0000   1.0000   1.0000   1.0000   1.0000   1.0000
     1.0000   1.0000   1.0000   1.0000

          k = 0.0000-0.2887 0.1122 (  3200 PWs)   bands (ev):

    -9.0321  -9.0321  -8.2463  -8.2463   3.0125   3.0125   3.2716   3.2716
     3.7137   3.7137   3.7335   3.7335   3.9948   3.9948   4.1057   4.1057
     5.1661   5.1661   5.3064   5.3064   5.6505   5.6505   5.6715   5.6715
     6.4576   6.4576   7.3952   7.3952   8.1745   8.1745   8.3153   8.3153
     9.6567   9.6567   9.7267   9.7267

     occupation numbers 
     1.0000   1.0000   1.0000   1.0000   1.0000   1.0000   1.0000   1.0000
     1.0000   1.0000   1.0000   1.0000   1.0000   1.0000   1.0000   1.0000
     1.0000   1.0000   1.0000   1.0000   1.0000   1.0000   1.0000   1.0000
     1.0000   1.0000   1.0000   1.0000   1.0000   1.0000   1.0000   1.0000
     1.0000   1.0000   1.0000   1.0000

          k = 0.0000-0.2887 0.2244 (  3202 PWs)   bands (ev):

    -8.8630  -8.8630  -8.4076  -8.4076   2.8436   2.8436   2.9279   2.9279
     3.7162   3.7162   3.7643   3.7643   3.8573   3.8573   3.9850   3.9850
     5.3385   5.3385   5.3909   5.3909   5.5898   5.5898   5.6479   5.6479
     7.1231   7.1231   7.7630   7.7630   8.1690   8.1690   8.5120   8.5120
     9.3635   9.3635   9.5325   9.5325

     occupation numbers 
     1.0000   1.0000   1.0000   1.0000   1.0000   1.0000   1.0000   1.0000
     1.0000   1.0000   1.0000   1.0000   1.0000   1.0000   1.0000   1.0000
     1.0000   1.0000   1.0000   1.0000   1.0000   1.0000   1.0000   1.0000
     1.0000   1.0000   1.0000   1.0000   1.0000   1.0000   1.0000   1.0000
     1.0000   1.0000   1.0000   1.0000

          k = 0.0000-0.2887-0.3367 (  3204 PWs)   bands (ev):

    -8.6334  -8.6334  -8.6334  -8.6334   2.7756   2.7756   2.7756   2.7756
     3.7566   3.7566   3.7566   3.7566   3.8578   3.8579   3.8579   3.8579
     5.4959   5.4960   5.4960   5.4960   5.5161   5.5161   5.5161   5.5161
     7.5561   7.5561   7.5561   7.5561   8.8889   8.8889   8.8890   8.8890
     8.9483   8.9484   8.9484   8.9484

     occupation numbers 
     1.0000   1.0000   1.0000   1.0000   1.0000   1.0000   1.0000   1.0000
     1.0000   1.0000   1.0000   1.0000   1.0000   1.0000   1.0000   1.0000
     1.0000   1.0000   1.0000   1.0000   1.0000   1.0000   1.0000   1.0000
     1.0000   1.0000   1.0000   1.0000   1.0000   1.0000   1.0000   1.0000
     1.0000   1.0000   1.0000   1.0000

          k = 0.1667 0.0962 0.0000 (  3201 PWs)   bands (ev):

    -9.3014  -8.5774  -8.2333  -8.1821   3.1631   3.2522   3.4247   3.4768
     3.6214   3.6793   3.7434   3.8852   3.9260   3.9891   4.4511   4.6301
     5.1441   5.2333   5.2345   5.2656   5.6045   5.6486   5.7074   5.7363
     6.0096   6.0142   6.4479   6.8972   7.2855   8.0220   8.4893   8.7262
     8.9546   9.1182   9.9883   9.9933

     occupation numbers 
     1.0000   1.0000   1.0000   1.0000   1.0000   1.0000   1.0000   1.0000
     1.0000   1.0000   1.0000   1.0000   1.0000   1.0000   1.0000   1.0000
     1.0000   1.0000   1.0000   1.0000   1.0000   1.0000   1.0000   1.0000
     1.0000   1.0000   1.0000   1.0000   1.0000   1.0000   1.0000   1.0000
     1.0000   1.0000   1.0000   1.0000

          k = 0.1667 0.0962 0.1122 (  3210 PWs)   bands (ev):

    -9.2313  -8.5436  -8.3051  -8.2002   3.0661   3.1579   3.2546   3.2683
     3.6297   3.6586   3.7190   3.8504   3.8939   3.9444   4.3247   4.4963
     5.2074   5.2380   5.2728   5.4466   5.6351   5.6491   5.6864   5.8588
     6.0118   6.3972   6.6369   6.8896   7.5550   8.1254   8.5958   8.7179
     8.9219   8.9899   9.8942   9.9661

     occupation numbers 
     1.0000   1.0000   1.0000   1.0000   1.0000   1.0000   1.0000   1.0000
     1.0000   1.0000   1.0000   1.0000   1.0000   1.0000   1.0000   1.0000
     1.0000   1.0000   1.0000   1.0000   1.0000   1.0000   1.0000   1.0000
     1.0000   1.0000   1.0000   1.0000   1.0000   1.0000   1.0000   1.0000
     1.0000   1.0000   1.0000   1.0000

          k = 0.1667 0.0962 0.2244 (  3216 PWs)   bands (ev):

    -9.0381  -8.5021  -8.4560  -8.2564   2.8605   2.9256   2.9258   3.0319
     3.6365   3.6634   3.7415   3.7616   3.8411   3.8481   4.1907   4.2989
     5.3482   5.3634   5.3726   5.4883   5.5843   5.6125   5.6980   5.8536
     6.2250   6.6503   7.2291   7.2481   8.1805   8.3780   8.4389   8.6068
     8.8826   9.1672   9.6324   9.6599

     occupation numbers 
     1.0000   1.0000   1.0000   1.0000   1.0000   1.0000   1.0000   1.0000
     1.0000   1.0000   1.0000   1.0000   1.0000   1.0000   1.0000   1.0000
     1.0000   1.0000   1.0000   1.0000   1.0000   1.0000   1.0000   1.0000
     1.0000   1.0000   1.0000   1.0000   1.0000   1.0000   1.0000   1.0000
     1.0000   1.0000   1.0000   1.0000

          k = 0.1667 0.0962-0.3367 (  3216 PWs)   bands (ev):

    -8.7712  -8.7711  -8.3483  -8.3483   2.7681   2.7681   2.8777   2.8777
     3.6755   3.6755   3.7357   3.7357   3.8012   3.8012   4.1757   4.1757
     5.4557   5.4557   5.4901   5.4901   5.5003   5.5003   5.7637   5.7637
     6.4648   6.4648   7.7866   7.7866   7.9847   7.9847   8.9588   8.9588
     9.0667   9.0667   9.2638   9.2638

     occupation numbers 
     1.0000   1.0000   1.0000   1.0000   1.0000   1.0000   1.0000   1.0000
     1.0000   1.0000   1.0000   1.0000   1.0000   1.0000   1.0000   1.0000
     1.0000   1.0000   1.0000   1.0000   1.0000   1.0000   1.0000   1.0000
     1.0000   1.0000   1.0000   1.0000   1.0000   1.0000   1.0000   1.0000
     1.0000   1.0000   1.0000   1.0000

          k = 0.1667 0.1925 0.0000 (  3203 PWs)   bands (ev):

    -9.1726  -8.7687  -8.2032  -8.1597   3.1144   3.1770   3.3940   3.4577
     3.7025   3.7386   3.7884   3.8831   3.9789   4.0973   4.3929   4.4351
     5.0829   5.1092   5.2399   5.2853   5.5817   5.6551   5.6618   5.6948
     6.0902   6.1403   6.8136   7.0484   7.6068   7.6358   8.0686   8.7601
     9.1325   9.1929   9.7993   9.8124

     occupation numbers 
     1.0000   1.0000   1.0000   1.0000   1.0000   1.0000   1.0000   1.0000
     1.0000   1.0000   1.0000   1.0000   1.0000   1.0000   1.0000   1.0000
     1.0000   1.0000   1.0000   1.0000   1.0000   1.0000   1.0000   1.0000
     1.0000   1.0000   1.0000   1.0000   1.0000   1.0000   1.0000   1.0000
     1.0000   1.0000   1.0000   1.0000

          k = 0.1667 0.1925 0.1122 (  3195 PWs)   bands (ev):

    -9.1074  -8.7227  -8.2665  -8.1938   3.0267   3.1022   3.2386   3.2451
     3.6805   3.7134   3.7521   3.8346   3.9184   4.0479   4.2064   4.3571
     5.1623   5.1811   5.2871   5.4185   5.6446   5.6663   5.6730   5.7735
     6.2532   6.4417   7.0027   7.2893   7.5482   7.7269   8.1659   8.6132
     9.0221   9.2951   9.6938   9.8323

     occupation numbers 
     1.0000   1.0000   1.0000   1.0000   1.0000   1.0000   1.0000   1.0000
     1.0000   1.0000   1.0000   1.0000   1.0000   1.0000   1.0000   1.0000
     1.0000   1.0000   1.0000   1.0000   1.0000   1.0000   1.0000   1.0000
     1.0000   1.0000   1.0000   1.0000   1.0000   1.0000   1.0000   1.0000
     1.0000   1.0000   1.0000   1.0000

          k = 0.1667 0.1925 0.2244 (  3211 PWs)   bands (ev):

    -8.9288  -8.5999  -8.4417  -8.2927   2.8410   2.9030   2.9116   2.9531
     3.6711   3.7121   3.7482   3.7849   3.8258   3.9359   4.0703   4.2007
     5.3389   5.3389   5.3827   5.4831   5.5884   5.6347   5.6355   5.7401
     6.5973   7.1270   7.2113   7.6214   8.0481   8.0488   8.2575   8.6150
     8.6763   9.3448   9.4030   9.5960

     occupation numbers 
     1.0000   1.0000   1.0000   1.0000   1.0000   1.0000   1.0000   1.0000
     1.0000   1.0000   1.0000   1.0000   1.0000   1.0000   1.0000   1.0000
     1.0000   1.0000   1.0000   1.0000   1.0000   1.0000   1.0000   1.0000
     1.0000   1.0000   1.0000   1.0000   1.0000   1.0000   1.0000   1.0000
     1.0000   1.0000   1.0000   1.0000

          k = 0.1667 0.1925-0.3367 (  3218 PWs)   bands (ev):

    -8.6844  -8.6844  -8.4404  -8.4404   2.7560   2.7560   2.8210   2.8210
     3.6990   3.6990   3.7687   3.7687   3.8290   3.8290   4.0747   4.0748
     5.4836   5.4836   5.4894   5.4894   5.5133   5.5133   5.6348   5.6348
     6.9011   6.9011   7.7606   7.7606   8.1023   8.1024   8.9222   8.9222
     8.9386   8.9386   9.0261   9.0261

     occupation numbers 
     1.0000   1.0000   1.0000   1.0000   1.0000   1.0000   1.0000   1.0000
     1.0000   1.0000   1.0000   1.0000   1.0000   1.0000   1.0000   1.0000
     1.0000   1.0000   1.0000   1.0000   1.0000   1.0000   1.0000   1.0000
     1.0000   1.0000   1.0000   1.0000   1.0000   1.0000   1.0000   1.0000
     1.0000   1.0000   1.0000   1.0000

          k = 0.1667 0.2887 0.0000 (  3182 PWs)   bands (ev):

    -8.9831  -8.9831  -8.1715  -8.1715   3.1224   3.1224   3.4066   3.4066
     3.7901   3.7901   3.7984   3.7984   4.1742   4.1742   4.2572   4.2572
     5.0785   5.0785   5.2655   5.2655   5.5699   5.5699   5.6777   5.6777
     6.1928   6.1928   7.1763   7.1764   7.4545   7.4545   8.2573   8.2573
     9.4890   9.4890   9.5302   9.5302

     occupation numbers 
     1.0000   1.0000   1.0000   1.0000   1.0000   1.0000   1.0000   1.0000
     1.0000   1.0000   1.0000   1.0000   1.0000   1.0000   1.0000   1.0000
     1.0000   1.0000   1.0000   1.0000   1.0000   1.0000   1.0000   1.0000
     1.0000   1.0000   1.0000   1.0000   1.0000   1.0000   1.0000   1.0000
     1.0000   1.0000   1.0000   1.0000

          k = 0.1667 0.2887 0.1122 (  3174 PWs)   bands (ev):

    -8.9261  -8.9261  -8.2216  -8.2216   3.0456   3.0456   3.2290   3.2290
     3.7521   3.7521   3.7562   3.7562   4.0449   4.0449   4.1991   4.1991
     5.1580   5.1580   5.3411   5.3411   5.6572   5.6572   5.6940   5.6940
     6.4639   6.4639   7.3540   7.3541   7.5670   7.5670   8.1370   8.1370
     9.3676   9.3676   9.6039   9.6039

     occupation numbers 
     1.0000   1.0000   1.0000   1.0000   1.0000   1.0000   1.0000   1.0000
     1.0000   1.0000   1.0000   1.0000   1.0000   1.0000   1.0000   1.0000
     1.0000   1.0000   1.0000   1.0000   1.0000   1.0000   1.0000   1.0000
     1.0000   1.0000   1.0000   1.0000   1.0000   1.0000   1.0000   1.0000
     1.0000   1.0000   1.0000   1.0000

          k = 0.1667 0.2887 0.2244 (  3200 PWs)   bands (ev):

    -8.7714  -8.7713  -8.3628  -8.3628   2.8712   2.8712   2.9014   2.9014
     3.7146   3.7146   3.7439   3.7439   3.9400   3.9400   4.0704   4.0704
     5.3331   5.3331   5.4239   5.4239   5.6019   5.6019   5.6726   5.6726
     7.0051   7.0051   7.6333   7.6333   8.0029   8.0029   8.1483   8.1483
     9.0386   9.0386   9.4960   9.4960

     occupation numbers 
     1.0000   1.0000   1.0000   1.0000   1.0000   1.0000   1.0000   1.0000
     1.0000   1.0000   1.0000   1.0000   1.0000   1.0000   1.0000   1.0000
     1.0000   1.0000   1.0000   1.0000   1.0000   1.0000   1.0000   1.0000
     1.0000   1.0000   1.0000   1.0000   1.0000   1.0000   1.0000   1.0000
     1.0000   1.0000   1.0000   1.0000

          k = 0.1667 0.2887-0.3367 (  3220 PWs)   bands (ev):

    -8.5638  -8.5637  -8.5637  -8.5637   2.7722   2.7722   2.7722   2.7722
     3.7281   3.7281   3.7281   3.7281   3.9550   3.9551   3.9551   3.9551
     5.4905   5.4905   5.4905   5.4905   5.5514   5.5514   5.5514   5.5514
     7.3754   7.3754   7.3754   7.3754   8.5447   8.5447   8.5447   8.5448
     8.9295   8.9295   8.9295   8.9295

     occupation numbers 
     1.0000   1.0000   1.0000   1.0000   1.0000   1.0000   1.0000   1.0000
     1.0000   1.0000   1.0000   1.0000   1.0000   1.0000   1.0000   1.0000
     1.0000   1.0000   1.0000   1.0000   1.0000   1.0000   1.0000   1.0000
     1.0000   1.0000   1.0000   1.0000   1.0000   1.0000   1.0000   1.0000
     1.0000   1.0000   1.0000   1.0000

          k = 0.1667 0.0000 0.0000 (  3197 PWs)   bands (ev):

    -9.3469  -8.4870  -8.2453  -8.2098   3.1999   3.3308   3.3912   3.4620
     3.6202   3.6740   3.6990   3.8503   3.9346   3.9561   4.4318   4.7115
     5.1691   5.2236   5.2501   5.4035   5.6132   5.6422   5.6707   5.6961
     5.9905   6.0693   6.4529   6.4545   7.4081   8.2642   8.5019   8.5261
     8.8677   9.3187  10.0207  10.0579

     occupation numbers 
     1.0000   1.0000   1.0000   1.0000   1.0000   1.0000   1.0000   1.0000
     1.0000   1.0000   1.0000   1.0000   1.0000   1.0000   1.0000   1.0000
     1.0000   1.0000   1.0000   1.0000   1.0000   1.0000   1.0000   1.0000
     1.0000   1.0000   1.0000   1.0000   1.0000   1.0000   1.0000   1.0000
     1.0000   1.0000   1.0000   1.0000

          k = 0.1667 0.0000 0.1122 (  3206 PWs)   bands (ev):

    -9.2752  -8.4604  -8.3201  -8.2195   3.1039   3.1938   3.2567   3.2605
     3.6142   3.6373   3.6955   3.8265   3.9123   3.9215   4.3431   4.5669
     5.2236   5.2676   5.3214   5.4397   5.6306   5.6430   5.6952   5.7172
     6.2153   6.3819   6.4154   6.5819   7.7221   8.3652   8.5438   8.6169
     8.8630   9.1103   9.9283  10.0173

     occupation numbers 
     1.0000   1.0000   1.0000   1.0000   1.0000   1.0000   1.0000   1.0000
     1.0000   1.0000   1.0000   1.0000   1.0000   1.0000   1.0000   1.0000
     1.0000   1.0000   1.0000   1.0000   1.0000   1.0000   1.0000   1.0000
     1.0000   1.0000   1.0000   1.0000   1.0000   1.0000   1.0000   1.0000
     1.0000   1.0000   1.0000   1.0000

          k = 0.1667 0.0000 0.2244 (  3224 PWs)   bands (ev):

    -9.0772  -8.5246  -8.3929  -8.2528   2.8887   2.9219   2.9385   3.0665
     3.6143   3.6378   3.7316   3.7463   3.8118   3.8821   4.2341   4.3458
     5.3539   5.3712   5.3916   5.4551   5.5831   5.6049   5.7991   5.8129
     6.2232   6.3357   7.0869   7.2476   8.2129   8.4048   8.5952   8.6688
     8.9729   9.0705   9.6721   9.7070

     occupation numbers 
     1.0000   1.0000   1.0000   1.0000   1.0000   1.0000   1.0000   1.0000
     1.0000   1.0000   1.0000   1.0000   1.0000   1.0000   1.0000   1.0000
     1.0000   1.0000   1.0000   1.0000   1.0000   1.0000   1.0000   1.0000
     1.0000   1.0000   1.0000   1.0000   1.0000   1.0000   1.0000   1.0000
     1.0000   1.0000   1.0000   1.0000

          k = 0.1667 0.0000-0.3367 (  3226 PWs)   bands (ev):

    -8.8026  -8.8026  -8.3143  -8.3142   2.7786   2.7787   2.9038   2.9038
     3.6513   3.6513   3.7148   3.7148   3.8117   3.8117   4.2229   4.2229
     5.4328   5.4328   5.4894   5.4894   5.4993   5.4993   5.8598   5.8598
     6.2547   6.2547   7.6724   7.6724   8.0503   8.0503   8.9675   8.9675
     9.1638   9.1638   9.3173   9.3173

     occupation numbers 
     1.0000   1.0000   1.0000   1.0000   1.0000   1.0000   1.0000   1.0000
     1.0000   1.0000   1.0000   1.0000   1.0000   1.0000   1.0000   1.0000
     1.0000   1.0000   1.0000   1.0000   1.0000   1.0000   1.0000   1.0000
     1.0000   1.0000   1.0000   1.0000   1.0000   1.0000   1.0000   1.0000
     1.0000   1.0000   1.0000   1.0000

          k = 0.3333 0.1925 0.0000 (  3198 PWs)   bands (ev):

    -8.8602  -8.5774  -8.1821  -8.1626   2.9813   3.1632   3.4247   3.4429
     3.7434   3.7597   3.8498   3.9260   4.3318   4.3625   4.4511   4.6300
     5.1216   5.2345   5.2655   5.3588   5.5276   5.6890   5.7074   5.7364
     6.0096   6.1707   6.4478   6.7314   6.8973   7.2855   7.5763   7.8056
     8.7261   8.9545   9.3050   9.5168

     occupation numbers 
     1.0000   1.0000   1.0000   1.0000   1.0000   1.0000   1.0000   1.0000
     1.0000   1.0000   1.0000   1.0000   1.0000   1.0000   1.0000   1.0000
     1.0000   1.0000   1.0000   1.0000   1.0000   1.0000   1.0000   1.0000
     1.0000   1.0000   1.0000   1.0000   1.0000   1.0000   1.0000   1.0000
     1.0000   1.0000   1.0000   1.0000

          k = 0.3333 0.1925 0.1122 (  3201 PWs)   bands (ev):

    -8.8093  -8.5436  -8.2035  -8.2002   2.9051   3.0661   3.2182   3.2546
     3.7189   3.7833   3.8245   3.8939   4.1703   4.2979   4.3247   4.4962
     5.1997   5.2380   5.3804   5.4466   5.6621   5.6864   5.7024   5.8589
     6.0118   6.3268   6.6369   6.8896   6.9585   7.5550   7.7191   7.7329
     8.7178   8.9899   9.4015   9.4102

     occupation numbers 
     1.0000   1.0000   1.0000   1.0000   1.0000   1.0000   1.0000   1.0000
     1.0000   1.0000   1.0000   1.0000   1.0000   1.0000   1.0000   1.0000
     1.0000   1.0000   1.0000   1.0000   1.0000   1.0000   1.0000   1.0000
     1.0000   1.0000   1.0000   1.0000   1.0000   1.0000   1.0000   1.0000
     1.0000   1.0000   1.0000   1.0000

          k = 0.3333 0.1925 0.2244 (  3195 PWs)   bands (ev):

    -8.6723  -8.4560  -8.3207  -8.2564   2.7444   2.8575   2.8605   2.9257
     3.7415   3.8090   3.8481   3.8577   3.9810   4.1466   4.1907   4.2989
     5.3634   5.3725   5.4389   5.4883   5.5974   5.6907   5.6980   5.8536
     6.2250   6.6504   6.6710   7.1964   7.2290   8.0360   8.1288   8.1804
     8.4388   9.0801   9.1672   9.3842

     occupation numbers 
     1.0000   1.0000   1.0000   1.0000   1.0000   1.0000   1.0000   1.0000
     1.0000   1.0000   1.0000   1.0000   1.0000   1.0000   1.0000   1.0000
     1.0000   1.0000   1.0000   1.0000   1.0000   1.0000   1.0000   1.0000
     1.0000   1.0000   1.0000   1.0000   1.0000   1.0000   1.0000   1.0000
     1.0000   1.0000   1.0000   1.0000

          k = 0.3333 0.1925-0.3367 (  3200 PWs)   bands (ev):

    -8.4916  -8.4915  -8.3483  -8.3483   2.6853   2.6853   2.7681   2.7681
     3.8012   3.8012   3.8590   3.8590   3.9839   3.9840   4.1757   4.1757
     5.4557   5.4557   5.5174   5.5174   5.5527   5.5527   5.7637   5.7637
     6.4648   6.4648   6.9719   6.9719   7.7865   7.7865   8.6214   8.6214
     8.8706   8.8706   8.9588   8.9588

     occupation numbers 
     1.0000   1.0000   1.0000   1.0000   1.0000   1.0000   1.0000   1.0000
     1.0000   1.0000   1.0000   1.0000   1.0000   1.0000   1.0000   1.0000
     1.0000   1.0000   1.0000   1.0000   1.0000   1.0000   1.0000   1.0000
     1.0000   1.0000   1.0000   1.0000   1.0000   1.0000   1.0000   1.0000
     1.0000   1.0000   1.0000   1.0000

          k = 0.3333 0.2887 0.0000 (  3210 PWs)   bands (ev):

    -8.7278  -8.7278  -8.1632  -8.1632   3.0132   3.0132   3.3999   3.3999
     3.7498   3.7498   3.9167   3.9167   4.3857   4.3857   4.4860   4.4860
     5.1971   5.1971   5.3480   5.3480   5.6460   5.6460   5.6977   5.6977
     6.0426   6.0426   6.7077   6.7077   7.2050   7.2050   7.4555   7.4555
     9.0698   9.0698   9.3001   9.3001

     occupation numbers 
     1.0000   1.0000   1.0000   1.0000   1.0000   1.0000   1.0000   1.0000
     1.0000   1.0000   1.0000   1.0000   1.0000   1.0000   1.0000   1.0000
     1.0000   1.0000   1.0000   1.0000   1.0000   1.0000   1.0000   1.0000
     1.0000   1.0000   1.0000   1.0000   1.0000   1.0000   1.0000   1.0000
     1.0000   1.0000   1.0000   1.0000

          k = 0.3333 0.2887 0.1122 (  3202 PWs)   bands (ev):

    -8.6843  -8.6843  -8.1938  -8.1938   2.9286   2.9286   3.1981   3.1981
     3.7676   3.7676   3.8832   3.8832   4.2384   4.2384   4.4007   4.4007
     5.2367   5.2367   5.4355   5.4355   5.6699   5.6699   5.7741   5.7741
     6.1261   6.1261   6.9024   6.9024   7.3545   7.3545   7.5051   7.5051
     9.1345   9.1345   9.2439   9.2440

     occupation numbers 
     1.0000   1.0000   1.0000   1.0000   1.0000   1.0000   1.0000   1.0000
     1.0000   1.0000   1.0000   1.0000   1.0000   1.0000   1.0000   1.0000
     1.0000   1.0000   1.0000   1.0000   1.0000   1.0000   1.0000   1.0000
     1.0000   1.0000   1.0000   1.0000   1.0000   1.0000   1.0000   1.0000
     1.0000   1.0000   1.0000   1.0000

          k = 0.3333 0.2887 0.2244 (  3192 PWs)   bands (ev):

    -8.5686  -8.5686  -8.2837  -8.2837   2.7528   2.7528   2.8517   2.8517
     3.8191   3.8191   3.8654   3.8654   4.0711   4.0711   4.2291   4.2291
     5.3880   5.3880   5.4904   5.4905   5.6193   5.6193   5.7346   5.7346
     6.4207   6.4207   6.9101   6.9101   7.7686   7.7686   8.1159   8.1159
     8.8110   8.8110   9.2982   9.2982

     occupation numbers 
     1.0000   1.0000   1.0000   1.0000   1.0000   1.0000   1.0000   1.0000
     1.0000   1.0000   1.0000   1.0000   1.0000   1.0000   1.0000   1.0000
     1.0000   1.0000   1.0000   1.0000   1.0000   1.0000   1.0000   1.0000
     1.0000   1.0000   1.0000   1.0000   1.0000   1.0000   1.0000   1.0000
     1.0000   1.0000   1.0000   1.0000

          k = 0.3333 0.2887-0.3367 (  3196 PWs)   bands (ev):

    -8.4197  -8.4197  -8.4197  -8.4197   2.6838   2.6838   2.6838   2.6838
     3.8638   3.8638   3.8638   3.8638   4.0710   4.0710   4.0710   4.0711
     5.5085   5.5085   5.5085   5.5085   5.6221   5.6221   5.6221   5.6221
     6.6932   6.6932   6.6932   6.6932   8.2999   8.2999   8.2999   8.2999
     8.9125   8.9125   8.9125   8.9125

     occupation numbers 
     1.0000   1.0000   1.0000   1.0000   1.0000   1.0000   1.0000   1.0000
     1.0000   1.0000   1.0000   1.0000   1.0000   1.0000   1.0000   1.0000
     1.0000   1.0000   1.0000   1.0000   1.0000   1.0000   1.0000   1.0000
     1.0000   1.0000   1.0000   1.0000   1.0000   1.0000   1.0000   1.0000
     1.0000   1.0000   1.0000   1.0000

          k = 0.3333-0.0962 0.0000 (  3195 PWs)   bands (ev):

    -8.9509  -8.4331  -8.2302  -8.1684   3.0509   3.3355   3.4647   3.5387
     3.7242   3.7378   3.8366   3.9648   4.2393   4.2823   4.5396   4.7149
     5.0753   5.1717   5.2754   5.2974   5.5380   5.5525   5.6203   5.6813
     5.8763   6.1957   6.3272   6.6980   6.9515   7.5755   7.6110   8.1109
     8.3552   8.5591   9.4632   9.5377

     occupation numbers 
     1.0000   1.0000   1.0000   1.0000   1.0000   1.0000   1.0000   1.0000
     1.0000   1.0000   1.0000   1.0000   1.0000   1.0000   1.0000   1.0000
     1.0000   1.0000   1.0000   1.0000   1.0000   1.0000   1.0000   1.0000
     1.0000   1.0000   1.0000   1.0000   1.0000   1.0000   1.0000   1.0000
     1.0000   1.0000   1.0000   1.0000

          k = 0.3333-0.0962 0.1122 (  3198 PWs)   bands (ev):

    -8.8954  -8.4111  -8.2348  -8.2161   2.9759   3.2488   3.2633   3.3889
     3.6156   3.7255   3.8078   3.9327   4.0912   4.2223   4.4225   4.5297
     5.1639   5.2100   5.3507   5.4146   5.6587   5.6633   5.6812   5.6929
     6.1154   6.2995   6.4378   6.6413   7.1341   7.7391   7.8558   8.0008
     8.3219   8.6529   9.4136   9.5520

     occupation numbers 
     1.0000   1.0000   1.0000   1.0000   1.0000   1.0000   1.0000   1.0000
     1.0000   1.0000   1.0000   1.0000   1.0000   1.0000   1.0000   1.0000
     1.0000   1.0000   1.0000   1.0000   1.0000   1.0000   1.0000   1.0000
     1.0000   1.0000   1.0000   1.0000   1.0000   1.0000   1.0000   1.0000
     1.0000   1.0000   1.0000   1.0000

          k = 0.3333-0.0962 0.2244 (  3197 PWs)   bands (ev):

    -8.7451  -8.3565  -8.3511  -8.2540   2.8102   2.8971   3.0298   3.0657
     3.5981   3.7418   3.7968   3.8298   3.9473   4.0874   4.3062   4.3471
     5.2885   5.3418   5.4077   5.4257   5.5992   5.6763   5.8077   5.9455
     6.2021   6.4570   6.7378   6.9033   7.4738   7.8626   8.0305   8.1790
     8.5295   8.9805   9.0914   9.4627

     occupation numbers 
     1.0000   1.0000   1.0000   1.0000   1.0000   1.0000   1.0000   1.0000
     1.0000   1.0000   1.0000   1.0000   1.0000   1.0000   1.0000   1.0000
     1.0000   1.0000   1.0000   1.0000   1.0000   1.0000   1.0000   1.0000
     1.0000   1.0000   1.0000   1.0000   1.0000   1.0000   1.0000   1.0000
     1.0000   1.0000   1.0000   1.0000

          k = 0.3333-0.0962-0.3367 (  3212 PWs)   bands (ev):

    -8.5444  -8.5443  -8.2964  -8.2964   2.7390   2.7390   2.9111   2.9111
     3.6969   3.6969   3.7771   3.7771   3.9576   3.9576   4.2789   4.2789
     5.3562   5.3562   5.4974   5.4974   5.5488   5.5488   5.9441   5.9442
     6.3214   6.3214   7.2440   7.2440   7.3037   7.3037   8.6126   8.6127
     8.9087   8.9087   8.9880   8.9880

     occupation numbers 
     1.0000   1.0000   1.0000   1.0000   1.0000   1.0000   1.0000   1.0000
     1.0000   1.0000   1.0000   1.0000   1.0000   1.0000   1.0000   1.0000
     1.0000   1.0000   1.0000   1.0000   1.0000   1.0000   1.0000   1.0000
     1.0000   1.0000   1.0000   1.0000   1.0000   1.0000   1.0000   1.0000
     1.0000   1.0000   1.0000   1.0000

          k = 0.3333-0.0000 0.0000 (  3196 PWs)   bands (ev):

    -8.9831  -8.3142  -8.3141  -8.1715   3.1225   3.3957   3.4066   3.6611
     3.6612   3.7901   3.7984   4.1111   4.1742   4.2572   4.6192   4.6192
     5.0785   5.1511   5.2655   5.3565   5.3565   5.4147   5.5698   5.6777
     5.8333   6.1928   6.5187   6.5187   7.1764   7.4545   8.0098   8.0098
     8.2573   8.3039   9.4889   9.5302

     occupation numbers 
     1.0000   1.0000   1.0000   1.0000   1.0000   1.0000   1.0000   1.0000
     1.0000   1.0000   1.0000   1.0000   1.0000   1.0000   1.0000   1.0000
     1.0000   1.0000   1.0000   1.0000   1.0000   1.0000   1.0000   1.0000
     1.0000   1.0000   1.0000   1.0000   1.0000   1.0000   1.0000   1.0000
     1.0000   1.0000   1.0000   1.0000

          k = 0.3333-0.0000 0.1122 (  3198 PWs)   bands (ev):

    -8.9261  -8.3051  -8.3050  -8.2216   3.0457   3.2290   3.4208   3.4778
     3.4778   3.7521   3.7561   4.0132   4.0450   4.1990   4.4801   4.4801
     5.1579   5.1745   5.3411   5.3990   5.5946   5.5946   5.6572   5.6940
     6.0227   6.4623   6.4623   6.4639   7.3541   7.5670   8.1324   8.1369
     8.2641   8.2642   9.3675   9.6039

     occupation numbers 
     1.0000   1.0000   1.0000   1.0000   1.0000   1.0000   1.0000   1.0000
     1.0000   1.0000   1.0000   1.0000   1.0000   1.0000   1.0000   1.0000
     1.0000   1.0000   1.0000   1.0000   1.0000   1.0000   1.0000   1.0000
     1.0000   1.0000   1.0000   1.0000   1.0000   1.0000   1.0000   1.0000
     1.0000   1.0000   1.0000   1.0000

          k = 0.3333-0.0000 0.2244 (  3202 PWs)   bands (ev):

    -8.7713  -8.3628  -8.2867  -8.2867   2.8713   2.9014   3.1448   3.1448
     3.4984   3.7146   3.7438   3.8163   3.9400   4.0704   4.3648   4.3648
     5.2276   5.3331   5.3550   5.4239   5.6019   5.6726   5.9022   5.9022
     6.3524   6.3524   6.4929   7.0052   7.6334   7.6814   8.0030   8.1482
     8.7558   8.7558   9.0385   9.4960

     occupation numbers 
     1.0000   1.0000   1.0000   1.0000   1.0000   1.0000   1.0000   1.0000
     1.0000   1.0000   1.0000   1.0000   1.0000   1.0000   1.0000   1.0000
     1.0000   1.0000   1.0000   1.0000   1.0000   1.0000   1.0000   1.0000
     1.0000   1.0000   1.0000   1.0000   1.0000   1.0000   1.0000   1.0000
     1.0000   1.0000   1.0000   1.0000

          k = 0.3333-0.0000-0.3367 (  3218 PWs)   bands (ev):

    -8.5637  -8.5637  -8.2775  -8.2775   2.7723   2.7723   2.9959   2.9959
     3.6319   3.6319   3.7281   3.7281   3.9550   3.9550   4.3317   4.3317
     5.2928   5.2928   5.4905   5.4905   5.5514   5.5514   6.0494   6.0494
     6.2724   6.2725   7.0888   7.0888   7.3755   7.3755   8.5446   8.5447
     8.9295   8.9295   8.9979   8.9979

     occupation numbers 
     1.0000   1.0000   1.0000   1.0000   1.0000   1.0000   1.0000   1.0000
     1.0000   1.0000   1.0000   1.0000   1.0000   1.0000   1.0000   1.0000
     1.0000   1.0000   1.0000   1.0000   1.0000   1.0000   1.0000   1.0000
     1.0000   1.0000   1.0000   1.0000   1.0000   1.0000   1.0000   1.0000
     1.0000   1.0000   1.0000   1.0000

          k =-0.5000-0.2887 0.0000 (  3220 PWs)   bands (ev):

    -8.5644  -8.5644  -8.1905  -8.1905   3.0511   3.0511   3.1854   3.1854
     3.8017   3.8017   3.9836   3.9836   4.3442   4.3442   4.6245   4.6245
     5.2982   5.2982   5.5154   5.5154   5.7051   5.7051   5.7654   5.7654
     6.2289   6.2289   6.3564   6.3565   6.9763   6.9763   7.0327   7.0327
     8.8046   8.8046   9.2504   9.2504

     occupation numbers 
     1.0000   1.0000   1.0000   1.0000   1.0000   1.0000   1.0000   1.0000
     1.0000   1.0000   1.0000   1.0000   1.0000   1.0000   1.0000   1.0000
     1.0000   1.0000   1.0000   1.0000   1.0000   1.0000   1.0000   1.0000
     1.0000   1.0000   1.0000   1.0000   1.0000   1.0000   1.0000   1.0000
     1.0000   1.0000   1.0000   1.0000

          k =-0.5000-0.2887 0.1122 (  3216 PWs)   bands (ev):

    -8.5319  -8.5319  -8.2070  -8.2070   2.9459   2.9459   3.0180   3.0180
     3.8361   3.8361   3.9475   3.9475   4.2570   4.2570   4.5361   4.5361
     5.4046   5.4046   5.5210   5.5210   5.6648   5.6648   5.7666   5.7666
     6.2381   6.2381   6.2735   6.2735   7.2386   7.2386   7.3928   7.3928
     8.9622   8.9622   9.1258   9.1258

     occupation numbers 
     1.0000   1.0000   1.0000   1.0000   1.0000   1.0000   1.0000   1.0000
     1.0000   1.0000   1.0000   1.0000   1.0000   1.0000   1.0000   1.0000
     1.0000   1.0000   1.0000   1.0000   1.0000   1.0000   1.0000   1.0000
     1.0000   1.0000   1.0000   1.0000   1.0000   1.0000   1.0000   1.0000
     1.0000   1.0000   1.0000   1.0000

          k =-0.5000-0.2887 0.2244 (  3208 PWs)   bands (ev):

    -8.4478  -8.4477  -8.2589  -8.2589   2.7294   2.7294   2.7296   2.7296
     3.9360   3.9360   3.9406   3.9406   4.1032   4.1032   4.3311   4.3311
     5.5372   5.5372   5.5681   5.5681   5.6049   5.6049   5.7474   5.7474
     6.2273   6.2273   6.2458   6.2458   7.7169   7.7169   8.1997   8.1997
     8.7773   8.7773   9.1458   9.1458

     occupation numbers 
     1.0000   1.0000   1.0000   1.0000   1.0000   1.0000   1.0000   1.0000
     1.0000   1.0000   1.0000   1.0000   1.0000   1.0000   1.0000   1.0000
     1.0000   1.0000   1.0000   1.0000   1.0000   1.0000   1.0000   1.0000
     1.0000   1.0000   1.0000   1.0000   1.0000   1.0000   1.0000   1.0000
     1.0000   1.0000   1.0000   1.0000

          k =-0.5000-0.2887-0.3367 (  3216 PWs)   bands (ev):

    -8.3453  -8.3452  -8.3452  -8.3452   2.6127   2.6127   2.6127   2.6127
     3.9889   3.9889   3.9889   3.9889   4.1122   4.1122   4.1122   4.1122
     5.5636   5.5636   5.5636   5.5636   5.6842   5.6842   5.6842   5.6842
     6.2354   6.2354   6.2354   6.2354   8.2741   8.2741   8.2741   8.2741
     8.8999   8.8999   8.8999   8.8999

     occupation numbers 
     1.0000   1.0000   1.0000   1.0000   1.0000   1.0000   1.0000   1.0000
     1.0000   1.0000   1.0000   1.0000   1.0000   1.0000   1.0000   1.0000
     1.0000   1.0000   1.0000   1.0000   1.0000   1.0000   1.0000   1.0000
     1.0000   1.0000   1.0000   1.0000   1.0000   1.0000   1.0000   1.0000
     1.0000   1.0000   1.0000   1.0000

          k =-0.5000-0.1925 0.0000 (  3196 PWs)   bands (ev):

    -8.5688  -8.5688  -8.1876  -8.1876   3.0685   3.0685   3.2897   3.2897
     3.7681   3.7681   3.9603   3.9603   4.3751   4.3751   4.6310   4.6310
     5.2849   5.2849   5.4494   5.4494   5.7067   5.7067   5.7729   5.7729
     6.0455   6.0455   6.5913   6.5913   6.7338   6.7338   7.2100   7.2100
     8.7707   8.7707   9.1569   9.1569

     occupation numbers 
     1.0000   1.0000   1.0000   1.0000   1.0000   1.0000   1.0000   1.0000
     1.0000   1.0000   1.0000   1.0000   1.0000   1.0000   1.0000   1.0000
     1.0000   1.0000   1.0000   1.0000   1.0000   1.0000   1.0000   1.0000
     1.0000   1.0000   1.0000   1.0000   1.0000   1.0000   1.0000   1.0000
     1.0000   1.0000   1.0000   1.0000

          k =-0.5000-0.1925 0.1122 (  3204 PWs)   bands (ev):

    -8.5358  -8.5358  -8.2047  -8.2046   2.9673   2.9673   3.1098   3.1098
     3.7922   3.7922   3.9299   3.9299   4.2810   4.2810   4.5291   4.5291
     5.3611   5.3611   5.4841   5.4841   5.6754   5.6754   5.7969   5.7969
     6.0737   6.0737   6.5192   6.5192   7.0172   7.0172   7.5159   7.5159
     8.8933   8.8934   9.0648   9.0648

     occupation numbers 
     1.0000   1.0000   1.0000   1.0000   1.0000   1.0000   1.0000   1.0000
     1.0000   1.0000   1.0000   1.0000   1.0000   1.0000   1.0000   1.0000
     1.0000   1.0000   1.0000   1.0000   1.0000   1.0000   1.0000   1.0000
     1.0000   1.0000   1.0000   1.0000   1.0000   1.0000   1.0000   1.0000
     1.0000   1.0000   1.0000   1.0000

          k =-0.5000-0.1925 0.2244 (  3200 PWs)   bands (ev):

    -8.4505  -8.4505  -8.2580  -8.2580   2.7575   2.7575   2.8019   2.8019
     3.8647   3.8647   3.9126   3.9126   4.1442   4.1442   4.3213   4.3213
     5.4691   5.4691   5.5179   5.5179   5.6649   5.6649   5.7836   5.7836
     6.1741   6.1741   6.4194   6.4194   7.5422   7.5422   8.2472   8.2472
     8.6304   8.6304   9.1584   9.1584

     occupation numbers 
     1.0000   1.0000   1.0000   1.0000   1.0000   1.0000   1.0000   1.0000
     1.0000   1.0000   1.0000   1.0000   1.0000   1.0000   1.0000   1.0000
     1.0000   1.0000   1.0000   1.0000   1.0000   1.0000   1.0000   1.0000
     1.0000   1.0000   1.0000   1.0000   1.0000   1.0000   1.0000   1.0000
     1.0000   1.0000   1.0000   1.0000

          k =-0.5000-0.1925-0.3367 (  3196 PWs)   bands (ev):

    -8.3463  -8.3463  -8.3462  -8.3462   2.6604   2.6604   2.6604   2.6604
     3.9208   3.9208   3.9208   3.9208   4.1433   4.1433   4.1433   4.1433
     5.5158   5.5158   5.5158   5.5158   5.7213   5.7213   5.7213   5.7213
     6.3029   6.3029   6.3029   6.3029   8.1125   8.1125   8.1125   8.1125
     8.9267   8.9267   8.9267   8.9267

     occupation numbers 
     1.0000   1.0000   1.0000   1.0000   1.0000   1.0000   1.0000   1.0000
     1.0000   1.0000   1.0000   1.0000   1.0000   1.0000   1.0000   1.0000
     1.0000   1.0000   1.0000   1.0000   1.0000   1.0000   1.0000   1.0000
     1.0000   1.0000   1.0000   1.0000   1.0000   1.0000   1.0000   1.0000
     1.0000   1.0000   1.0000   1.0000

          k =-0.5000-0.0962 0.0000 (  3204 PWs)   bands (ev):

    -8.5774  -8.5773  -8.1821  -8.1821   3.1632   3.1632   3.4248   3.4248
     3.7433   3.7433   3.9260   3.9260   4.4511   4.4511   4.6300   4.6300
     5.2345   5.2345   5.2655   5.2655   5.7075   5.7075   5.7364   5.7364
     6.0096   6.0096   6.4478   6.4478   6.8973   6.8973   7.2856   7.2856
     8.7261   8.7261   8.9545   8.9545

     occupation numbers 
     1.0000   1.0000   1.0000   1.0000   1.0000   1.0000   1.0000   1.0000
     1.0000   1.0000   1.0000   1.0000   1.0000   1.0000   1.0000   1.0000
     1.0000   1.0000   1.0000   1.0000   1.0000   1.0000   1.0000   1.0000
     1.0000   1.0000   1.0000   1.0000   1.0000   1.0000   1.0000   1.0000
     1.0000   1.0000   1.0000   1.0000

          k =-0.5000-0.0962 0.1122 (  3202 PWs)   bands (ev):

    -8.5436  -8.5436  -8.2002  -8.2002   3.0662   3.0662   3.2546   3.2546
     3.7189   3.7189   3.8939   3.8939   4.3247   4.3248   4.4962   4.4962
     5.2380   5.2380   5.4466   5.4466   5.6864   5.6864   5.8589   5.8589
     6.0118   6.0118   6.6368   6.6368   6.8896   6.8896   7.5550   7.5550
     8.7178   8.7178   8.9899   8.9899

     occupation numbers 
     1.0000   1.0000   1.0000   1.0000   1.0000   1.0000   1.0000   1.0000
     1.0000   1.0000   1.0000   1.0000   1.0000   1.0000   1.0000   1.0000
     1.0000   1.0000   1.0000   1.0000   1.0000   1.0000   1.0000   1.0000
     1.0000   1.0000   1.0000   1.0000   1.0000   1.0000   1.0000   1.0000
     1.0000   1.0000   1.0000   1.0000

          k =-0.5000-0.0962 0.2244 (  3198 PWs)   bands (ev):

    -8.4560  -8.4560  -8.2564  -8.2564   2.8605   2.8605   2.9257   2.9257
     3.7415   3.7415   3.8481   3.8481   4.1907   4.1907   4.2988   4.2989
     5.3634   5.3634   5.4883   5.4883   5.6980   5.6980   5.8536   5.8536
     6.2250   6.2250   6.6504   6.6504   7.2290   7.2290   8.1804   8.1804
     8.4388   8.4388   9.1672   9.1672

     occupation numbers 
     1.0000   1.0000   1.0000   1.0000   1.0000   1.0000   1.0000   1.0000
     1.0000   1.0000   1.0000   1.0000   1.0000   1.0000   1.0000   1.0000
     1.0000   1.0000   1.0000   1.0000   1.0000   1.0000   1.0000   1.0000
     1.0000   1.0000   1.0000   1.0000   1.0000   1.0000   1.0000   1.0000
     1.0000   1.0000   1.0000   1.0000

          k =-0.5000-0.0962-0.3367 (  3208 PWs)   bands (ev):

    -8.3483  -8.3483  -8.3483  -8.3483   2.7682   2.7682   2.7682   2.7682
[...]

    -9.1594  -8.5734  -8.5142  -8.2700   2.7053   2.7886   2.9481   3.1502
     3.5798   3.5875   3.7196   3.7449   3.8962   3.9198   4.0737   4.2793
     5.3677   5.3735   5.4775   5.5026   5.5805   5.5878   5.6046   5.7397
     6.2481   6.6388   7.2293   7.8316   8.1317   8.8609   8.8629   9.0343
     9.1529   9.2251   9.8027   9.8219

     occupation numbers 
     1.0000   1.0000   1.0000   1.0000   1.0000   1.0000   1.0000   1.0000
     1.0000   1.0000   1.0000   1.0000   1.0000   1.0000   1.0000   1.0000
     1.0000   1.0000   1.0000   1.0000   1.0000   1.0000   1.0000   1.0000
     1.0000   1.0000   1.0000   1.0000   1.0000   1.0000   1.0000   1.0000
     1.0000   1.0000   1.0000   1.0000

          k = 0.0000 0.1925-0.1122 (  3209 PWs)   bands (ev):

    -9.2313  -8.8093  -8.3051  -8.2035   2.9051   3.1578   3.2181   3.2682
     3.6298   3.6586   3.7834   3.8244   3.8504   3.9445   4.1702   4.2980
     5.1997   5.2074   5.2728   5.3804   5.6352   5.6491   5.6621   5.7024
     6.3268   6.3972   6.9584   7.7191   7.7330   8.1253   8.5959   8.9219
     9.4016   9.4102   9.8944   9.9660

     occupation numbers 
     1.0000   1.0000   1.0000   1.0000   1.0000   1.0000   1.0000   1.0000
     1.0000   1.0000   1.0000   1.0000   1.0000   1.0000   1.0000   1.0000
     1.0000   1.0000   1.0000   1.0000   1.0000   1.0000   1.0000   1.0000
     1.0000   1.0000   1.0000   1.0000   1.0000   1.0000   1.0000   1.0000
     1.0000   1.0000   1.0000   1.0000

          k = 0.0000 0.1925-0.2244 (  3213 PWs)   bands (ev):

    -9.0381  -8.6723  -8.5021  -8.3207   2.7444   2.8574   2.9257   3.0319
     3.6365   3.6636   3.7615   3.8089   3.8412   3.8579   3.9810   4.1467
     5.3482   5.3725   5.3726   5.4388   5.5843   5.5974   5.6125   5.6907
     6.6710   7.1964   7.2480   8.0360   8.1289   8.3779   8.6067   8.8828
     9.0802   9.3842   9.6326   9.6598

     occupation numbers 
     1.0000   1.0000   1.0000   1.0000   1.0000   1.0000   1.0000   1.0000
     1.0000   1.0000   1.0000   1.0000   1.0000   1.0000   1.0000   1.0000
     1.0000   1.0000   1.0000   1.0000   1.0000   1.0000   1.0000   1.0000
     1.0000   1.0000   1.0000   1.0000   1.0000   1.0000   1.0000   1.0000
     1.0000   1.0000   1.0000   1.0000

          k =-0.1667 0.0962-0.1122 (  3210 PWs)   bands (ev):

    -9.2313  -8.5436  -8.3051  -8.2002   3.0661   3.1579   3.2546   3.2683
     3.6297   3.6586   3.7190   3.8504   3.8939   3.9444   4.3247   4.4963
     5.2074   5.2380   5.2728   5.4466   5.6351   5.6491   5.6864   5.8588
     6.0118   6.3972   6.6369   6.8896   7.5550   8.1254   8.5958   8.7179
     8.9219   8.9899   9.8942   9.9661

     occupation numbers 
     1.0000   1.0000   1.0000   1.0000   1.0000   1.0000   1.0000   1.0000
     1.0000   1.0000   1.0000   1.0000   1.0000   1.0000   1.0000   1.0000
     1.0000   1.0000   1.0000   1.0000   1.0000   1.0000   1.0000   1.0000
     1.0000   1.0000   1.0000   1.0000   1.0000   1.0000   1.0000   1.0000
     1.0000   1.0000   1.0000   1.0000

          k =-0.1667 0.0962-0.2244 (  3216 PWs)   bands (ev):

    -9.0381  -8.5021  -8.4560  -8.2564   2.8605   2.9256   2.9258   3.0319
     3.6365   3.6634   3.7415   3.7616   3.8411   3.8481   4.1907   4.2989
     5.3482   5.3634   5.3726   5.4883   5.5843   5.6125   5.6980   5.8536
     6.2250   6.6503   7.2291   7.2481   8.1805   8.3780   8.4389   8.6068
     8.8826   9.1672   9.6324   9.6599

     occupation numbers 
     1.0000   1.0000   1.0000   1.0000   1.0000   1.0000   1.0000   1.0000
     1.0000   1.0000   1.0000   1.0000   1.0000   1.0000   1.0000   1.0000
     1.0000   1.0000   1.0000   1.0000   1.0000   1.0000   1.0000   1.0000
     1.0000   1.0000   1.0000   1.0000   1.0000   1.0000   1.0000   1.0000
     1.0000   1.0000   1.0000   1.0000

          k =-0.1667 0.1925-0.1122 (  3195 PWs)   bands (ev):

    -9.1074  -8.7227  -8.2665  -8.1938   3.0267   3.1022   3.2386   3.2451
     3.6805   3.7134   3.7521   3.8346   3.9184   4.0479   4.2064   4.3571
     5.1623   5.1811   5.2871   5.4185   5.6446   5.6663   5.6730   5.7735
     6.2532   6.4417   7.0027   7.2893   7.5482   7.7269   8.1659   8.6132
     9.0221   9.2951   9.6938   9.8323

     occupation numbers 
     1.0000   1.0000   1.0000   1.0000   1.0000   1.0000   1.0000   1.0000
     1.0000   1.0000   1.0000   1.0000   1.0000   1.0000   1.0000   1.0000
     1.0000   1.0000   1.0000   1.0000   1.0000   1.0000   1.0000   1.0000
     1.0000   1.0000   1.0000   1.0000   1.0000   1.0000   1.0000   1.0000
     1.0000   1.0000   1.0000   1.0000

          k =-0.1667 0.1925-0.2244 (  3211 PWs)   bands (ev):

    -8.9288  -8.5999  -8.4417  -8.2927   2.8410   2.9030   2.9116   2.9531
     3.6711   3.7121   3.7482   3.7849   3.8258   3.9359   4.0703   4.2007
     5.3389   5.3389   5.3827   5.4831   5.5884   5.6347   5.6355   5.7401
     6.5973   7.1270   7.2113   7.6214   8.0481   8.0488   8.2575   8.6150
     8.6763   9.3447   9.4030   9.5960

     occupation numbers 
     1.0000   1.0000   1.0000   1.0000   1.0000   1.0000   1.0000   1.0000
     1.0000   1.0000   1.0000   1.0000   1.0000   1.0000   1.0000   1.0000
     1.0000   1.0000   1.0000   1.0000   1.0000   1.0000   1.0000   1.0000
     1.0000   1.0000   1.0000   1.0000   1.0000   1.0000   1.0000   1.0000
     1.0000   1.0000   1.0000   1.0000

          k =-0.3333 0.1925-0.1122 (  3201 PWs)   bands (ev):

    -8.8093  -8.5436  -8.2035  -8.2002   2.9051   3.0661   3.2182   3.2546
     3.7189   3.7833   3.8245   3.8939   4.1703   4.2979   4.3247   4.4962
     5.1997   5.2380   5.3804   5.4466   5.6621   5.6864   5.7024   5.8589
     6.0118   6.3268   6.6369   6.8896   6.9584   7.5550   7.7191   7.7329
     8.7178   8.9899   9.4015   9.4102

     occupation numbers 
     1.0000   1.0000   1.0000   1.0000   1.0000   1.0000   1.0000   1.0000
     1.0000   1.0000   1.0000   1.0000   1.0000   1.0000   1.0000   1.0000
     1.0000   1.0000   1.0000   1.0000   1.0000   1.0000   1.0000   1.0000
     1.0000   1.0000   1.0000   1.0000   1.0000   1.0000   1.0000   1.0000
     1.0000   1.0000   1.0000   1.0000

          k =-0.3333 0.1925-0.2244 (  3195 PWs)   bands (ev):

    -8.6723  -8.4560  -8.3207  -8.2564   2.7444   2.8575   2.8605   2.9257
     3.7415   3.8090   3.8481   3.8577   3.9810   4.1466   4.1907   4.2989
     5.3634   5.3725   5.4389   5.4883   5.5974   5.6907   5.6980   5.8536
     6.2250   6.6504   6.6710   7.1964   7.2290   8.0360   8.1288   8.1804
     8.4388   9.0801   9.1672   9.3842

     occupation numbers 
     1.0000   1.0000   1.0000   1.0000   1.0000   1.0000   1.0000   1.0000
     1.0000   1.0000   1.0000   1.0000   1.0000   1.0000   1.0000   1.0000
     1.0000   1.0000   1.0000   1.0000   1.0000   1.0000   1.0000   1.0000
     1.0000   1.0000   1.0000   1.0000   1.0000   1.0000   1.0000   1.0000
     1.0000   1.0000   1.0000   1.0000

          k =-0.3333-0.0962-0.1122 (  3198 PWs)   bands (ev):

    -8.8954  -8.4111  -8.2348  -8.2161   2.9759   3.2488   3.2633   3.3889
     3.6156   3.7255   3.8078   3.9327   4.0912   4.2223   4.4225   4.5297
     5.1639   5.2100   5.3507   5.4146   5.6587   5.6633   5.6812   5.6929
     6.1154   6.2995   6.4378   6.6413   7.1341   7.7391   7.8558   8.0008
     8.3219   8.6529   9.4136   9.5520

     occupation numbers 
     1.0000   1.0000   1.0000   1.0000   1.0000   1.0000   1.0000   1.0000
     1.0000   1.0000   1.0000   1.0000   1.0000   1.0000   1.0000   1.0000
     1.0000   1.0000   1.0000   1.0000   1.0000   1.0000   1.0000   1.0000
     1.0000   1.0000   1.0000   1.0000   1.0000   1.0000   1.0000   1.0000
     1.0000   1.0000   1.0000   1.0000

          k =-0.3333-0.0962-0.2244 (  3197 PWs)   bands (ev):

    -8.7451  -8.3565  -8.3511  -8.2540   2.8102   2.8971   3.0298   3.0657
     3.5981   3.7418   3.7968   3.8298   3.9473   4.0874   4.3062   4.3471
     5.2885   5.3418   5.4077   5.4257   5.5992   5.6763   5.8077   5.9455
     6.2021   6.4570   6.7378   6.9033   7.4738   7.8626   8.0305   8.1790
     8.5295   8.9805   9.0914   9.4627

     occupation numbers 
     1.0000   1.0000   1.0000   1.0000   1.0000   1.0000   1.0000   1.0000
     1.0000   1.0000   1.0000   1.0000   1.0000   1.0000   1.0000   1.0000
     1.0000   1.0000   1.0000   1.0000   1.0000   1.0000   1.0000   1.0000
     1.0000   1.0000   1.0000   1.0000   1.0000   1.0000   1.0000   1.0000
     1.0000   1.0000   1.0000   1.0000

          k = 0.5000-0.1925-0.1122 (  3204 PWs)   bands (ev):

    -8.5358  -8.5358  -8.2047  -8.2046   2.9673   2.9673   3.1098   3.1098
     3.7922   3.7922   3.9299   3.9299   4.2810   4.2810   4.5291   4.5291
     5.3611   5.3611   5.4841   5.4841   5.6754   5.6754   5.7969   5.7969
     6.0737   6.0737   6.5192   6.5192   7.0172   7.0172   7.5159   7.5159
     8.8933   8.8934   9.0648   9.0648

     occupation numbers 
     1.0000   1.0000   1.0000   1.0000   1.0000   1.0000   1.0000   1.0000
     1.0000   1.0000   1.0000   1.0000   1.0000   1.0000   1.0000   1.0000
     1.0000   1.0000   1.0000   1.0000   1.0000   1.0000   1.0000   1.0000
     1.0000   1.0000   1.0000   1.0000   1.0000   1.0000   1.0000   1.0000
     1.0000   1.0000   1.0000   1.0000

          k = 0.5000-0.1925-0.2244 (  3200 PWs)   bands (ev):

    -8.4505  -8.4505  -8.2580  -8.2580   2.7575   2.7575   2.8019   2.8019
     3.8647   3.8647   3.9126   3.9126   4.1442   4.1442   4.3213   4.3213
     5.4691   5.4691   5.5179   5.5179   5.6649   5.6649   5.7836   5.7836
     6.1741   6.1741   6.4194   6.4194   7.5422   7.5422   8.2472   8.2472
     8.6304   8.6304   9.1584   9.1584

     occupation numbers 
     1.0000   1.0000   1.0000   1.0000   1.0000   1.0000   1.0000   1.0000
     1.0000   1.0000   1.0000   1.0000   1.0000   1.0000   1.0000   1.0000
     1.0000   1.0000   1.0000   1.0000   1.0000   1.0000   1.0000   1.0000
     1.0000   1.0000   1.0000   1.0000   1.0000   1.0000   1.0000   1.0000
     1.0000   1.0000   1.0000   1.0000

          k = 0.5000-0.0962-0.1122 (  3202 PWs)   bands (ev):

    -8.5436  -8.5436  -8.2002  -8.2002   3.0662   3.0662   3.2546   3.2546
     3.7189   3.7189   3.8939   3.8939   4.3248   4.3248   4.4962   4.4962
     5.2380   5.2380   5.4466   5.4466   5.6864   5.6864   5.8589   5.8589
     6.0118   6.0118   6.6368   6.6368   6.8896   6.8896   7.5550   7.5550
     8.7178   8.7178   8.9899   8.9899

     occupation numbers 
     1.0000   1.0000   1.0000   1.0000   1.0000   1.0000   1.0000   1.0000
     1.0000   1.0000   1.0000   1.0000   1.0000   1.0000   1.0000   1.0000
     1.0000   1.0000   1.0000   1.0000   1.0000   1.0000   1.0000   1.0000
     1.0000   1.0000   1.0000   1.0000   1.0000   1.0000   1.0000   1.0000
     1.0000   1.0000   1.0000   1.0000

          k = 0.5000-0.0962-0.2244 (  3198 PWs)   bands (ev):

    -8.4560  -8.4560  -8.2564  -8.2564   2.8605   2.8605   2.9257   2.9257
     3.7415   3.7415   3.8481   3.8481   4.1907   4.1907   4.2988   4.2989
     5.3634   5.3634   5.4883   5.4883   5.6980   5.6980   5.8536   5.8536
     6.2250   6.2250   6.6504   6.6504   7.2290   7.2290   8.1804   8.1804
     8.4388   8.4388   9.1672   9.1672

     occupation numbers 
     1.0000   1.0000   1.0000   1.0000   1.0000   1.0000   1.0000   1.0000
     1.0000   1.0000   1.0000   1.0000   1.0000   1.0000   1.0000   1.0000
     1.0000   1.0000   1.0000   1.0000   1.0000   1.0000   1.0000   1.0000
     1.0000   1.0000   1.0000   1.0000   1.0000   1.0000   1.0000   1.0000
     1.0000   1.0000   1.0000   1.0000

     highest occupied level (ev):    10.2401

!    total energy              =    -723.07286196 Ry
     estimated scf accuracy    <          2.1E-09 Ry

     The total energy is the sum of the following terms:
     one-electron contribution =    -262.54899677 Ry
     hartree contribution      =     220.81294289 Ry
     xc contribution           =    -220.07372345 Ry
     ewald contribution        =    -461.26308462 Ry

     convergence has been achieved in  22 iterations

     Forces acting on atoms (cartesian axes, Ry/au):

     atom    1 type  1   force =     0.00000000   -0.00002588   -0.08337818
     atom    2 type  1   force =     0.00000000    0.00001734   -0.08338882
     atom    3 type  2   force =     0.00000000   -0.00000057    0.08338481
     atom    4 type  2   force =     0.00000000    0.00000025    0.08338504
     atom    5 type  1   force =     0.00000000   -0.00001180   -0.08338747
     atom    6 type  1   force =     0.00000000    0.00001986   -0.08338266
     atom    7 type  2   force =     0.00000000   -0.00000167    0.08338442
     atom    8 type  2   force =     0.00000000    0.00000247    0.08338286
     The non-local contrib.  to forces
     atom    1 type  1   force =     0.00000000    0.00001710   -0.27420322
     atom    2 type  1   force =     0.00000000   -0.00002073   -0.27420539
     atom    3 type  2   force =     0.00000000    0.00017603   -0.16935938
     atom    4 type  2   force =     0.00000000   -0.00017459   -0.16935603
     atom    5 type  1   force =     0.00000000    0.00002434   -0.27420742
     atom    6 type  1   force =     0.00000000   -0.00002142   -0.27420404
     atom    7 type  2   force =     0.00000000    0.00016624   -0.16935967
     atom    8 type  2   force =     0.00000000   -0.00017095   -0.16936151
     The ionic contribution  to forces
     atom    1 type  1   force =    -0.00000000    0.00000000   -1.89709917
     atom    2 type  1   force =     0.00000000   -0.00000000   -1.89709917
     atom    3 type  2   force =    -0.00000000    0.00000000    1.89709917
     atom    4 type  2   force =     0.00000000   -0.00000000    1.89709917
     atom    5 type  1   force =    -0.00000000    0.00000000   -1.89709917
     atom    6 type  1   force =     0.00000000   -0.00000000   -1.89709917
     atom    7 type  2   force =    -0.00000000    0.00000000    1.89709917
     atom    8 type  2   force =     0.00000000   -0.00000000    1.89709917
     The local contribution  to forces
     atom    1 type  1   force =    -0.00000008   -0.00002388    2.06273524
     atom    2 type  1   force =    -0.00000000    0.00003936    2.06275103
     atom    3 type  2   force =    -0.00000002   -0.00017394   -1.64532809
     atom    4 type  2   force =     0.00000000    0.00017469   -1.64532804
     atom    5 type  1   force =    -0.00000008   -0.00004883    2.06274724
     atom    6 type  1   force =    -0.00000000    0.00003444    2.06274412
     atom    7 type  2   force =    -0.00000002   -0.00016691   -1.64533258
     atom    8 type  2   force =    -0.00000000    0.00017201   -1.64532807
     The core correction contribution to forces
     atom    1 type  1   force =    -0.00000000    0.00000250    0.02517067
     atom    2 type  1   force =    -0.00000004   -0.00000302    0.02517001
     atom    3 type  2   force =    -0.00000000   -0.00000207    0.00097576
     atom    4 type  2   force =     0.00000001    0.00000200    0.00097572
     atom    5 type  1   force =     0.00000003    0.00000310    0.02517057
     atom    6 type  1   force =    -0.00000001   -0.00000246    0.02517033
     atom    7 type  2   force =    -0.00000001   -0.00000187    0.00097575
     atom    8 type  2   force =     0.00000000    0.00000200    0.00097578
     The Hubbard contrib.    to forces
     atom    1 type  1   force =     0.00000000    0.00000000    0.00000000
     atom    2 type  1   force =     0.00000000    0.00000000    0.00000000
     atom    3 type  2   force =     0.00000000    0.00000000    0.00000000
     atom    4 type  2   force =     0.00000000    0.00000000    0.00000000
     atom    5 type  1   force =     0.00000000    0.00000000    0.00000000
     atom    6 type  1   force =     0.00000000    0.00000000    0.00000000
     atom    7 type  2   force =     0.00000000    0.00000000    0.00000000
     atom    8 type  2   force =     0.00000000    0.00000000    0.00000000
     The SCF correction term to forces
     atom    1 type  1   force =    -0.00000000   -0.00002179    0.00000979
     atom    2 type  1   force =     0.00000000    0.00000155   -0.00001382
     atom    3 type  2   force =     0.00000000   -0.00000078   -0.00001116
     atom    4 type  2   force =     0.00000000   -0.00000203   -0.00001429
     atom    5 type  1   force =    -0.00000000    0.00000939   -0.00000720
     atom    6 type  1   force =     0.00000000    0.00000911   -0.00000242
     atom    7 type  2   force =    -0.00000000    0.00000069   -0.00000675
     atom    8 type  2   force =    -0.00000000   -0.00000077   -0.00001102

     Total force =     0.235846     Total SCF correction =     0.000039

     init_run     :      8.22s CPU      8.57s WALL (       1 calls)
     electrons    :    319.88s CPU    339.26s WALL (       1 calls)
     forces       :      3.72s CPU      3.80s WALL (       1 calls)

     Called by init_run:
     wfcinit      :      3.59s CPU      3.78s WALL (       1 calls)
     wfcinit:atom :      0.08s CPU      0.08s WALL (      20 calls)
     wfcinit:wfcr :      2.63s CPU      2.81s WALL (      20 calls)
     potinit      :      1.26s CPU      1.30s WALL (       1 calls)
     hinit0       :      3.10s CPU      3.12s WALL (       1 calls)

     Called by electrons:
     c_bands      :    284.16s CPU    301.93s WALL (      22 calls)
     sum_band     :     19.57s CPU     19.88s WALL (      22 calls)
     v_of_rho     :      5.42s CPU      5.52s WALL (      23 calls)
     v_h          :      0.27s CPU      0.27s WALL (      23 calls)
     v_xc         :      5.36s CPU      5.46s WALL (      24 calls)
     newd         :      6.54s CPU      7.79s WALL (      23 calls)
     mix_rho      :      0.71s CPU      0.73s WALL (      22 calls)

     Called by c_bands:
     init_us_2    :      4.72s CPU      4.75s WALL (     920 calls)
     init_us_2:cp :      4.71s CPU      4.74s WALL (     920 calls)
     cegterg      :    229.67s CPU    247.29s WALL (     440 calls)

     Called by sum_band:
     sum_band:wei :      0.02s CPU      0.02s WALL (      22 calls)
     sum_band:loo :     13.46s CPU     13.54s WALL (      22 calls)
     sum_band:buf :      0.42s CPU      0.45s WALL (     440 calls)
     sum_band:ini :      2.19s CPU      2.20s WALL (     440 calls)
     sum_band:cal :      3.18s CPU      3.18s WALL (     440 calls)
     sum_band:bec :      0.03s CPU      0.03s WALL (     440 calls)
     addusdens    :      2.18s CPU      2.28s WALL (      22 calls)
     addusd:skk   :      0.01s CPU      0.01s WALL (      44 calls)
     addusd:dgemm :      0.26s CPU      0.28s WALL (      44 calls)
     addusd:qvan2 :      1.12s CPU      1.13s WALL (      44 calls)

     Called by *egterg:
     cdiaghg      :     14.50s CPU     14.54s WALL (    3217 calls)
     cegterg:over :     17.41s CPU     17.50s WALL (    2777 calls)
     cegterg:upda :     14.27s CPU     17.38s WALL (    2777 calls)
     cegterg:last :     41.52s CPU     51.61s WALL (    1876 calls)
     h_psi        :     98.40s CPU     98.79s WALL (    3237 calls)
     s_psi        :     12.26s CPU     12.33s WALL (    3237 calls)
     g_psi        :      2.22s CPU      2.25s WALL (    2777 calls)

     Called by h_psi:
     h_psi:calbec :     17.30s CPU     17.35s WALL (    3237 calls)
     vloc_psi     :     67.25s CPU     67.55s WALL (    3237 calls)
     add_vuspsi   :     13.33s CPU     13.36s WALL (    3237 calls)

     General routines
     calbec       :     21.99s CPU     22.06s WALL (    3757 calls)
     fft          :      2.90s CPU      2.91s WALL (     308 calls)
     ffts         :      0.39s CPU      0.39s WALL (      45 calls)
     fftw         :     64.77s CPU     65.05s WALL (   40530 calls)
     interpolate  :      0.56s CPU      0.57s WALL (      23 calls)

     Parallel routines

     PWSCF        :   5m32.67s CPU   5m52.51s WALL


   This run was terminated on:  16: 2:37  26Aug2025            

=------------------------------------------------------------------------------=
   JOB DONE.
=------------------------------------------------------------------------------=
