
     Program PWSCF v.7.2 starts on 23Jun2025 at 16:12:17 

     This program is part of the open-source Quantum ESPRESSO suite
     for quantum simulation of materials; please cite
         "P. Giannozzi et al., J. Phys.:Condens. Matter 21 395502 (2009);
         "P. Giannozzi et al., J. Phys.:Condens. Matter 29 465901 (2017);
         "P. Giannozzi et al., J. Chem. Phys. 152 154105 (2020);
          URL http://www.quantum-espresso.org", 
     in publications or presentations arising from this work. More details at
     http://www.quantum-espresso.org/quote

     Parallel version (MPI), running on     8 processors

     MPI processes distributed on     1 nodes
     90854 MiB available memory on the printing compute node when the environment starts

     Reading input from /home/jvc/QEspresso7.2/ZnO_DataBase/scfs_rnd025.in/scf-6.43-1.71-2.in

     Current dimensions of program PWSCF are:
     Max number of different atomic species (ntypx) = 10
     Max number of k-points (npk) =  40000
     Max angular momentum in pseudopotentials (lmaxx) =  4
     file Zn.upf: wavefunction(s)  3D renormalized

     R & G space division:  proc/nbgrp/npool/nimage =       8
     Subspace diagonalization in iterative solution of the eigenvalue problem:
     a serial algorithm will be used


     Parallelization info
     --------------------
     sticks:   dense  smooth     PW     G-vecs:    dense   smooth      PW
     Min         143      71     20                 6653     2351     386
     Max         145      73     21                 6654     2354     395
     Sum        1147     571    163                53225    18823    3117

     Using Slab Decomposition



     bravais-lattice index     =            4
     lattice parameter (alat)  =       6.4260  a.u.
     unit-cell volume          =     393.2361 (a.u.)^3
     number of atoms/cell      =            4
     number of atomic types    =            2
     number of electrons       =        36.00
     number of Kohn-Sham states=           18
     kinetic-energy cutoff     =      50.0000  Ry
     charge density cutoff     =     400.0000  Ry
     scf convergence threshold =      1.0E-08
     mixing beta               =       0.3000
     number of iterations used =            8  plain     mixing
     Exchange-correlation= PBE
                           (   1   4   3   4   0   0   0)

     celldm(1)=   6.425974  celldm(2)=   0.000000  celldm(3)=   1.711220
     celldm(4)=   0.000000  celldm(5)=   0.000000  celldm(6)=   0.000000

     crystal axes: (cart. coord. in units of alat)
               a(1) = (   1.000000   0.000000   0.000000 )  
               a(2) = (  -0.500000   0.866025   0.000000 )  
               a(3) = (   0.000000   0.000000   1.711220 )  

     reciprocal axes: (cart. coord. in units 2 pi/alat)
               b(1) = (  1.000000  0.577350 -0.000000 )  
               b(2) = (  0.000000  1.154701  0.000000 )  
               b(3) = (  0.000000 -0.000000  0.584378 )  


     PseudoPot. # 1 for Zn read from file:
     ./pseudos/Zn.upf
     MD5 check sum: 7f56cabf9682ed8c977c2f7d0c5985c5
     Pseudo is Ultrasoft + core correction, Zval = 12.0
     Generated using &quot;atomic&quot; code by A. Dal Corso  v.6.2.2
     Using radial grid of 1201 points,  6 beta functions with: 
                l(1) =   0
                l(2) =   0
                l(3) =   1
                l(4) =   1
                l(5) =   2
                l(6) =   2
     Q(r) pseudized with 0 coefficients 


     PseudoPot. # 2 for O  read from file:
     ./pseudos/O.upf
     MD5 check sum: 91400c9766925bcf19f520983a725ff0
     Pseudo is Ultrasoft + core correction, Zval =  6.0
     Generated using &quot;atomic&quot; code by A. Dal Corso  v.6.3MaX
     Using radial grid of 1095 points,  4 beta functions with: 
                l(1) =   0
                l(2) =   0
                l(3) =   1
                l(4) =   1
     Q(r) pseudized with 0 coefficients 


     atomic species   valence    mass     pseudopotential
        Zn            12.00    63.38000     Zn( 1.00)
        O              6.00    15.99900     O ( 1.00)

     No symmetry found



   Cartesian axes

     site n.     atom                  positions (alat units)
         1           Zn  tau(   1) = (   0.4986884   0.1538696   1.1969185  )
         2           Zn  tau(   2) = (  -0.0627907   0.3890655   0.1370254  )
         3           O   tau(   3) = (   0.6350803   0.1646876   1.3723325  )
         4           O   tau(   4) = (  -0.0567107   0.5082521   0.3032158  )

     number of k points=   112

     Number of k-points >= 100: set verbosity='high' to print them.

     Dense  grid:    53225 G-vectors     FFT dimensions: (  45,  45,  72)

     Smooth grid:    18823 G-vectors     FFT dimensions: (  30,  30,  50)

     Estimated max dynamical RAM per process >      36.07 MB

     Estimated total dynamical RAM >     288.57 MB

     Check: negative core charge=   -0.000002

     Initial potential from superposition of free atoms

     starting charge      35.9925, renormalised to      36.0000
     Starting wfcs are   26 randomized atomic wfcs

     total cpu time spent up to now is        4.5 secs

     Self-consistent Calculation

     iteration #  1     ecut=    50.00 Ry     beta= 0.30
     Davidson diagonalization with overlap
     ethr =  1.00E-02,  avg # of iterations =  6.9

     total cpu time spent up to now is       17.0 secs

     total energy              =    -338.67002898 Ry
     estimated scf accuracy    <       1.16637262 Ry

     iteration #  2     ecut=    50.00 Ry     beta= 0.30
     Davidson diagonalization with overlap
     ethr =  3.24E-03,  avg # of iterations =  3.7

     total cpu time spent up to now is       24.7 secs

     total energy              =    -338.70930388 Ry
     estimated scf accuracy    <       0.31070451 Ry

     iteration #  3     ecut=    50.00 Ry     beta= 0.30
     Davidson diagonalization with overlap
     ethr =  8.63E-04,  avg # of iterations =  4.2

     total cpu time spent up to now is       33.4 secs

     total energy              =    -338.78441653 Ry
     estimated scf accuracy    <       0.10144401 Ry

     iteration #  4     ecut=    50.00 Ry     beta= 0.30
     Davidson diagonalization with overlap
     ethr =  2.82E-04,  avg # of iterations =  2.0

     total cpu time spent up to now is       39.8 secs

     total energy              =    -338.76563836 Ry
     estimated scf accuracy    <       0.03995219 Ry

     iteration #  5     ecut=    50.00 Ry     beta= 0.30
     Davidson diagonalization with overlap
     ethr =  1.11E-04,  avg # of iterations =  5.8

     total cpu time spent up to now is       51.1 secs

     total energy              =    -338.77564429 Ry
     estimated scf accuracy    <       0.07170029 Ry

     iteration #  6     ecut=    50.00 Ry     beta= 0.30
     Davidson diagonalization with overlap
     ethr =  1.11E-04,  avg # of iterations =  2.3

     total cpu time spent up to now is       57.7 secs

     total energy              =    -338.76854602 Ry
     estimated scf accuracy    <       0.01846451 Ry

     iteration #  7     ecut=    50.00 Ry     beta= 0.30
     Davidson diagonalization with overlap
     ethr =  5.13E-05,  avg # of iterations =  6.2

     total cpu time spent up to now is       69.3 secs

     total energy              =    -338.77796883 Ry
     estimated scf accuracy    <       0.03153735 Ry

     iteration #  8     ecut=    50.00 Ry     beta= 0.30
     Davidson diagonalization with overlap
     ethr =  5.13E-05,  avg # of iterations =  3.3

     total cpu time spent up to now is       76.3 secs

     total energy              =    -338.77931447 Ry
     estimated scf accuracy    <       0.00461473 Ry

     iteration #  9     ecut=    50.00 Ry     beta= 0.30
     Davidson diagonalization with overlap
     ethr =  1.28E-05,  avg # of iterations =  4.9

     total cpu time spent up to now is       86.6 secs

     total energy              =    -338.78244346 Ry
     estimated scf accuracy    <       0.00086380 Ry

     iteration # 10     ecut=    50.00 Ry     beta= 0.30
     Davidson diagonalization with overlap
     ethr =  2.40E-06,  avg # of iterations =  3.6

     total cpu time spent up to now is       93.6 secs

     total energy              =    -338.78187065 Ry
     estimated scf accuracy    <       0.00153658 Ry

     iteration # 11     ecut=    50.00 Ry     beta= 0.30
     Davidson diagonalization with overlap
     ethr =  2.40E-06,  avg # of iterations =  3.8

     total cpu time spent up to now is      101.4 secs

     total energy              =    -338.78203366 Ry
     estimated scf accuracy    <       0.00008133 Ry

     iteration # 12     ecut=    50.00 Ry     beta= 0.30
     Davidson diagonalization with overlap
     ethr =  2.26E-07,  avg # of iterations =  5.2

     total cpu time spent up to now is      111.2 secs

     total energy              =    -338.78207590 Ry
     estimated scf accuracy    <       0.00001673 Ry

     iteration # 13     ecut=    50.00 Ry     beta= 0.30
     Davidson diagonalization with overlap
     ethr =  4.65E-08,  avg # of iterations =  4.4

     total cpu time spent up to now is      120.3 secs

     total energy              =    -338.78208342 Ry
     estimated scf accuracy    <       0.00000215 Ry

     iteration # 14     ecut=    50.00 Ry     beta= 0.30
     Davidson diagonalization with overlap
     ethr =  5.96E-09,  avg # of iterations =  5.7

     total cpu time spent up to now is      130.8 secs

     total energy              =    -338.78207985 Ry
     estimated scf accuracy    <       0.00001387 Ry

     iteration # 15     ecut=    50.00 Ry     beta= 0.30
     Davidson diagonalization with overlap
     ethr =  5.96E-09,  avg # of iterations =  5.6

     total cpu time spent up to now is      141.5 secs

     total energy              =    -338.78208135 Ry
     estimated scf accuracy    <       0.00000050 Ry

     iteration # 16     ecut=    50.00 Ry     beta= 0.30
     Davidson diagonalization with overlap
     ethr =  1.40E-09,  avg # of iterations =  4.5

     total cpu time spent up to now is      150.3 secs

     End of self-consistent calculation

     Number of k-points >= 100: set verbosity='high' to print the bands.

     highest occupied level (ev):     6.8734

!    total energy              =    -338.78208151 Ry
     estimated scf accuracy    <          5.1E-09 Ry

     The total energy is the sum of the following terms:
     one-electron contribution =    -332.76374273 Ry
     hartree contribution      =     196.17008784 Ry
     xc contribution           =    -113.81187116 Ry
     ewald contribution        =     -88.37655546 Ry

     convergence has been achieved in  16 iterations

     Forces acting on atoms (cartesian axes, Ry/au):

     atom    1 type  1   force =   -15.44462822   -1.23370970  -19.92956616
     atom    2 type  1   force =    -0.97383785  -19.10995760  -26.56334309
     atom    3 type  2   force =    15.40578170    1.19918056   19.75401939
     atom    4 type  2   force =     1.01268437   19.14448674   26.73888986
     The non-local contrib.  to forces
     atom    1 type  1   force =     5.65434576    0.45385828    7.22513987
     atom    2 type  1   force =     0.40078829    8.02780194   11.19735787
     atom    3 type  2   force =    -1.41408537   -0.09046911   -2.02648778
     atom    4 type  2   force =    -0.07265841   -2.34969762   -3.16599222
     The ionic contribution  to forces
     atom    1 type  1   force =   -41.17460386   -3.41515047  -69.13140948
     atom    2 type  1   force =    -0.34454813  -44.98865888  -47.75578638
     atom    3 type  2   force =    38.99987577    2.02595997   43.81071575
     atom    4 type  2   force =     2.51927622   46.37784939   73.07648011
     The local contribution  to forces
     atom    1 type  1   force =    19.50211893    1.68089248   41.23456052
     atom    2 type  1   force =    -1.05695604   17.20101465    9.09952682
     atom    3 type  2   force =   -22.15410502   -0.73435797  -21.99873946
     atom    4 type  2   force =    -1.43214947  -24.84638085  -43.11872353
     The core correction contribution to forces
     atom    1 type  1   force =     0.57331932    0.04671555    0.74171674
     atom    2 type  1   force =     0.02696553    0.64979119    0.89577944
     atom    3 type  2   force =    -0.02581097   -0.00192029   -0.03141713
     atom    4 type  2   force =    -0.00172051   -0.03728962   -0.05267676
     The Hubbard contrib.    to forces
     atom    1 type  1   force =     0.00000000    0.00000000    0.00000000
     atom    2 type  1   force =     0.00000000    0.00000000    0.00000000
     atom    3 type  2   force =     0.00000000    0.00000000    0.00000000
     atom    4 type  2   force =     0.00000000    0.00000000    0.00000000
     The SCF correction term to forces
     atom    1 type  1   force =     0.00025208    0.00000307    0.00051900
     atom    2 type  1   force =    -0.00002706    0.00012211   -0.00012804
     atom    3 type  2   force =    -0.00003226   -0.00000343    0.00004082
     atom    4 type  2   force =    -0.00000302    0.00003405   -0.00010495

     Total force =    58.485030     Total SCF correction =     0.000616

     Writing all to output data dir ./ZnO_ANN.save/

     init_run     :      3.93s CPU      4.04s WALL (       1 calls)
     electrons    :    143.20s CPU    145.77s WALL (       1 calls)
     forces       :      1.22s CPU      1.24s WALL (       1 calls)

     Called by init_run:
     wfcinit      :      2.99s CPU      3.06s WALL (       1 calls)
     potinit      :      0.30s CPU      0.30s WALL (       1 calls)
     hinit0       :      0.54s CPU      0.55s WALL (       1 calls)

     Called by electrons:
     c_bands      :    128.08s CPU    130.26s WALL (      16 calls)
     sum_band     :     13.64s CPU     13.97s WALL (      16 calls)
     v_of_rho     :      0.32s CPU      0.36s WALL (      17 calls)
     newd         :      1.17s CPU      1.20s WALL (      17 calls)
     mix_rho      :      0.05s CPU      0.05s WALL (      16 calls)

     Called by c_bands:
     init_us_2    :      1.06s CPU      1.08s WALL (    3808 calls)
     init_us_2:cp :      1.05s CPU      1.07s WALL (    3808 calls)
     cegterg      :    124.97s CPU    127.09s WALL (    1792 calls)

     Called by *egterg:
     cdiaghg      :     11.29s CPU     11.37s WALL (    9883 calls)
     h_psi        :     76.80s CPU     78.43s WALL (    9995 calls)
     s_psi        :      9.78s CPU      9.86s WALL (    9995 calls)
     g_psi        :      0.26s CPU      0.26s WALL (    8091 calls)

     Called by h_psi:
     h_psi:calbec :     10.06s CPU     10.39s WALL (    9995 calls)
     vloc_psi     :     56.71s CPU     57.93s WALL (    9995 calls)
     add_vuspsi   :      9.81s CPU      9.89s WALL (    9995 calls)

     General routines
     calbec       :     13.68s CPU     14.11s WALL (   12235 calls)
     fft          :      0.39s CPU      0.44s WALL (     230 calls)
     ffts         :      0.12s CPU      0.12s WALL (      33 calls)
     fftw         :     56.96s CPU     58.20s WALL (  248124 calls)
     interpolate  :      0.13s CPU      0.13s WALL (      17 calls)

     Parallel routines

     PWSCF        :   2m29.12s CPU   2m32.08s WALL


   This run was terminated on:  16:14:49  23Jun2025            

=------------------------------------------------------------------------------=
   JOB DONE.
=------------------------------------------------------------------------------=
Note: The following floating-point exceptions are signalling: IEEE_INVALID_FLAG
