
     Program PWSCF v.7.2 starts on 23Jun2025 at 12:20:23 

     This program is part of the open-source Quantum ESPRESSO suite
     for quantum simulation of materials; please cite
         "P. Giannozzi et al., J. Phys.:Condens. Matter 21 395502 (2009);
         "P. Giannozzi et al., J. Phys.:Condens. Matter 29 465901 (2017);
         "P. Giannozzi et al., J. Chem. Phys. 152 154105 (2020);
          URL http://www.quantum-espresso.org", 
     in publications or presentations arising from this work. More details at
     http://www.quantum-espresso.org/quote

     Parallel version (MPI), running on     8 processors

     MPI processes distributed on     1 nodes
     91387 MiB available memory on the printing compute node when the environment starts

     Reading input from /home/jvc/QEspresso7.2/ZnO_DataBase/scfs_rnd025.in/scf-5.68-1.61-5.in

     Current dimensions of program PWSCF are:
     Max number of different atomic species (ntypx) = 10
     Max number of k-points (npk) =  40000
     Max angular momentum in pseudopotentials (lmaxx) =  4
     file Zn.upf: wavefunction(s)  3D renormalized

     R & G space division:  proc/nbgrp/npool/nimage =       8
     Subspace diagonalization in iterative solution of the eigenvalue problem:
     a serial algorithm will be used


     Parallelization info
     --------------------
     sticks:   dense  smooth     PW     G-vecs:    dense   smooth      PW
     Min         111      54     17                 4325     1534     263
     Max         112      55     18                 4330     1539     268
     Sum         889     439    139                34607    12299    2117

     Using Slab Decomposition



     bravais-lattice index     =            4
     lattice parameter (alat)  =       5.6845  a.u.
     unit-cell volume          =     256.8094 (a.u.)^3
     number of atoms/cell      =            4
     number of atomic types    =            2
     number of electrons       =        36.00
     number of Kohn-Sham states=           18
     kinetic-energy cutoff     =      50.0000  Ry
     charge density cutoff     =     400.0000  Ry
     scf convergence threshold =      1.0E-08
     mixing beta               =       0.3000
     number of iterations used =            8  plain     mixing
     Exchange-correlation= PBE
                           (   1   4   3   4   0   0   0)

     celldm(1)=   5.684516  celldm(2)=   0.000000  celldm(3)=   1.614358
     celldm(4)=   0.000000  celldm(5)=   0.000000  celldm(6)=   0.000000

     crystal axes: (cart. coord. in units of alat)
               a(1) = (   1.000000   0.000000   0.000000 )  
               a(2) = (  -0.500000   0.866025   0.000000 )  
               a(3) = (   0.000000   0.000000   1.614358 )  

     reciprocal axes: (cart. coord. in units 2 pi/alat)
               b(1) = (  1.000000  0.577350 -0.000000 )  
               b(2) = (  0.000000  1.154701  0.000000 )  
               b(3) = (  0.000000 -0.000000  0.619441 )  


     PseudoPot. # 1 for Zn read from file:
     ./pseudos/Zn.upf
     MD5 check sum: 7f56cabf9682ed8c977c2f7d0c5985c5
     Pseudo is Ultrasoft + core correction, Zval = 12.0
     Generated using &quot;atomic&quot; code by A. Dal Corso  v.6.2.2
     Using radial grid of 1201 points,  6 beta functions with: 
                l(1) =   0
                l(2) =   0
                l(3) =   1
                l(4) =   1
                l(5) =   2
                l(6) =   2
     Q(r) pseudized with 0 coefficients 


     PseudoPot. # 2 for O  read from file:
     ./pseudos/O.upf
     MD5 check sum: 91400c9766925bcf19f520983a725ff0
     Pseudo is Ultrasoft + core correction, Zval =  6.0
     Generated using &quot;atomic&quot; code by A. Dal Corso  v.6.3MaX
     Using radial grid of 1095 points,  4 beta functions with: 
                l(1) =   0
                l(2) =   0
                l(3) =   1
                l(4) =   1
     Q(r) pseudized with 0 coefficients 


     atomic species   valence    mass     pseudopotential
        Zn            12.00    63.38000     Zn( 1.00)
        O              6.00    15.99900     O ( 1.00)

     No symmetry found



   Cartesian axes

     site n.     atom                  positions (alat units)
         1           Zn  tau(   1) = (   0.3827382   0.3761742   0.4964260  )
         2           Zn  tau(   2) = (   0.1260810   0.6316694   0.3871421  )
         3           O   tau(   3) = (   0.5965035   0.2348966   1.3693588  )
         4           O   tau(   4) = (   0.1044600   0.6912505   0.2373768  )

     number of k points=   112

     Number of k-points >= 100: set verbosity='high' to print them.

     Dense  grid:    34607 G-vectors     FFT dimensions: (  40,  40,  60)

     Smooth grid:    12299 G-vectors     FFT dimensions: (  25,  25,  45)

     Estimated max dynamical RAM per process >      24.67 MB

     Estimated total dynamical RAM >     197.40 MB

     Check: negative core charge=   -0.000003

     Initial potential from superposition of free atoms

     starting charge      35.9925, renormalised to      36.0000
     Starting wfcs are   26 randomized atomic wfcs

     total cpu time spent up to now is        3.3 secs

     Self-consistent Calculation

     iteration #  1     ecut=    50.00 Ry     beta= 0.30
     Davidson diagonalization with overlap
     ethr =  1.00E-02,  avg # of iterations =  4.9

     total cpu time spent up to now is       11.3 secs

     total energy              =    -320.51014181 Ry
     estimated scf accuracy    <       3.38932398 Ry

     iteration #  2     ecut=    50.00 Ry     beta= 0.30
     Davidson diagonalization with overlap
     ethr =  9.41E-03,  avg # of iterations =  5.7

     total cpu time spent up to now is       16.2 secs

     total energy              =    -320.72689580 Ry
     estimated scf accuracy    <       0.57359120 Ry

     iteration #  3     ecut=    50.00 Ry     beta= 0.30
     Davidson diagonalization with overlap
     ethr =  1.59E-03,  avg # of iterations =  7.8

     total cpu time spent up to now is       23.3 secs

     total energy              =    -320.57644587 Ry
     estimated scf accuracy    <       0.95323042 Ry

     iteration #  4     ecut=    50.00 Ry     beta= 0.30
     Davidson diagonalization with overlap
     ethr =  1.59E-03,  avg # of iterations =  7.4

     total cpu time spent up to now is       29.7 secs

     total energy              =    -320.78043475 Ry
     estimated scf accuracy    <       1.47089607 Ry

     iteration #  5     ecut=    50.00 Ry     beta= 0.30
     Davidson diagonalization with overlap
     ethr =  1.59E-03,  avg # of iterations =  5.4

     total cpu time spent up to now is       34.3 secs

     total energy              =    -320.63896906 Ry
     estimated scf accuracy    <       0.41039217 Ry

     iteration #  6     ecut=    50.00 Ry     beta= 0.30
     Davidson diagonalization with overlap
     c_bands:  2 eigenvalues not converged
     ethr =  1.14E-03,  avg # of iterations = 11.5

     total cpu time spent up to now is       41.6 secs

     total energy              =    -321.06181605 Ry
     estimated scf accuracy    <       3.39920206 Ry

     iteration #  7     ecut=    50.00 Ry     beta= 0.30
     Davidson diagonalization with overlap
     ethr =  1.14E-03,  avg # of iterations =  1.1

     total cpu time spent up to now is       45.1 secs

     total energy              =    -320.62389802 Ry
     estimated scf accuracy    <       3.15952975 Ry

     iteration #  8     ecut=    50.00 Ry     beta= 0.30
     Davidson diagonalization with overlap
     c_bands:  1 eigenvalues not converged
     ethr =  1.14E-03,  avg # of iterations =  8.6

     total cpu time spent up to now is       51.5 secs

     total energy              =    -320.85621820 Ry
     estimated scf accuracy    <       0.04302903 Ry

     iteration #  9     ecut=    50.00 Ry     beta= 0.30
     Davidson diagonalization with overlap
     c_bands:  1 eigenvalues not converged
     ethr =  1.20E-04,  avg # of iterations =  6.0

     total cpu time spent up to now is       56.4 secs

     total energy              =    -320.87134491 Ry
     estimated scf accuracy    <       0.01024852 Ry

     iteration # 10     ecut=    50.00 Ry     beta= 0.30
     Davidson diagonalization with overlap
     c_bands:  1 eigenvalues not converged
     c_bands:  1 eigenvalues not converged
     ethr =  2.85E-05,  avg # of iterations = 11.7

     total cpu time spent up to now is       64.6 secs

     total energy              =    -320.92784194 Ry
     estimated scf accuracy    <       0.24298841 Ry

     iteration # 11     ecut=    50.00 Ry     beta= 0.30
     Davidson diagonalization with overlap
     c_bands:  2 eigenvalues not converged
     ethr =  2.85E-05,  avg # of iterations =  7.5

     total cpu time spent up to now is       70.6 secs

     total energy              =    -320.88078847 Ry
     estimated scf accuracy    <       0.44067125 Ry

     iteration # 12     ecut=    50.00 Ry     beta= 0.30
     Davidson diagonalization with overlap
     ethr =  2.85E-05,  avg # of iterations =  7.6

     total cpu time spent up to now is       76.9 secs

     total energy              =    -320.86304497 Ry
     estimated scf accuracy    <       0.17539839 Ry

     iteration # 13     ecut=    50.00 Ry     beta= 0.30
     Davidson diagonalization with overlap
     ethr =  2.85E-05,  avg # of iterations =  7.5

     total cpu time spent up to now is       83.3 secs

     total energy              =    -320.87136309 Ry
     estimated scf accuracy    <       0.02589152 Ry

     iteration # 14     ecut=    50.00 Ry     beta= 0.30
     Davidson diagonalization with overlap
     ethr =  2.85E-05,  avg # of iterations =  1.0

     total cpu time spent up to now is       86.9 secs

     total energy              =    -320.87121595 Ry
     estimated scf accuracy    <       0.02691993 Ry

     iteration # 15     ecut=    50.00 Ry     beta= 0.30
     Davidson diagonalization with overlap
     ethr =  2.85E-05,  avg # of iterations =  1.0

     total cpu time spent up to now is       90.4 secs

     total energy              =    -320.87067127 Ry
     estimated scf accuracy    <       0.02684570 Ry

     iteration # 16     ecut=    50.00 Ry     beta= 0.30
     Davidson diagonalization with overlap
     ethr =  2.85E-05,  avg # of iterations =  1.0

     total cpu time spent up to now is       94.0 secs

     total energy              =    -320.85925071 Ry
     estimated scf accuracy    <       0.02582429 Ry

     iteration # 17     ecut=    50.00 Ry     beta= 0.30
     Davidson diagonalization with overlap
     c_bands:  1 eigenvalues not converged
     c_bands:  1 eigenvalues not converged
     c_bands:  1 eigenvalues not converged
     c_bands:  1 eigenvalues not converged
     c_bands:  1 eigenvalues not converged
     ethr =  2.85E-05,  avg # of iterations =  9.5

     total cpu time spent up to now is      101.0 secs

     total energy              =    -320.86464121 Ry
     estimated scf accuracy    <       0.05951992 Ry

     iteration # 18     ecut=    50.00 Ry     beta= 0.30
     Davidson diagonalization with overlap
     ethr =  2.85E-05,  avg # of iterations =  5.9

     total cpu time spent up to now is      106.1 secs

     total energy              =    -320.86747087 Ry
     estimated scf accuracy    <       0.01444471 Ry

     iteration # 19     ecut=    50.00 Ry     beta= 0.30
     Davidson diagonalization with overlap
     ethr =  2.85E-05,  avg # of iterations =  1.4

     total cpu time spent up to now is      109.8 secs

     total energy              =    -320.86707511 Ry
     estimated scf accuracy    <       0.01419177 Ry

     iteration # 20     ecut=    50.00 Ry     beta= 0.30
     Davidson diagonalization with overlap
     ethr =  2.85E-05,  avg # of iterations =  1.7

     total cpu time spent up to now is      113.7 secs

     total energy              =    -320.86615938 Ry
     estimated scf accuracy    <       0.01093558 Ry

     iteration # 21     ecut=    50.00 Ry     beta= 0.30
     Davidson diagonalization with overlap
     ethr =  2.85E-05,  avg # of iterations =  1.9

     total cpu time spent up to now is      117.5 secs

     total energy              =    -320.86544353 Ry
     estimated scf accuracy    <       0.00641225 Ry

     iteration # 22     ecut=    50.00 Ry     beta= 0.30
     Davidson diagonalization with overlap
     ethr =  1.78E-05,  avg # of iterations =  7.2

     total cpu time spent up to now is      123.2 secs

     total energy              =    -320.86788654 Ry
     estimated scf accuracy    <       0.00313313 Ry

     iteration # 23     ecut=    50.00 Ry     beta= 0.30
     Davidson diagonalization with overlap
     ethr =  8.70E-06,  avg # of iterations =  2.8

     total cpu time spent up to now is      127.3 secs

     total energy              =    -320.86771999 Ry
     estimated scf accuracy    <       0.00414588 Ry

     iteration # 24     ecut=    50.00 Ry     beta= 0.30
     Davidson diagonalization with overlap
     ethr =  8.70E-06,  avg # of iterations =  1.4

     total cpu time spent up to now is      131.0 secs

     total energy              =    -320.86744832 Ry
     estimated scf accuracy    <       0.00305958 Ry

     iteration # 25     ecut=    50.00 Ry     beta= 0.30
     Davidson diagonalization with overlap
     ethr =  8.50E-06,  avg # of iterations =  1.7

     total cpu time spent up to now is      134.8 secs

     total energy              =    -320.86742376 Ry
     estimated scf accuracy    <       0.00197150 Ry

     iteration # 26     ecut=    50.00 Ry     beta= 0.30
     Davidson diagonalization with overlap
     ethr =  5.48E-06,  avg # of iterations =  2.5

     total cpu time spent up to now is      138.8 secs

     total energy              =    -320.86749317 Ry
     estimated scf accuracy    <       0.00103336 Ry

     iteration # 27     ecut=    50.00 Ry     beta= 0.30
     Davidson diagonalization with overlap
     ethr =  2.87E-06,  avg # of iterations =  5.5

     total cpu time spent up to now is      143.8 secs

     total energy              =    -320.86767673 Ry
     estimated scf accuracy    <       0.00004134 Ry

     iteration # 28     ecut=    50.00 Ry     beta= 0.30
     Davidson diagonalization with overlap
     c_bands:  1 eigenvalues not converged
     ethr =  1.15E-07,  avg # of iterations =  9.1

     total cpu time spent up to now is      150.1 secs

     total energy              =    -320.86771684 Ry
     estimated scf accuracy    <       0.00002233 Ry

     iteration # 29     ecut=    50.00 Ry     beta= 0.30
     Davidson diagonalization with overlap
     ethr =  6.20E-08,  avg # of iterations =  2.7

     total cpu time spent up to now is      154.2 secs

     total energy              =    -320.86771867 Ry
     estimated scf accuracy    <       0.00004094 Ry

     iteration # 30     ecut=    50.00 Ry     beta= 0.30
     Davidson diagonalization with overlap
     ethr =  6.20E-08,  avg # of iterations =  2.4

     total cpu time spent up to now is      158.2 secs

     total energy              =    -320.86773332 Ry
     estimated scf accuracy    <       0.00005100 Ry

     iteration # 31     ecut=    50.00 Ry     beta= 0.30
     Davidson diagonalization with overlap
     ethr =  6.20E-08,  avg # of iterations =  8.6

     total cpu time spent up to now is      164.2 secs

     total energy              =    -320.86774216 Ry
     estimated scf accuracy    <       0.00036785 Ry

     iteration # 32     ecut=    50.00 Ry     beta= 0.30
     Davidson diagonalization with overlap
     ethr =  6.20E-08,  avg # of iterations =  1.0

     total cpu time spent up to now is      167.7 secs

     total energy              =    -320.86771036 Ry
     estimated scf accuracy    <       0.00035913 Ry

     iteration # 33     ecut=    50.00 Ry     beta= 0.30
     Davidson diagonalization with overlap
     ethr =  6.20E-08,  avg # of iterations =  8.1

     total cpu time spent up to now is      173.4 secs

     total energy              =    -320.86769689 Ry
     estimated scf accuracy    <       0.00008545 Ry

     iteration # 34     ecut=    50.00 Ry     beta= 0.30
     Davidson diagonalization with overlap
     c_bands:  1 eigenvalues not converged
     ethr =  6.20E-08,  avg # of iterations =  8.0

     total cpu time spent up to now is      179.7 secs

     total energy              =    -320.86777614 Ry
     estimated scf accuracy    <       0.00004976 Ry

     iteration # 35     ecut=    50.00 Ry     beta= 0.30
     Davidson diagonalization with overlap
     c_bands:  2 eigenvalues not converged
     c_bands:  1 eigenvalues not converged
     c_bands:  1 eigenvalues not converged
     c_bands:  1 eigenvalues not converged
     c_bands:  1 eigenvalues not converged
     c_bands:  1 eigenvalues not converged
     c_bands:  1 eigenvalues not converged
     c_bands:  1 eigenvalues not converged
     c_bands:  1 eigenvalues not converged
     c_bands:  1 eigenvalues not converged
     c_bands:  1 eigenvalues not converged
     c_bands:  1 eigenvalues not converged
     c_bands:  1 eigenvalues not converged
     c_bands:  1 eigenvalues not converged
     c_bands:  1 eigenvalues not converged
     c_bands:  1 eigenvalues not converged
     c_bands:  1 eigenvalues not converged
     c_bands:  1 eigenvalues not converged
     c_bands:  1 eigenvalues not converged
     c_bands:  1 eigenvalues not converged
     c_bands:  1 eigenvalues not converged
     c_bands:  1 eigenvalues not converged
     c_bands:  1 eigenvalues not converged
     c_bands:  1 eigenvalues not converged
     c_bands:  1 eigenvalues not converged
     c_bands:  1 eigenvalues not converged
     c_bands:  1 eigenvalues not converged
     c_bands:  1 eigenvalues not converged
     c_bands:  1 eigenvalues not converged
     c_bands:  1 eigenvalues not converged
     ethr =  6.20E-08,  avg # of iterations = 16.7

     total cpu time spent up to now is      189.4 secs

     total energy              =    -320.86765509 Ry
     estimated scf accuracy    <       0.00197649 Ry

     iteration # 36     ecut=    50.00 Ry     beta= 0.30
     Davidson diagonalization with overlap
     c_bands:  2 eigenvalues not converged
     c_bands:  1 eigenvalues not converged
     c_bands:  1 eigenvalues not converged
     c_bands:  1 eigenvalues not converged
     c_bands:  1 eigenvalues not converged
     c_bands:  1 eigenvalues not converged
     c_bands:  1 eigenvalues not converged
     c_bands:  1 eigenvalues not converged
     c_bands:  1 eigenvalues not converged
     c_bands:  1 eigenvalues not converged
     c_bands:  1 eigenvalues not converged
     ethr =  6.20E-08,  avg # of iterations = 12.7

     total cpu time spent up to now is      197.4 secs

     total energy              =    -320.86772778 Ry
     estimated scf accuracy    <       0.00024724 Ry

     iteration # 37     ecut=    50.00 Ry     beta= 0.30
     Davidson diagonalization with overlap
     ethr =  6.20E-08,  avg # of iterations =  1.3

     total cpu time spent up to now is      200.9 secs

     total energy              =    -320.86771510 Ry
     estimated scf accuracy    <       0.00023961 Ry

     iteration # 38     ecut=    50.00 Ry     beta= 0.30
     Davidson diagonalization with overlap
     ethr =  6.20E-08,  avg # of iterations =  4.3

     total cpu time spent up to now is      205.3 secs

     total energy              =    -320.86771012 Ry
     estimated scf accuracy    <       0.00014225 Ry

     iteration # 39     ecut=    50.00 Ry     beta= 0.30
     Davidson diagonalization with overlap
     ethr =  6.20E-08,  avg # of iterations =  2.0

     total cpu time spent up to now is      209.2 secs

     total energy              =    -320.86771629 Ry
     estimated scf accuracy    <       0.00011432 Ry

     iteration # 40     ecut=    50.00 Ry     beta= 0.30
     Davidson diagonalization with overlap
     ethr =  6.20E-08,  avg # of iterations =  1.1

     total cpu time spent up to now is      212.7 secs

     total energy              =    -320.86770602 Ry
     estimated scf accuracy    <       0.00011942 Ry

     iteration # 41     ecut=    50.00 Ry     beta= 0.30
     Davidson diagonalization with overlap
     ethr =  6.20E-08,  avg # of iterations =  6.6

     total cpu time spent up to now is      218.0 secs

     total energy              =    -320.86771014 Ry
     estimated scf accuracy    <       0.00002695 Ry

     iteration # 42     ecut=    50.00 Ry     beta= 0.30
     Davidson diagonalization with overlap
     ethr =  6.20E-08,  avg # of iterations =  1.7

     total cpu time spent up to now is      221.8 secs

     total energy              =    -320.86770813 Ry
     estimated scf accuracy    <       0.00002114 Ry

     iteration # 43     ecut=    50.00 Ry     beta= 0.30
     Davidson diagonalization with overlap
     ethr =  5.87E-08,  avg # of iterations =  4.6

     total cpu time spent up to now is      226.5 secs

     total energy              =    -320.86771174 Ry
     estimated scf accuracy    <       0.00000074 Ry

     iteration # 44     ecut=    50.00 Ry     beta= 0.30
     Davidson diagonalization with overlap
     c_bands:  1 eigenvalues not converged
     ethr =  2.06E-09,  avg # of iterations =  9.0

     total cpu time spent up to now is      232.9 secs

     total energy              =    -320.86771209 Ry
     estimated scf accuracy    <       0.00000076 Ry

     iteration # 45     ecut=    50.00 Ry     beta= 0.30
     Davidson diagonalization with overlap
     ethr =  2.06E-09,  avg # of iterations =  3.4

     total cpu time spent up to now is      237.2 secs

     total energy              =    -320.86771227 Ry
     estimated scf accuracy    <       0.00000014 Ry

     iteration # 46     ecut=    50.00 Ry     beta= 0.30
     Davidson diagonalization with overlap
     c_bands:  2 eigenvalues not converged
     c_bands:  1 eigenvalues not converged
     ethr =  3.89E-10,  avg # of iterations =  9.3

     total cpu time spent up to now is      244.3 secs

     total energy              =    -320.86771248 Ry
     estimated scf accuracy    <       0.00000166 Ry

     iteration # 47     ecut=    50.00 Ry     beta= 0.30
     Davidson diagonalization with overlap
     c_bands:  1 eigenvalues not converged
     ethr =  3.89E-10,  avg # of iterations =  2.1

     total cpu time spent up to now is      248.1 secs

     total energy              =    -320.86771213 Ry
     estimated scf accuracy    <       0.00000201 Ry

     iteration # 48     ecut=    50.00 Ry     beta= 0.30
     Davidson diagonalization with overlap
     c_bands:  1 eigenvalues not converged
     ethr =  3.89E-10,  avg # of iterations =  8.2

     total cpu time spent up to now is      254.5 secs

     total energy              =    -320.86771221 Ry
     estimated scf accuracy    <       0.00000012 Ry

     iteration # 49     ecut=    50.00 Ry     beta= 0.30
     Davidson diagonalization with overlap
     ethr =  3.26E-10,  avg # of iterations =  1.8

     total cpu time spent up to now is      258.3 secs

     total energy              =    -320.86771221 Ry
     estimated scf accuracy    <       0.00000005 Ry

     iteration # 50     ecut=    50.00 Ry     beta= 0.30
     Davidson diagonalization with overlap
     ethr =  1.32E-10,  avg # of iterations =  8.6

     total cpu time spent up to now is      264.5 secs

     total energy              =    -320.86771224 Ry
     estimated scf accuracy    <       0.00000007 Ry

     iteration # 51     ecut=    50.00 Ry     beta= 0.30
     Davidson diagonalization with overlap
     ethr =  1.32E-10,  avg # of iterations =  1.0

     total cpu time spent up to now is      268.0 secs

     total energy              =    -320.86771223 Ry
     estimated scf accuracy    <       0.00000007 Ry

     iteration # 52     ecut=    50.00 Ry     beta= 0.30
     Davidson diagonalization with overlap
     ethr =  1.32E-10,  avg # of iterations =  1.2

     total cpu time spent up to now is      271.6 secs

     total energy              =    -320.86771223 Ry
     estimated scf accuracy    <       0.00000005 Ry

     iteration # 53     ecut=    50.00 Ry     beta= 0.30
     Davidson diagonalization with overlap
     ethr =  1.32E-10,  avg # of iterations =  1.0

     total cpu time spent up to now is      275.1 secs

     total energy              =    -320.86771223 Ry
     estimated scf accuracy    <       0.00000005 Ry

     iteration # 54     ecut=    50.00 Ry     beta= 0.30
     Davidson diagonalization with overlap
     ethr =  1.26E-10,  avg # of iterations =  1.0

     total cpu time spent up to now is      278.6 secs

     total energy              =    -320.86771223 Ry
     estimated scf accuracy    <       0.00000004 Ry

     iteration # 55     ecut=    50.00 Ry     beta= 0.30
     Davidson diagonalization with overlap
     ethr =  1.08E-10,  avg # of iterations =  1.5

     total cpu time spent up to now is      282.2 secs

     total energy              =    -320.86771222 Ry
     estimated scf accuracy    <       0.00000003 Ry

     iteration # 56     ecut=    50.00 Ry     beta= 0.30
     Davidson diagonalization with overlap
     ethr =  7.91E-11,  avg # of iterations =  6.2

     total cpu time spent up to now is      287.3 secs

     End of self-consistent calculation

     Number of k-points >= 100: set verbosity='high' to print the bands.

     highest occupied level (ev):    13.9699

!    total energy              =    -320.86771223 Ry
     estimated scf accuracy    <          8.8E-10 Ry

     The total energy is the sum of the following terms:
     one-electron contribution =    -360.88471625 Ry
     hartree contribution      =     213.20081989 Ry
     xc contribution           =    -115.89396696 Ry
     ewald contribution        =     -57.28984891 Ry

     convergence has been achieved in  56 iterations

     Forces acting on atoms (cartesian axes, Ry/au):

     atom    1 type  1   force =     6.36283135   -6.31547474    3.35083488
     atom    2 type  1   force =     7.42777614  -30.40830843   87.72200659
     atom    3 type  2   force =    -0.01255876    0.09042358   -0.18227120
     atom    4 type  2   force =   -13.77804874   36.63335959  -90.89057027
     The non-local contrib.  to forces
     atom    1 type  1   force =    -2.52308043    2.53682856   -1.58364788
     atom    2 type  1   force =    -1.96327063    9.80582764  -29.03455560
     atom    3 type  2   force =    -0.04692535    0.53984160   -0.09573836
     atom    4 type  2   force =     0.89665108   -2.40584822    7.08771097
     The ionic contribution  to forces
     atom    1 type  1   force =    33.49625966  -32.08947403   39.15980316
     atom    2 type  1   force =    -7.68398626  -32.62217694  140.60422056
     atom    3 type  2   force =     0.62577149    1.09247534  -14.82477652
     atom    4 type  2   force =   -26.43804489   63.61917563 -164.93924720
     The local contribution  to forces
     atom    1 type  1   force =   -24.31735915   22.95453391  -34.06844226
     atom    2 type  1   force =    17.09147699   -8.07004408  -22.16308327
     atom    3 type  2   force =    -0.59177934   -1.53547079   14.73499609
     atom    4 type  2   force =    11.72005077  -24.45858527   66.66152375
     The core correction contribution to forces
     atom    1 type  1   force =    -0.29300540    0.28263818   -0.15692390
     atom    2 type  1   force =    -0.01644474    0.47809072   -1.68465649
     atom    3 type  2   force =     0.00037241   -0.00640792    0.00325862
     atom    4 type  2   force =     0.04329105   -0.12136456    0.29936866
     The Hubbard contrib.    to forces
     atom    1 type  1   force =     0.00000000    0.00000000    0.00000000
     atom    2 type  1   force =     0.00000000    0.00000000    0.00000000
     atom    3 type  2   force =     0.00000000    0.00000000    0.00000000
     atom    4 type  2   force =     0.00000000    0.00000000    0.00000000
     The SCF correction term to forces
     atom    1 type  1   force =     0.00001549    0.00001293    0.00005688
     atom    2 type  1   force =    -0.00000040    0.00000853    0.00009252
     atom    3 type  2   force =     0.00000084   -0.00000035    0.00000009
     atom    4 type  2   force =     0.00000205   -0.00000371    0.00008467

     Total force =   136.233481     Total SCF correction =     0.000140

     Writing all to output data dir ./ZnO_ANN.save/

     init_run     :      2.75s CPU      2.84s WALL (       1 calls)
     electrons    :    277.37s CPU    284.00s WALL (       1 calls)
     forces       :      0.83s CPU      0.84s WALL (       1 calls)

     Called by init_run:
     wfcinit      :      1.97s CPU      2.03s WALL (       1 calls)
     potinit      :      0.16s CPU      0.17s WALL (       1 calls)
     hinit0       :      0.54s CPU      0.55s WALL (       1 calls)

     Called by electrons:
     c_bands      :    244.26s CPU    249.84s WALL (      56 calls)
     sum_band     :     29.67s CPU     30.61s WALL (      56 calls)
     v_of_rho     :      0.76s CPU      0.82s WALL (      57 calls)
     newd         :      2.54s CPU      2.57s WALL (      57 calls)
     mix_rho      :      0.14s CPU      0.15s WALL (      56 calls)

     Called by c_bands:
     init_us_2    :      2.21s CPU      2.25s WALL (   12768 calls)
     init_us_2:cp :      2.16s CPU      2.21s WALL (   12768 calls)
     cegterg      :    237.12s CPU    242.55s WALL (    6272 calls)

     Called by *egterg:
     cdiaghg      :     39.27s CPU     39.74s WALL (   37909 calls)
     h_psi        :    128.82s CPU    132.65s WALL (   38021 calls)
     s_psi        :     16.69s CPU     16.89s WALL (   38021 calls)
     g_psi        :      0.44s CPU      0.45s WALL (   31637 calls)

     Called by h_psi:
     h_psi:calbec :     18.82s CPU     19.59s WALL (   38021 calls)
     vloc_psi     :     92.81s CPU     95.68s WALL (   38021 calls)
     add_vuspsi   :     16.62s CPU     16.81s WALL (   38021 calls)

     General routines
     calbec       :     26.04s CPU     27.12s WALL (   44741 calls)
     fft          :      0.78s CPU      0.86s WALL (     750 calls)
     ffts         :      0.07s CPU      0.07s WALL (     113 calls)
     fftw         :     95.34s CPU     98.31s WALL (  706032 calls)
     interpolate  :      0.09s CPU      0.10s WALL (      57 calls)

     Parallel routines

     PWSCF        :   4m41.68s CPU   4m48.56s WALL


   This run was terminated on:  12:25:11  23Jun2025            

=------------------------------------------------------------------------------=
   JOB DONE.
=------------------------------------------------------------------------------=
Note: The following floating-point exceptions are signalling: IEEE_INVALID_FLAG
