
     Program PWSCF v.7.2 starts on 23Jun2025 at 15:45:36 

     This program is part of the open-source Quantum ESPRESSO suite
     for quantum simulation of materials; please cite
         "P. Giannozzi et al., J. Phys.:Condens. Matter 21 395502 (2009);
         "P. Giannozzi et al., J. Phys.:Condens. Matter 29 465901 (2017);
         "P. Giannozzi et al., J. Chem. Phys. 152 154105 (2020);
          URL http://www.quantum-espresso.org", 
     in publications or presentations arising from this work. More details at
     http://www.quantum-espresso.org/quote

     Parallel version (MPI), running on     8 processors

     MPI processes distributed on     1 nodes
     90943 MiB available memory on the printing compute node when the environment starts

     Reading input from /home/jvc/QEspresso7.2/ZnO_DataBase/scfs_rnd025.in/scf-6.43-1.49-1.in

     Current dimensions of program PWSCF are:
     Max number of different atomic species (ntypx) = 10
     Max number of k-points (npk) =  40000
     Max angular momentum in pseudopotentials (lmaxx) =  4
     file Zn.upf: wavefunction(s)  3D renormalized

     R & G space division:  proc/nbgrp/npool/nimage =       8
     Subspace diagonalization in iterative solution of the eigenvalue problem:
     a serial algorithm will be used


     Parallelization info
     --------------------
     sticks:   dense  smooth     PW     G-vecs:    dense   smooth      PW
     Min         143      71     20                 5777     2031     336
     Max         145      73     21                 5779     2034     343
     Sum        1147     571    163                46219    16261    2705

     Using Slab Decomposition



     bravais-lattice index     =            4
     lattice parameter (alat)  =       6.4260  a.u.
     unit-cell volume          =     341.2993 (a.u.)^3
     number of atoms/cell      =            4
     number of atomic types    =            2
     number of electrons       =        36.00
     number of Kohn-Sham states=           18
     kinetic-energy cutoff     =      50.0000  Ry
     charge density cutoff     =     400.0000  Ry
     scf convergence threshold =      1.0E-08
     mixing beta               =       0.3000
     number of iterations used =            8  plain     mixing
     Exchange-correlation= PBE
                           (   1   4   3   4   0   0   0)

     celldm(1)=   6.425974  celldm(2)=   0.000000  celldm(3)=   1.485210
     celldm(4)=   0.000000  celldm(5)=   0.000000  celldm(6)=   0.000000

     crystal axes: (cart. coord. in units of alat)
               a(1) = (   1.000000   0.000000   0.000000 )  
               a(2) = (  -0.500000   0.866025   0.000000 )  
               a(3) = (   0.000000   0.000000   1.485210 )  

     reciprocal axes: (cart. coord. in units 2 pi/alat)
               b(1) = (  1.000000  0.577350 -0.000000 )  
               b(2) = (  0.000000  1.154701  0.000000 )  
               b(3) = (  0.000000 -0.000000  0.673306 )  


     PseudoPot. # 1 for Zn read from file:
     ./pseudos/Zn.upf
     MD5 check sum: 7f56cabf9682ed8c977c2f7d0c5985c5
     Pseudo is Ultrasoft + core correction, Zval = 12.0
     Generated using &quot;atomic&quot; code by A. Dal Corso  v.6.2.2
     Using radial grid of 1201 points,  6 beta functions with: 
                l(1) =   0
                l(2) =   0
                l(3) =   1
                l(4) =   1
                l(5) =   2
                l(6) =   2
     Q(r) pseudized with 0 coefficients 


     PseudoPot. # 2 for O  read from file:
     ./pseudos/O.upf
     MD5 check sum: 91400c9766925bcf19f520983a725ff0
     Pseudo is Ultrasoft + core correction, Zval =  6.0
     Generated using &quot;atomic&quot; code by A. Dal Corso  v.6.3MaX
     Using radial grid of 1095 points,  4 beta functions with: 
                l(1) =   0
                l(2) =   0
                l(3) =   1
                l(4) =   1
     Q(r) pseudized with 0 coefficients 


     atomic species   valence    mass     pseudopotential
        Zn            12.00    63.38000     Zn( 1.00)
        O              6.00    15.99900     O ( 1.00)

     No symmetry found



   Cartesian axes

     site n.     atom                  positions (alat units)
         1           Zn  tau(   1) = (   0.5203705   0.1868085   0.9212369  )
         2           Zn  tau(   2) = (   0.0365927   0.7071659  -0.3177296  )
         3           O   tau(   3) = (   0.6369506   0.1237060   1.0386666  )
         4           O   tau(   4) = (   0.2518025   0.3982143   0.5398979  )

     number of k points=   112

     Number of k-points >= 100: set verbosity='high' to print them.

     Dense  grid:    46219 G-vectors     FFT dimensions: (  45,  45,  64)

     Smooth grid:    16261 G-vectors     FFT dimensions: (  30,  30,  45)

     Estimated max dynamical RAM per process >      31.76 MB

     Estimated total dynamical RAM >     254.07 MB

     Check: negative core charge=   -0.000002

     Initial potential from superposition of free atoms

     starting charge      35.9925, renormalised to      36.0000
     Starting wfcs are   26 randomized atomic wfcs

     total cpu time spent up to now is        4.0 secs

     Self-consistent Calculation

     iteration #  1     ecut=    50.00 Ry     beta= 0.30
     Davidson diagonalization with overlap
     ethr =  1.00E-02,  avg # of iterations =  6.3

     total cpu time spent up to now is       13.9 secs

     total energy              =    -337.58444294 Ry
     estimated scf accuracy    <       2.26117606 Ry

     iteration #  2     ecut=    50.00 Ry     beta= 0.30
     Davidson diagonalization with overlap
     ethr =  6.28E-03,  avg # of iterations =  2.0

     total cpu time spent up to now is       19.3 secs

     total energy              =    -337.33913349 Ry
     estimated scf accuracy    <       0.61270416 Ry

     iteration #  3     ecut=    50.00 Ry     beta= 0.30
     Davidson diagonalization with overlap
     c_bands:  1 eigenvalues not converged
     ethr =  1.70E-03,  avg # of iterations = 11.7

     total cpu time spent up to now is       30.8 secs

     total energy              =    -338.34536718 Ry
     estimated scf accuracy    <       6.85504025 Ry

     iteration #  4     ecut=    50.00 Ry     beta= 0.30
     Davidson diagonalization with overlap
     ethr =  1.70E-03,  avg # of iterations =  1.1

     total cpu time spent up to now is       35.6 secs

     total energy              =    -337.57410346 Ry
     estimated scf accuracy    <       6.19849411 Ry

     iteration #  5     ecut=    50.00 Ry     beta= 0.30
     Davidson diagonalization with overlap
     ethr =  1.70E-03,  avg # of iterations =  7.6

     total cpu time spent up to now is       43.9 secs

     total energy              =    -338.13589637 Ry
     estimated scf accuracy    <       0.97033615 Ry

     iteration #  6     ecut=    50.00 Ry     beta= 0.30
     Davidson diagonalization with overlap
     ethr =  1.70E-03,  avg # of iterations =  2.3

     total cpu time spent up to now is       49.3 secs

     total energy              =    -338.57967958 Ry
     estimated scf accuracy    <       1.60487249 Ry

     iteration #  7     ecut=    50.00 Ry     beta= 0.30
     Davidson diagonalization with overlap
     ethr =  1.70E-03,  avg # of iterations = 10.6

     total cpu time spent up to now is       59.0 secs

     total energy              =    -337.98084358 Ry
     estimated scf accuracy    <      13.32562572 Ry

     iteration #  8     ecut=    50.00 Ry     beta= 0.30
     Davidson diagonalization with overlap
     ethr =  1.70E-03,  avg # of iterations =  8.4

     total cpu time spent up to now is       66.5 secs

     total energy              =    -337.42587326 Ry
     estimated scf accuracy    <       5.67834923 Ry

     iteration #  9     ecut=    50.00 Ry     beta= 0.30
     Davidson diagonalization with overlap
     ethr =  1.70E-03,  avg # of iterations =  7.5

     total cpu time spent up to now is       74.6 secs

     total energy              =    -337.77311068 Ry
     estimated scf accuracy    <       0.43615784 Ry

     iteration # 10     ecut=    50.00 Ry     beta= 0.30
     Davidson diagonalization with overlap
     ethr =  1.21E-03,  avg # of iterations =  1.9

     total cpu time spent up to now is       79.8 secs

     total energy              =    -337.71580076 Ry
     estimated scf accuracy    <       0.29501855 Ry

     iteration # 11     ecut=    50.00 Ry     beta= 0.30
     Davidson diagonalization with overlap
     ethr =  8.19E-04,  avg # of iterations =  5.3

     total cpu time spent up to now is       86.4 secs

     total energy              =    -337.77952950 Ry
     estimated scf accuracy    <       0.02184755 Ry

     iteration # 12     ecut=    50.00 Ry     beta= 0.30
     Davidson diagonalization with overlap
     c_bands:  1 eigenvalues not converged
     c_bands:  1 eigenvalues not converged
     ethr =  6.07E-05,  avg # of iterations =  8.3

     total cpu time spent up to now is       95.3 secs

     total energy              =    -337.79027401 Ry
     estimated scf accuracy    <       0.03701278 Ry

     iteration # 13     ecut=    50.00 Ry     beta= 0.30
     Davidson diagonalization with overlap
     ethr =  6.07E-05,  avg # of iterations =  7.5

     total cpu time spent up to now is      103.3 secs

     total energy              =    -337.80133703 Ry
     estimated scf accuracy    <       0.00835220 Ry

     iteration # 14     ecut=    50.00 Ry     beta= 0.30
     Davidson diagonalization with overlap
     c_bands:  1 eigenvalues not converged
     ethr =  2.32E-05,  avg # of iterations =  4.2

     total cpu time spent up to now is      109.5 secs

     total energy              =    -337.80595754 Ry
     estimated scf accuracy    <       0.01838124 Ry

     iteration # 15     ecut=    50.00 Ry     beta= 0.30
     Davidson diagonalization with overlap
     ethr =  2.32E-05,  avg # of iterations =  5.8

     total cpu time spent up to now is      116.9 secs

     total energy              =    -337.80107072 Ry
     estimated scf accuracy    <       0.04012171 Ry

     iteration # 16     ecut=    50.00 Ry     beta= 0.30
     Davidson diagonalization with overlap
     ethr =  2.32E-05,  avg # of iterations =  2.0

     total cpu time spent up to now is      122.5 secs

     total energy              =    -337.79434450 Ry
     estimated scf accuracy    <       0.02524285 Ry

     iteration # 17     ecut=    50.00 Ry     beta= 0.30
     Davidson diagonalization with overlap
     ethr =  2.32E-05,  avg # of iterations =  7.3

     total cpu time spent up to now is      130.8 secs

     total energy              =    -337.79962830 Ry
     estimated scf accuracy    <       0.00097205 Ry

     iteration # 18     ecut=    50.00 Ry     beta= 0.30
     Davidson diagonalization with overlap
     ethr =  2.70E-06,  avg # of iterations =  7.9

     total cpu time spent up to now is      139.4 secs

     total energy              =    -337.79960559 Ry
     estimated scf accuracy    <       0.00671738 Ry

     iteration # 19     ecut=    50.00 Ry     beta= 0.30
     Davidson diagonalization with overlap
     ethr =  2.70E-06,  avg # of iterations =  1.5

     total cpu time spent up to now is      144.4 secs

     total energy              =    -337.79717457 Ry
     estimated scf accuracy    <       0.00539821 Ry

     iteration # 20     ecut=    50.00 Ry     beta= 0.30
     Davidson diagonalization with overlap
     ethr =  2.70E-06,  avg # of iterations = 12.0

     total cpu time spent up to now is      155.2 secs

     total energy              =    -337.79872594 Ry
     estimated scf accuracy    <       0.00619075 Ry

     iteration # 21     ecut=    50.00 Ry     beta= 0.30
     Davidson diagonalization with overlap
     ethr =  2.70E-06,  avg # of iterations =  7.2

     total cpu time spent up to now is      163.5 secs

     total energy              =    -337.79909305 Ry
     estimated scf accuracy    <       0.00030760 Ry

     iteration # 22     ecut=    50.00 Ry     beta= 0.30
     Davidson diagonalization with overlap
     ethr =  8.54E-07,  avg # of iterations =  7.4

     total cpu time spent up to now is      171.8 secs

     total energy              =    -337.79930779 Ry
     estimated scf accuracy    <       0.00037254 Ry

     iteration # 23     ecut=    50.00 Ry     beta= 0.30
     Davidson diagonalization with overlap
     ethr =  8.54E-07,  avg # of iterations =  1.1

     total cpu time spent up to now is      176.7 secs

     total energy              =    -337.79919927 Ry
     estimated scf accuracy    <       0.00045702 Ry

     iteration # 24     ecut=    50.00 Ry     beta= 0.30
     Davidson diagonalization with overlap
     ethr =  8.54E-07,  avg # of iterations =  1.7

     total cpu time spent up to now is      181.8 secs

     total energy              =    -337.79914981 Ry
     estimated scf accuracy    <       0.00024397 Ry

     iteration # 25     ecut=    50.00 Ry     beta= 0.30
     Davidson diagonalization with overlap
     ethr =  6.78E-07,  avg # of iterations =  7.4

     total cpu time spent up to now is      189.2 secs

     total energy              =    -337.79922235 Ry
     estimated scf accuracy    <       0.00003179 Ry

     iteration # 26     ecut=    50.00 Ry     beta= 0.30
     Davidson diagonalization with overlap
     ethr =  8.83E-08,  avg # of iterations =  4.0

     total cpu time spent up to now is      195.3 secs

     total energy              =    -337.79921689 Ry
     estimated scf accuracy    <       0.00004859 Ry

     iteration # 27     ecut=    50.00 Ry     beta= 0.30
     Davidson diagonalization with overlap
     ethr =  8.83E-08,  avg # of iterations =  2.0

     total cpu time spent up to now is      200.7 secs

     total energy              =    -337.79921323 Ry
     estimated scf accuracy    <       0.00002162 Ry

     iteration # 28     ecut=    50.00 Ry     beta= 0.30
     Davidson diagonalization with overlap
     ethr =  6.01E-08,  avg # of iterations =  8.0

     total cpu time spent up to now is      208.6 secs

     total energy              =    -337.79922087 Ry
     estimated scf accuracy    <       0.00000542 Ry

     iteration # 29     ecut=    50.00 Ry     beta= 0.30
     Davidson diagonalization with overlap
     ethr =  1.51E-08,  avg # of iterations =  2.1

     total cpu time spent up to now is      213.8 secs

     total energy              =    -337.79921980 Ry
     estimated scf accuracy    <       0.00000653 Ry

     iteration # 30     ecut=    50.00 Ry     beta= 0.30
     Davidson diagonalization with overlap
     ethr =  1.51E-08,  avg # of iterations =  1.9

     total cpu time spent up to now is      218.9 secs

     total energy              =    -337.79921974 Ry
     estimated scf accuracy    <       0.00000347 Ry

     iteration # 31     ecut=    50.00 Ry     beta= 0.30
     Davidson diagonalization with overlap
     ethr =  9.63E-09,  avg # of iterations =  1.9

     total cpu time spent up to now is      224.1 secs

     total energy              =    -337.79921945 Ry
     estimated scf accuracy    <       0.00000242 Ry

     iteration # 32     ecut=    50.00 Ry     beta= 0.30
     Davidson diagonalization with overlap
     ethr =  6.71E-09,  avg # of iterations =  7.8

     total cpu time spent up to now is      231.2 secs

     total energy              =    -337.79922000 Ry
     estimated scf accuracy    <       0.00000008 Ry

     iteration # 33     ecut=    50.00 Ry     beta= 0.30
     Davidson diagonalization with overlap
     ethr =  2.15E-10,  avg # of iterations =  8.0

     total cpu time spent up to now is      239.4 secs

     End of self-consistent calculation

     Number of k-points >= 100: set verbosity='high' to print the bands.

     highest occupied level (ev):     9.2229

!    total energy              =    -337.79922005 Ry
     estimated scf accuracy    <          8.7E-09 Ry

     The total energy is the sum of the following terms:
     one-electron contribution =    -376.00718611 Ry
     hartree contribution      =     218.94747171 Ry
     xc contribution           =    -113.98242375 Ry
     ewald contribution        =     -66.75708189 Ry

     convergence has been achieved in  33 iterations

     Forces acting on atoms (cartesian axes, Ry/au):

     atom    1 type  1   force =   -33.97215661   20.45086002  -35.73209210
     atom    2 type  1   force =    -1.31262943   -6.10087844    3.36774195
     atom    3 type  2   force =    35.40300619  -14.44755899   32.50858560
     atom    4 type  2   force =    -0.11822014    0.09757741   -0.14423545
     The non-local contrib.  to forces
     atom    1 type  1   force =    14.63790175   -8.71953862   15.80963495
     atom    2 type  1   force =    -0.30522315    1.21579698   -1.02276148
     atom    3 type  2   force =    -3.86692924    1.69901115   -3.32142833
     atom    4 type  2   force =     0.16797785   -0.10380460    0.60691408
     The ionic contribution  to forces
     atom    1 type  1   force =   -68.30423878   55.80018368  -89.27288909
     atom    2 type  1   force =    -7.61134365  -42.29013600   44.18855557
     atom    3 type  2   force =    79.38392844  -15.77599214   63.62658213
     atom    4 type  2   force =    -3.46834600    2.26594445  -18.54224862
     The local contribution  to forces
     atom    1 type  1   force =    18.73737671  -26.02422293   36.71244877
     atom    2 type  1   force =     6.49450058   34.59908124  -39.60146689
     atom    3 type  2   force =   -40.01513483   -0.41354854  -27.70428340
     atom    4 type  2   force =     3.18241535   -2.06457671   17.79441656
     The core correction contribution to forces
     atom    1 type  1   force =     0.95666175   -0.60544134    1.01832758
     atom    2 type  1   force =     0.10945529    0.37435229   -0.19678860
     atom    3 type  2   force =    -0.09885228    0.04299936   -0.09240104
     atom    4 type  2   force =    -0.00023777    0.00001238   -0.00308038
     The Hubbard contrib.    to forces
     atom    1 type  1   force =     0.00000000    0.00000000    0.00000000
     atom    2 type  1   force =     0.00000000    0.00000000    0.00000000
     atom    3 type  2   force =     0.00000000    0.00000000    0.00000000
     atom    4 type  2   force =     0.00000000    0.00000000    0.00000000
     The SCF correction term to forces
     atom    1 type  1   force =     0.00016617   -0.00011850    0.00051130
     atom    2 type  1   force =     0.00000570    0.00002932    0.00032898
     atom    3 type  2   force =     0.00001828   -0.00002657    0.00024186
     atom    4 type  2   force =    -0.00000537    0.00000414   -0.00011146

     Total force =    73.609579     Total SCF correction =     0.000696

     Writing all to output data dir ./ZnO_ANN.save/

     init_run     :      3.45s CPU      3.55s WALL (       1 calls)
     electrons    :    231.30s CPU    235.45s WALL (       1 calls)
     forces       :      1.11s CPU      1.12s WALL (       1 calls)

     Called by init_run:
     wfcinit      :      2.68s CPU      2.73s WALL (       1 calls)
     potinit      :      0.26s CPU      0.26s WALL (       1 calls)
     hinit0       :      0.44s CPU      0.45s WALL (       1 calls)

     Called by electrons:
     c_bands      :    203.70s CPU    207.22s WALL (      33 calls)
     sum_band     :     24.94s CPU     25.50s WALL (      33 calls)
     v_of_rho     :      0.59s CPU      0.62s WALL (      34 calls)
     newd         :      1.99s CPU      2.02s WALL (      34 calls)
     mix_rho      :      0.09s CPU      0.10s WALL (      33 calls)

     Called by c_bands:
     init_us_2    :      1.81s CPU      1.83s WALL (    7616 calls)
     init_us_2:cp :      1.78s CPU      1.81s WALL (    7616 calls)
     cegterg      :    198.08s CPU    201.51s WALL (    3696 calls)

     Called by *egterg:
     cdiaghg      :     26.50s CPU     26.76s WALL (   24038 calls)
     h_psi        :    116.45s CPU    118.95s WALL (   24150 calls)
     s_psi        :     14.62s CPU     14.75s WALL (   24150 calls)
     g_psi        :      0.37s CPU      0.37s WALL (   20342 calls)

     Called by h_psi:
     h_psi:calbec :     15.26s CPU     15.71s WALL (   24150 calls)
     vloc_psi     :     86.10s CPU     88.03s WALL (   24150 calls)
     add_vuspsi   :     14.65s CPU     14.79s WALL (   24150 calls)

     General routines
     calbec       :     21.13s CPU     21.73s WALL (   28294 calls)
     fft          :      0.55s CPU      0.61s WALL (     451 calls)
     ffts         :      0.12s CPU      0.12s WALL (      67 calls)
     fftw         :     88.52s CPU     90.52s WALL (  437200 calls)
     interpolate  :      0.14s CPU      0.15s WALL (      34 calls)

     Parallel routines

     PWSCF        :   3m56.56s CPU   4m 1.02s WALL


   This run was terminated on:  15:49:37  23Jun2025            

=------------------------------------------------------------------------------=
   JOB DONE.
=------------------------------------------------------------------------------=
Note: The following floating-point exceptions are signalling: IEEE_INVALID_FLAG
