
     Program PWSCF v.7.2 starts on 23Jun2025 at 18:33:15 

     This program is part of the open-source Quantum ESPRESSO suite
     for quantum simulation of materials; please cite
         "P. Giannozzi et al., J. Phys.:Condens. Matter 21 395502 (2009);
         "P. Giannozzi et al., J. Phys.:Condens. Matter 29 465901 (2017);
         "P. Giannozzi et al., J. Chem. Phys. 152 154105 (2020);
          URL http://www.quantum-espresso.org", 
     in publications or presentations arising from this work. More details at
     http://www.quantum-espresso.org/quote

     Parallel version (MPI), running on     8 processors

     MPI processes distributed on     1 nodes
     90652 MiB available memory on the printing compute node when the environment starts

     Reading input from /home/jvc/QEspresso7.2/ZnO_DataBase/scfs_rnd025.in/scf-6.80-1.61-2.in

     Current dimensions of program PWSCF are:
     Max number of different atomic species (ntypx) = 10
     Max number of k-points (npk) =  40000
     Max angular momentum in pseudopotentials (lmaxx) =  4
     file Zn.upf: wavefunction(s)  3D renormalized

     R & G space division:  proc/nbgrp/npool/nimage =       8
     Subspace diagonalization in iterative solution of the eigenvalue problem:
     a serial algorithm will be used


     Parallelization info
     --------------------
     sticks:   dense  smooth     PW     G-vecs:    dense   smooth      PW
     Min         160      80     24                 7420     2616     431
     Max         162      82     25                 7421     2619     433
     Sum        1285     649    199                59361    20941    3453

     Using Slab Decomposition



     bravais-lattice index     =            4
     lattice parameter (alat)  =       6.7967  a.u.
     unit-cell volume          =     438.9606 (a.u.)^3
     number of atoms/cell      =            4
     number of atomic types    =            2
     number of electrons       =        36.00
     number of Kohn-Sham states=           18
     kinetic-energy cutoff     =      50.0000  Ry
     charge density cutoff     =     400.0000  Ry
     scf convergence threshold =      1.0E-08
     mixing beta               =       0.3000
     number of iterations used =            8  plain     mixing
     Exchange-correlation= PBE
                           (   1   4   3   4   0   0   0)

     celldm(1)=   6.796704  celldm(2)=   0.000000  celldm(3)=   1.614358
     celldm(4)=   0.000000  celldm(5)=   0.000000  celldm(6)=   0.000000

     crystal axes: (cart. coord. in units of alat)
               a(1) = (   1.000000   0.000000   0.000000 )  
               a(2) = (  -0.500000   0.866025   0.000000 )  
               a(3) = (   0.000000   0.000000   1.614358 )  

     reciprocal axes: (cart. coord. in units 2 pi/alat)
               b(1) = (  1.000000  0.577350 -0.000000 )  
               b(2) = (  0.000000  1.154701  0.000000 )  
               b(3) = (  0.000000 -0.000000  0.619441 )  


     PseudoPot. # 1 for Zn read from file:
     ./pseudos/Zn.upf
     MD5 check sum: 7f56cabf9682ed8c977c2f7d0c5985c5
     Pseudo is Ultrasoft + core correction, Zval = 12.0
     Generated using &quot;atomic&quot; code by A. Dal Corso  v.6.2.2
     Using radial grid of 1201 points,  6 beta functions with: 
                l(1) =   0
                l(2) =   0
                l(3) =   1
                l(4) =   1
                l(5) =   2
                l(6) =   2
     Q(r) pseudized with 0 coefficients 


     PseudoPot. # 2 for O  read from file:
     ./pseudos/O.upf
     MD5 check sum: 91400c9766925bcf19f520983a725ff0
     Pseudo is Ultrasoft + core correction, Zval =  6.0
     Generated using &quot;atomic&quot; code by A. Dal Corso  v.6.3MaX
     Using radial grid of 1095 points,  4 beta functions with: 
                l(1) =   0
                l(2) =   0
                l(3) =   1
                l(4) =   1
     Q(r) pseudized with 0 coefficients 


     atomic species   valence    mass     pseudopotential
        Zn            12.00    63.38000     Zn( 1.00)
        O              6.00    15.99900     O ( 1.00)

     No symmetry found



   Cartesian axes

     site n.     atom                  positions (alat units)
         1           Zn  tau(   1) = (   0.6574698   0.3109343   1.1771359  )
         2           Zn  tau(   2) = (  -0.0350823   0.3862917  -0.0934311  )
         3           O   tau(   3) = (   0.7105673   0.3040316   1.2183628  )
         4           O   tau(   4) = (   0.1027631   0.5780177   0.9719660  )

     number of k points=   112

     Number of k-points >= 100: set verbosity='high' to print them.

     Dense  grid:    59361 G-vectors     FFT dimensions: (  45,  45,  72)

     Smooth grid:    20941 G-vectors     FFT dimensions: (  32,  32,  50)

     Estimated max dynamical RAM per process >      39.72 MB

     Estimated total dynamical RAM >     317.77 MB

     Check: negative core charge=   -0.000002

     Initial potential from superposition of free atoms

     starting charge      35.9925, renormalised to      36.0000
     Starting wfcs are   26 randomized atomic wfcs

     total cpu time spent up to now is        4.5 secs

     Self-consistent Calculation

     iteration #  1     ecut=    50.00 Ry     beta= 0.30
     Davidson diagonalization with overlap
     ethr =  1.00E-02,  avg # of iterations =  4.7

     total cpu time spent up to now is       14.7 secs

     total energy              =    -198.95072762 Ry
     estimated scf accuracy    <      11.14195490 Ry

     iteration #  2     ecut=    50.00 Ry     beta= 0.30
     Davidson diagonalization with overlap
     ethr =  1.00E-02,  avg # of iterations =  8.8

     total cpu time spent up to now is       25.8 secs

     total energy              =    -200.20791210 Ry
     estimated scf accuracy    <       2.66426036 Ry

     iteration #  3     ecut=    50.00 Ry     beta= 0.30
     Davidson diagonalization with overlap
     ethr =  7.40E-03,  avg # of iterations =  1.9

     total cpu time spent up to now is       31.6 secs

     total energy              =    -199.65269259 Ry
     estimated scf accuracy    <       1.00665604 Ry

     iteration #  4     ecut=    50.00 Ry     beta= 0.30
     Davidson diagonalization with overlap
     ethr =  2.80E-03,  avg # of iterations = 10.7

     total cpu time spent up to now is       44.4 secs

     total energy              =    -201.16347823 Ry
     estimated scf accuracy    <       4.17536117 Ry

     iteration #  5     ecut=    50.00 Ry     beta= 0.30
     Davidson diagonalization with overlap
     ethr =  2.80E-03,  avg # of iterations =  1.0

     total cpu time spent up to now is       49.8 secs

     total energy              =    -199.92463248 Ry
     estimated scf accuracy    <       3.58292838 Ry

     iteration #  6     ecut=    50.00 Ry     beta= 0.30
     Davidson diagonalization with overlap
     ethr =  2.80E-03,  avg # of iterations =  7.7

     total cpu time spent up to now is       59.1 secs

     total energy              =    -200.28779108 Ry
     estimated scf accuracy    <       0.06598278 Ry

     iteration #  7     ecut=    50.00 Ry     beta= 0.30
     Davidson diagonalization with overlap
     c_bands:  2 eigenvalues not converged
     c_bands:  1 eigenvalues not converged
     c_bands:  1 eigenvalues not converged
     c_bands:  1 eigenvalues not converged
     ethr =  1.83E-04,  avg # of iterations = 12.8

     total cpu time spent up to now is       72.0 secs

     total energy              =    -200.29678866 Ry
     estimated scf accuracy    <       0.88411949 Ry

     iteration #  8     ecut=    50.00 Ry     beta= 0.30
     Davidson diagonalization with overlap
     ethr =  1.83E-04,  avg # of iterations =  7.1

     total cpu time spent up to now is       80.7 secs

     total energy              =    -200.22296370 Ry
     estimated scf accuracy    <       0.25373076 Ry

     iteration #  9     ecut=    50.00 Ry     beta= 0.30
     Davidson diagonalization with overlap
     c_bands:  1 eigenvalues not converged
     c_bands:  1 eigenvalues not converged
     c_bands:  1 eigenvalues not converged
     c_bands:  1 eigenvalues not converged
     c_bands:  1 eigenvalues not converged
     c_bands:  1 eigenvalues not converged
     c_bands:  1 eigenvalues not converged
     c_bands:  1 eigenvalues not converged
     c_bands:  1 eigenvalues not converged
     ethr =  1.83E-04,  avg # of iterations = 14.1

     total cpu time spent up to now is       92.9 secs

     total energy              =    -200.46740720 Ry
     estimated scf accuracy    <       0.85604382 Ry

     iteration # 10     ecut=    50.00 Ry     beta= 0.30
     Davidson diagonalization with overlap
     ethr =  1.83E-04,  avg # of iterations =  2.8

     total cpu time spent up to now is       98.9 secs

     total energy              =    -200.33747457 Ry
     estimated scf accuracy    <       1.09237832 Ry

     iteration # 11     ecut=    50.00 Ry     beta= 0.30
     Davidson diagonalization with overlap
     ethr =  1.83E-04,  avg # of iterations =  3.7

     total cpu time spent up to now is      105.3 secs

     total energy              =    -200.25531554 Ry
     estimated scf accuracy    <       0.70206874 Ry

     iteration # 12     ecut=    50.00 Ry     beta= 0.30
     Davidson diagonalization with overlap
     ethr =  1.83E-04,  avg # of iterations =  9.7

     total cpu time spent up to now is      114.3 secs

     total energy              =    -200.31684474 Ry
     estimated scf accuracy    <       0.00950292 Ry

     iteration # 13     ecut=    50.00 Ry     beta= 0.30
     Davidson diagonalization with overlap
     c_bands:  1 eigenvalues not converged
     c_bands:  1 eigenvalues not converged
     ethr =  2.64E-05,  avg # of iterations =  8.7

     total cpu time spent up to now is      123.1 secs

     total energy              =    -200.32696069 Ry
     estimated scf accuracy    <       0.08210406 Ry

     iteration # 14     ecut=    50.00 Ry     beta= 0.30
     Davidson diagonalization with overlap
     ethr =  2.64E-05,  avg # of iterations =  2.4

     total cpu time spent up to now is      128.9 secs

     total energy              =    -200.31617410 Ry
     estimated scf accuracy    <       0.09955516 Ry

     iteration # 15     ecut=    50.00 Ry     beta= 0.30
     Davidson diagonalization with overlap
     ethr =  2.64E-05,  avg # of iterations =  2.3

     total cpu time spent up to now is      134.7 secs

     total energy              =    -200.29361907 Ry
     estimated scf accuracy    <       0.07475878 Ry

     iteration # 16     ecut=    50.00 Ry     beta= 0.30
     Davidson diagonalization with overlap
     c_bands:  1 eigenvalues not converged
     c_bands:  1 eigenvalues not converged
     ethr =  2.64E-05,  avg # of iterations = 14.7

     total cpu time spent up to now is      146.8 secs

     total energy              =    -200.28675885 Ry
     estimated scf accuracy    <       0.17194027 Ry

     iteration # 17     ecut=    50.00 Ry     beta= 0.30
     Davidson diagonalization with overlap
     c_bands:  1 eigenvalues not converged
     c_bands:  1 eigenvalues not converged
     c_bands:  1 eigenvalues not converged
     ethr =  2.64E-05,  avg # of iterations = 13.4

     total cpu time spent up to now is      158.8 secs

     total energy              =    -200.32308476 Ry
     estimated scf accuracy    <       0.06066629 Ry

     iteration # 18     ecut=    50.00 Ry     beta= 0.30
     Davidson diagonalization with overlap
     ethr =  2.64E-05,  avg # of iterations =  2.2

     total cpu time spent up to now is      164.6 secs

     total energy              =    -200.32196520 Ry
     estimated scf accuracy    <       0.07705817 Ry

     iteration # 19     ecut=    50.00 Ry     beta= 0.30
     Davidson diagonalization with overlap
     ethr =  2.64E-05,  avg # of iterations =  1.4

     total cpu time spent up to now is      170.1 secs

     total energy              =    -200.31608300 Ry
     estimated scf accuracy    <       0.07491978 Ry

     iteration # 20     ecut=    50.00 Ry     beta= 0.30
     Davidson diagonalization with overlap
     ethr =  2.64E-05,  avg # of iterations =  1.9

     total cpu time spent up to now is      175.8 secs

     total energy              =    -200.31885668 Ry
     estimated scf accuracy    <       0.05717700 Ry

     iteration # 21     ecut=    50.00 Ry     beta= 0.30
     Davidson diagonalization with overlap
     ethr =  2.64E-05,  avg # of iterations =  1.0

     total cpu time spent up to now is      181.1 secs

     total energy              =    -200.32974605 Ry
     estimated scf accuracy    <       0.06047972 Ry

     iteration # 22     ecut=    50.00 Ry     beta= 0.30
     Davidson diagonalization with overlap
     c_bands:  1 eigenvalues not converged
     ethr =  2.64E-05,  avg # of iterations =  7.7

     total cpu time spent up to now is      189.1 secs

     total energy              =    -200.30988107 Ry
     estimated scf accuracy    <       0.19190272 Ry

     iteration # 23     ecut=    50.00 Ry     beta= 0.30
     Davidson diagonalization with overlap
     ethr =  2.64E-05,  avg # of iterations =  7.6

     total cpu time spent up to now is      197.2 secs

     total energy              =    -200.31748984 Ry
     estimated scf accuracy    <       0.04229030 Ry

     iteration # 24     ecut=    50.00 Ry     beta= 0.30
     Davidson diagonalization with overlap
     ethr =  2.64E-05,  avg # of iterations =  1.0

     total cpu time spent up to now is      202.4 secs

     total energy              =    -200.32089770 Ry
     estimated scf accuracy    <       0.04505442 Ry

     iteration # 25     ecut=    50.00 Ry     beta= 0.30
     Davidson diagonalization with overlap
     ethr =  2.64E-05,  avg # of iterations =  3.7

     total cpu time spent up to now is      208.6 secs

     total energy              =    -200.31102334 Ry
     estimated scf accuracy    <       0.07136716 Ry

     iteration # 26     ecut=    50.00 Ry     beta= 0.30
     Davidson diagonalization with overlap
     ethr =  2.64E-05,  avg # of iterations =  6.7

     total cpu time spent up to now is      216.0 secs

     total energy              =    -200.30674500 Ry
     estimated scf accuracy    <       0.01417630 Ry

     iteration # 27     ecut=    50.00 Ry     beta= 0.30
     Davidson diagonalization with overlap
     c_bands:  1 eigenvalues not converged
     c_bands:  1 eigenvalues not converged
     c_bands:  1 eigenvalues not converged
     c_bands:  1 eigenvalues not converged
     c_bands:  1 eigenvalues not converged
     c_bands:  1 eigenvalues not converged
     c_bands:  1 eigenvalues not converged
     c_bands:  1 eigenvalues not converged
     ethr =  2.64E-05,  avg # of iterations = 15.2

     total cpu time spent up to now is      227.7 secs

     total energy              =    -200.30087470 Ry
     estimated scf accuracy    <       0.17462362 Ry

     iteration # 28     ecut=    50.00 Ry     beta= 0.30
     Davidson diagonalization with overlap
     c_bands:  1 eigenvalues not converged
     c_bands:  1 eigenvalues not converged
     c_bands:  1 eigenvalues not converged
     ethr =  2.64E-05,  avg # of iterations = 10.2

     total cpu time spent up to now is      237.1 secs

     total energy              =    -200.31326964 Ry
     estimated scf accuracy    <       0.00006432 Ry

     iteration # 29     ecut=    50.00 Ry     beta= 0.30
     Davidson diagonalization with overlap
     c_bands:  1 eigenvalues not converged
     c_bands:  1 eigenvalues not converged
     c_bands:  1 eigenvalues not converged
     c_bands:  1 eigenvalues not converged
     c_bands:  1 eigenvalues not converged
     c_bands:  1 eigenvalues not converged
     c_bands:  1 eigenvalues not converged
     c_bands:  1 eigenvalues not converged
     c_bands:  1 eigenvalues not converged
     c_bands:  1 eigenvalues not converged
     c_bands:  1 eigenvalues not converged
     c_bands:  1 eigenvalues not converged
     c_bands:  1 eigenvalues not converged
     c_bands:  1 eigenvalues not converged
     c_bands:  1 eigenvalues not converged
     c_bands:  1 eigenvalues not converged
     c_bands:  1 eigenvalues not converged
     c_bands:  1 eigenvalues not converged
     c_bands:  1 eigenvalues not converged
     c_bands:  1 eigenvalues not converged
     c_bands:  1 eigenvalues not converged
     c_bands:  1 eigenvalues not converged
     c_bands:  1 eigenvalues not converged
     c_bands:  1 eigenvalues not converged
     c_bands:  1 eigenvalues not converged
     c_bands:  1 eigenvalues not converged
     c_bands:  1 eigenvalues not converged
     c_bands:  1 eigenvalues not converged
     c_bands:  1 eigenvalues not converged
     c_bands:  1 eigenvalues not converged
     c_bands:  1 eigenvalues not converged
     c_bands:  1 eigenvalues not converged
     c_bands:  1 eigenvalues not converged
     c_bands:  1 eigenvalues not converged
     c_bands:  1 eigenvalues not converged
     c_bands:  1 eigenvalues not converged
     c_bands:  1 eigenvalues not converged
     c_bands:  1 eigenvalues not converged
     c_bands:  1 eigenvalues not converged
     c_bands:  1 eigenvalues not converged
     c_bands:  1 eigenvalues not converged
     c_bands:  1 eigenvalues not converged
     c_bands:  1 eigenvalues not converged
     c_bands:  1 eigenvalues not converged
     c_bands:  1 eigenvalues not converged
     c_bands:  1 eigenvalues not converged
     ethr =  1.79E-07,  avg # of iterations = 17.6

     total cpu time spent up to now is      253.0 secs

     total energy              =    -200.31360800 Ry
     estimated scf accuracy    <       0.00411904 Ry

     iteration # 30     ecut=    50.00 Ry     beta= 0.30
     Davidson diagonalization with overlap
     c_bands:  1 eigenvalues not converged
     c_bands:  1 eigenvalues not converged
     c_bands:  1 eigenvalues not converged
     ethr =  1.79E-07,  avg # of iterations =  9.6

     total cpu time spent up to now is      262.5 secs

     total energy              =    -200.31348745 Ry
     estimated scf accuracy    <       0.00215575 Ry

     iteration # 31     ecut=    50.00 Ry     beta= 0.30
     Davidson diagonalization with overlap
     ethr =  1.79E-07,  avg # of iterations =  9.8

     total cpu time spent up to now is      271.2 secs

     total energy              =    -200.31349921 Ry
     estimated scf accuracy    <       0.00043703 Ry

     iteration # 32     ecut=    50.00 Ry     beta= 0.30
     Davidson diagonalization with overlap
     ethr =  1.79E-07,  avg # of iterations =  3.1

     total cpu time spent up to now is      277.5 secs

     total energy              =    -200.31345954 Ry
     estimated scf accuracy    <       0.00029335 Ry

     iteration # 33     ecut=    50.00 Ry     beta= 0.30
     Davidson diagonalization with overlap
     ethr =  1.79E-07,  avg # of iterations =  9.8

     total cpu time spent up to now is      286.7 secs

     total energy              =    -200.31351562 Ry
     estimated scf accuracy    <       0.00013882 Ry

     iteration # 34     ecut=    50.00 Ry     beta= 0.30
     Davidson diagonalization with overlap
     ethr =  1.79E-07,  avg # of iterations =  1.1

     total cpu time spent up to now is      291.9 secs

     total energy              =    -200.31349979 Ry
     estimated scf accuracy    <       0.00012667 Ry

     iteration # 35     ecut=    50.00 Ry     beta= 0.30
     Davidson diagonalization with overlap
     ethr =  1.79E-07,  avg # of iterations =  6.3

     total cpu time spent up to now is      297.1 secs

     total energy              =    -200.31350805 Ry
     estimated scf accuracy    <       0.00000480 Ry

     iteration # 36     ecut=    50.00 Ry     beta= 0.30
     Davidson diagonalization with overlap
     c_bands:  1 eigenvalues not converged
     c_bands:  1 eigenvalues not converged
     c_bands:  1 eigenvalues not converged
     c_bands:  1 eigenvalues not converged
     c_bands:  1 eigenvalues not converged
     c_bands:  1 eigenvalues not converged
     c_bands:  1 eigenvalues not converged
     ethr =  1.33E-08,  avg # of iterations = 10.6

     total cpu time spent up to now is      304.1 secs

     total energy              =    -200.31351494 Ry
     estimated scf accuracy    <       0.00003940 Ry

     iteration # 37     ecut=    50.00 Ry     beta= 0.30
     Davidson diagonalization with overlap
     ethr =  1.33E-08,  avg # of iterations =  1.3

     total cpu time spent up to now is      308.0 secs

     total energy              =    -200.31351198 Ry
     estimated scf accuracy    <       0.00003704 Ry

     iteration # 38     ecut=    50.00 Ry     beta= 0.30
     Davidson diagonalization with overlap
     ethr =  1.33E-08,  avg # of iterations =  8.1

     total cpu time spent up to now is      313.5 secs

     total energy              =    -200.31351283 Ry
     estimated scf accuracy    <       0.00000670 Ry

     iteration # 39     ecut=    50.00 Ry     beta= 0.30
     Davidson diagonalization with overlap
     ethr =  1.33E-08,  avg # of iterations =  1.1

     total cpu time spent up to now is      317.4 secs

     total energy              =    -200.31351227 Ry
     estimated scf accuracy    <       0.00000579 Ry

     iteration # 40     ecut=    50.00 Ry     beta= 0.30
     Davidson diagonalization with overlap
     ethr =  1.33E-08,  avg # of iterations =  3.0

     total cpu time spent up to now is      321.7 secs

     total energy              =    -200.31351235 Ry
     estimated scf accuracy    <       0.00000179 Ry

     iteration # 41     ecut=    50.00 Ry     beta= 0.30
     Davidson diagonalization with overlap
     ethr =  4.96E-09,  avg # of iterations = 10.4

     total cpu time spent up to now is      327.8 secs

     total energy              =    -200.31351305 Ry
     estimated scf accuracy    <       0.00000339 Ry

     iteration # 42     ecut=    50.00 Ry     beta= 0.30
     Davidson diagonalization with overlap
     ethr =  4.96E-09,  avg # of iterations =  1.1

     total cpu time spent up to now is      331.7 secs

     total energy              =    -200.31351287 Ry
     estimated scf accuracy    <       0.00000281 Ry

     iteration # 43     ecut=    50.00 Ry     beta= 0.30
     Davidson diagonalization with overlap
     ethr =  4.96E-09,  avg # of iterations =  1.4

     total cpu time spent up to now is      335.6 secs

     total energy              =    -200.31351283 Ry
     estimated scf accuracy    <       0.00000224 Ry

     iteration # 44     ecut=    50.00 Ry     beta= 0.30
     Davidson diagonalization with overlap
     ethr =  4.96E-09,  avg # of iterations =  2.2

     total cpu time spent up to now is      339.8 secs

     total energy              =    -200.31351288 Ry
     estimated scf accuracy    <       0.00000135 Ry

     iteration # 45     ecut=    50.00 Ry     beta= 0.30
     Davidson diagonalization with overlap
     ethr =  3.75E-09,  avg # of iterations =  4.2

     total cpu time spent up to now is      344.3 secs

     total energy              =    -200.31351296 Ry
     estimated scf accuracy    <       0.00000021 Ry

     iteration # 46     ecut=    50.00 Ry     beta= 0.30
     Davidson diagonalization with overlap
     ethr =  5.79E-10,  avg # of iterations = 10.3

     total cpu time spent up to now is      350.3 secs

     total energy              =    -200.31351313 Ry
     estimated scf accuracy    <       0.00000038 Ry

     iteration # 47     ecut=    50.00 Ry     beta= 0.30
     Davidson diagonalization with overlap
     ethr =  5.79E-10,  avg # of iterations =  1.2

     total cpu time spent up to now is      354.2 secs

     total energy              =    -200.31351311 Ry
     estimated scf accuracy    <       0.00000041 Ry

     iteration # 48     ecut=    50.00 Ry     beta= 0.30
     Davidson diagonalization with overlap
     ethr =  5.79E-10,  avg # of iterations =  1.1

     total cpu time spent up to now is      358.0 secs

     total energy              =    -200.31351307 Ry
     estimated scf accuracy    <       0.00000037 Ry

     iteration # 49     ecut=    50.00 Ry     beta= 0.30
     Davidson diagonalization with overlap
     ethr =  5.79E-10,  avg # of iterations =  2.5

     total cpu time spent up to now is      362.2 secs

     total energy              =    -200.31351307 Ry
     estimated scf accuracy    <       0.00000020 Ry

     iteration # 50     ecut=    50.00 Ry     beta= 0.30
     Davidson diagonalization with overlap
     ethr =  5.47E-10,  avg # of iterations =  1.3

     total cpu time spent up to now is      366.1 secs

     total energy              =    -200.31351308 Ry
     estimated scf accuracy    <       0.00000017 Ry

     iteration # 51     ecut=    50.00 Ry     beta= 0.30
     Davidson diagonalization with overlap
     ethr =  4.75E-10,  avg # of iterations =  1.6

     total cpu time spent up to now is      370.1 secs

     total energy              =    -200.31351308 Ry
     estimated scf accuracy    <       0.00000014 Ry

     iteration # 52     ecut=    50.00 Ry     beta= 0.30
     Davidson diagonalization with overlap
     ethr =  3.78E-10,  avg # of iterations =  1.4

     total cpu time spent up to now is      374.1 secs

     total energy              =    -200.31351310 Ry
     estimated scf accuracy    <       0.00000014 Ry

     iteration # 53     ecut=    50.00 Ry     beta= 0.30
     Davidson diagonalization with overlap
     ethr =  3.78E-10,  avg # of iterations =  1.0

     total cpu time spent up to now is      377.9 secs

     total energy              =    -200.31351311 Ry
     estimated scf accuracy    <       0.00000016 Ry

     iteration # 54     ecut=    50.00 Ry     beta= 0.30
     Davidson diagonalization with overlap
     ethr =  3.78E-10,  avg # of iterations =  1.1

     total cpu time spent up to now is      381.7 secs

     total energy              =    -200.31351304 Ry
     estimated scf accuracy    <       0.00000019 Ry

     iteration # 55     ecut=    50.00 Ry     beta= 0.30
     Davidson diagonalization with overlap
     ethr =  3.78E-10,  avg # of iterations = 10.2

     total cpu time spent up to now is      387.9 secs

     total energy              =    -200.31351304 Ry
     estimated scf accuracy    <       0.00000044 Ry

     iteration # 56     ecut=    50.00 Ry     beta= 0.30
     Davidson diagonalization with overlap
     ethr =  3.78E-10,  avg # of iterations =  8.9

     total cpu time spent up to now is      393.5 secs

     total energy              =    -200.31351309 Ry
     estimated scf accuracy    <       0.00000001 Ry

     iteration # 57     ecut=    50.00 Ry     beta= 0.30
     Davidson diagonalization with overlap
     c_bands:  1 eigenvalues not converged
     c_bands:  1 eigenvalues not converged
     c_bands:  1 eigenvalues not converged
     c_bands:  1 eigenvalues not converged
     c_bands:  1 eigenvalues not converged
     ethr =  2.94E-11,  avg # of iterations =  6.6

     total cpu time spent up to now is      398.9 secs

     total energy              =    -200.31351309 Ry
     estimated scf accuracy    <       0.00000003 Ry

     iteration # 58     ecut=    50.00 Ry     beta= 0.30
     Davidson diagonalization with overlap
     ethr =  2.94E-11,  avg # of iterations =  1.1

     total cpu time spent up to now is      402.7 secs

     total energy              =    -200.31351309 Ry
     estimated scf accuracy    <       0.00000004 Ry

     iteration # 59     ecut=    50.00 Ry     beta= 0.30
     Davidson diagonalization with overlap
     ethr =  2.94E-11,  avg # of iterations =  1.3

     total cpu time spent up to now is      406.6 secs

     total energy              =    -200.31351309 Ry
     estimated scf accuracy    <       0.00000003 Ry

     iteration # 60     ecut=    50.00 Ry     beta= 0.30
     Davidson diagonalization with overlap
     ethr =  2.94E-11,  avg # of iterations =  1.8

     total cpu time spent up to now is      410.7 secs

     total energy              =    -200.31351309 Ry
     estimated scf accuracy    <       0.00000002 Ry

     iteration # 61     ecut=    50.00 Ry     beta= 0.30
     Davidson diagonalization with overlap
     ethr =  2.94E-11,  avg # of iterations =  8.8

     total cpu time spent up to now is      416.3 secs

     End of self-consistent calculation

     Number of k-points >= 100: set verbosity='high' to print the bands.

     highest occupied level (ev):     6.7062

!    total energy              =    -200.31351309 Ry
     estimated scf accuracy    <          2.8E-09 Ry

     The total energy is the sum of the following terms:
     one-electron contribution =    -494.42089788 Ry
     hartree contribution      =     269.05543663 Ry
     xc contribution           =    -117.80086414 Ry
     ewald contribution        =     142.85281231 Ry

     convergence has been achieved in  61 iterations

     Forces acting on atoms (cartesian axes, Ry/au):

     atom    1 type  1   force =  -483.92653838   62.67210475 -375.89281658
     atom    2 type  1   force =     1.29709206    0.36678709    1.52849369
     atom    3 type  2   force =   482.49159919  -63.09215016  374.47915988
     atom    4 type  2   force =     0.13784713    0.05325832   -0.11483699
     The non-local contrib.  to forces
     atom    1 type  1   force =    35.14152189   -4.23175601   27.36518674
     atom    2 type  1   force =    -0.54308506   -0.12128346   -0.61939027
     atom    3 type  2   force =    -1.23534676    0.17343219   -0.85072563
     atom    4 type  2   force =     0.07486143   -0.01744329    0.32378181
     The ionic contribution  to forces
     atom    1 type  1   force =  -547.90867816   66.00599826 -434.64232334
     atom    2 type  1   force =    18.55754106    4.37727960   49.84407241
     atom    3 type  2   force =   525.62292121  -73.03412969  404.77297764
     atom    4 type  2   force =     3.72821589    2.65085184  -19.97472670
     The local contribution  to forces
     atom    1 type  1   force =    27.35686475    1.08810109   30.20924261
     atom    2 type  1   force =   -16.61534087   -3.85917413  -47.55988922
     atom    3 type  2   force =   -41.44797867    9.70884839  -29.09524292
     atom    4 type  2   force =    -3.66289266   -2.57934740   19.53663670
     The core correction contribution to forces
     atom    1 type  1   force =     1.48377168   -0.19022418    1.17493065
     atom    2 type  1   force =    -0.10206559   -0.03003988   -0.13636788
     atom    3 type  2   force =    -0.44801373    0.05970796   -0.34791048
     atom    4 type  2   force =    -0.00237098   -0.00080769   -0.00049806
     The Hubbard contrib.    to forces
     atom    1 type  1   force =     0.00000000    0.00000000    0.00000000
     atom    2 type  1   force =     0.00000000    0.00000000    0.00000000
     atom    3 type  2   force =     0.00000000    0.00000000    0.00000000
     atom    4 type  2   force =     0.00000000    0.00000000    0.00000000
     The SCF correction term to forces
     atom    1 type  1   force =    -0.00004373   -0.00001592    0.00019253
     atom    2 type  1   force =     0.00001733    0.00000345    0.00011441
     atom    3 type  2   force =    -0.00000803   -0.00001053    0.00010704
     atom    4 type  2   force =     0.00000827    0.00000335    0.00001504

     Total force =   869.727365     Total SCF correction =     0.000254

     Writing all to output data dir ./ZnO_ANN.save/

     init_run     :      3.93s CPU      4.02s WALL (       1 calls)
     electrons    :    404.62s CPU    411.83s WALL (       1 calls)
     forces       :      1.00s CPU      1.00s WALL (       1 calls)

     Called by init_run:
     wfcinit      :      2.97s CPU      3.02s WALL (       1 calls)
     potinit      :      0.31s CPU      0.31s WALL (       1 calls)
     hinit0       :      0.55s CPU      0.57s WALL (       1 calls)

     Called by electrons:
     c_bands      :    353.79s CPU    359.90s WALL (      61 calls)
     sum_band     :     44.89s CPU     45.85s WALL (      61 calls)
     v_of_rho     :      1.18s CPU      1.26s WALL (      62 calls)
     newd         :      4.52s CPU      4.57s WALL (      62 calls)
     mix_rho      :      0.22s CPU      0.23s WALL (      61 calls)

     Called by c_bands:
     init_us_2    :      3.89s CPU      3.95s WALL (   13888 calls)
     init_us_2:cp :      3.84s CPU      3.91s WALL (   13888 calls)
     cegterg      :    341.69s CPU    347.62s WALL (    6832 calls)

     Called by *egterg:
     cdiaghg      :     47.15s CPU     47.67s WALL (   45632 calls)
     h_psi        :    190.48s CPU    194.70s WALL (   45744 calls)
     s_psi        :     28.06s CPU     28.26s WALL (   45744 calls)
     g_psi        :      0.79s CPU      0.81s WALL (   38800 calls)

     Called by h_psi:
     h_psi:calbec :     28.73s CPU     29.54s WALL (   45744 calls)
     vloc_psi     :    133.08s CPU    136.30s WALL (   45744 calls)
     add_vuspsi   :     27.83s CPU     28.02s WALL (   45744 calls)

     General routines
     calbec       :     39.38s CPU     40.48s WALL (   53024 calls)
     fft          :      1.03s CPU      1.14s WALL (     815 calls)
     ffts         :      0.15s CPU      0.16s WALL (     123 calls)
     fftw         :    134.75s CPU    138.02s WALL (  769358 calls)
     interpolate  :      0.19s CPU      0.20s WALL (      62 calls)

     Parallel routines

     PWSCF        :   6m50.27s CPU   6m57.85s WALL


   This run was terminated on:  18:40:13  23Jun2025            

=------------------------------------------------------------------------------=
   JOB DONE.
=------------------------------------------------------------------------------=
Note: The following floating-point exceptions are signalling: IEEE_INVALID_FLAG
