
     Program PWSCF v.7.2 starts on 23Jun2025 at 13:24:25 

     This program is part of the open-source Quantum ESPRESSO suite
     for quantum simulation of materials; please cite
         "P. Giannozzi et al., J. Phys.:Condens. Matter 21 395502 (2009);
         "P. Giannozzi et al., J. Phys.:Condens. Matter 29 465901 (2017);
         "P. Giannozzi et al., J. Chem. Phys. 152 154105 (2020);
          URL http://www.quantum-espresso.org", 
     in publications or presentations arising from this work. More details at
     http://www.quantum-espresso.org/quote

     Parallel version (MPI), running on     8 processors

     MPI processes distributed on     1 nodes
     91185 MiB available memory on the printing compute node when the environment starts

     Reading input from /home/jvc/QEspresso7.2/ZnO_DataBase/scfs_rnd025.in/scf-5.93-1.68-1.in

     Current dimensions of program PWSCF are:
     Max number of different atomic species (ntypx) = 10
     Max number of k-points (npk) =  40000
     Max angular momentum in pseudopotentials (lmaxx) =  4
     file Zn.upf: wavefunction(s)  3D renormalized

     R & G space division:  proc/nbgrp/npool/nimage =       8
     Subspace diagonalization in iterative solution of the eigenvalue problem:
     a serial algorithm will be used


     Parallelization info
     --------------------
     sticks:   dense  smooth     PW     G-vecs:    dense   smooth      PW
     Min         119      61     18                 5105     1813     310
     Max         120      63     19                 5116     1816     313
     Sum         955     499    151                40881    14511    2491

     Using Slab Decomposition



     bravais-lattice index     =            4
     lattice parameter (alat)  =       5.9317  a.u.
     unit-cell volume          =     303.4552 (a.u.)^3
     number of atoms/cell      =            4
     number of atomic types    =            2
     number of electrons       =        36.00
     number of Kohn-Sham states=           18
     kinetic-energy cutoff     =      50.0000  Ry
     charge density cutoff     =     400.0000  Ry
     scf convergence threshold =      1.0E-08
     mixing beta               =       0.3000
     number of iterations used =            8  plain     mixing
     Exchange-correlation= PBE
                           (   1   4   3   4   0   0   0)

     celldm(1)=   5.931669  celldm(2)=   0.000000  celldm(3)=   1.678933
     celldm(4)=   0.000000  celldm(5)=   0.000000  celldm(6)=   0.000000

     crystal axes: (cart. coord. in units of alat)
               a(1) = (   1.000000   0.000000   0.000000 )  
               a(2) = (  -0.500000   0.866025   0.000000 )  
               a(3) = (   0.000000   0.000000   1.678933 )  

     reciprocal axes: (cart. coord. in units 2 pi/alat)
               b(1) = (  1.000000  0.577350 -0.000000 )  
               b(2) = (  0.000000  1.154701  0.000000 )  
               b(3) = (  0.000000 -0.000000  0.595616 )  


     PseudoPot. # 1 for Zn read from file:
     ./pseudos/Zn.upf
     MD5 check sum: 7f56cabf9682ed8c977c2f7d0c5985c5
     Pseudo is Ultrasoft + core correction, Zval = 12.0
     Generated using &quot;atomic&quot; code by A. Dal Corso  v.6.2.2
     Using radial grid of 1201 points,  6 beta functions with: 
                l(1) =   0
                l(2) =   0
                l(3) =   1
                l(4) =   1
                l(5) =   2
                l(6) =   2
     Q(r) pseudized with 0 coefficients 


     PseudoPot. # 2 for O  read from file:
     ./pseudos/O.upf
     MD5 check sum: 91400c9766925bcf19f520983a725ff0
     Pseudo is Ultrasoft + core correction, Zval =  6.0
     Generated using &quot;atomic&quot; code by A. Dal Corso  v.6.3MaX
     Using radial grid of 1095 points,  4 beta functions with: 
                l(1) =   0
                l(2) =   0
                l(3) =   1
                l(4) =   1
     Q(r) pseudized with 0 coefficients 


     atomic species   valence    mass     pseudopotential
        Zn            12.00    63.38000     Zn( 1.00)
        O              6.00    15.99900     O ( 1.00)

     No symmetry found



   Cartesian axes

     site n.     atom                  positions (alat units)
         1           Zn  tau(   1) = (   0.5139434   0.3602144   0.9494888  )
         2           Zn  tau(   2) = (   0.0272721   0.4883295  -0.1628803  )
         3           O   tau(   3) = (   0.5946975   0.3016486   1.3952930  )
         4           O   tau(   4) = (  -0.0732215   0.5846099   0.3571255  )

     number of k points=   112

     Number of k-points >= 100: set verbosity='high' to print them.

     Dense  grid:    40881 G-vectors     FFT dimensions: (  40,  40,  64)

     Smooth grid:    14511 G-vectors     FFT dimensions: (  27,  27,  45)

     Estimated max dynamical RAM per process >      28.39 MB

     Estimated total dynamical RAM >     227.12 MB

     Check: negative core charge=   -0.000002

     Initial potential from superposition of free atoms

     starting charge      35.9925, renormalised to      36.0000
     Starting wfcs are   26 randomized atomic wfcs

     total cpu time spent up to now is        3.8 secs

     Self-consistent Calculation

     iteration #  1     ecut=    50.00 Ry     beta= 0.30
     Davidson diagonalization with overlap
     ethr =  1.00E-02,  avg # of iterations =  2.0

     total cpu time spent up to now is        8.9 secs

     total energy              =    -360.59627217 Ry
     estimated scf accuracy    <       1.26951705 Ry

     iteration #  2     ecut=    50.00 Ry     beta= 0.30
     Davidson diagonalization with overlap
     ethr =  3.53E-03,  avg # of iterations =  4.6

     total cpu time spent up to now is       15.2 secs

     total energy              =    -360.80571844 Ry
     estimated scf accuracy    <       0.11474126 Ry

     iteration #  3     ecut=    50.00 Ry     beta= 0.30
     Davidson diagonalization with overlap
     c_bands:  1 eigenvalues not converged
     ethr =  3.19E-04,  avg # of iterations =  7.3

     total cpu time spent up to now is       25.9 secs

     total energy              =    -360.87438687 Ry
     estimated scf accuracy    <       0.11036205 Ry

     iteration #  4     ecut=    50.00 Ry     beta= 0.30
     Davidson diagonalization with overlap
     ethr =  3.07E-04,  avg # of iterations =  4.7

     total cpu time spent up to now is       32.2 secs

     total energy              =    -360.89226514 Ry
     estimated scf accuracy    <       0.00746066 Ry

     iteration #  5     ecut=    50.00 Ry     beta= 0.30
     Davidson diagonalization with overlap
     c_bands:  2 eigenvalues not converged
     c_bands:  1 eigenvalues not converged
     ethr =  2.07E-05,  avg # of iterations =  9.5

     total cpu time spent up to now is       44.4 secs

     total energy              =    -360.88218430 Ry
     estimated scf accuracy    <       0.03742063 Ry

     iteration #  6     ecut=    50.00 Ry     beta= 0.30
     Davidson diagonalization with overlap
     c_bands:  1 eigenvalues not converged
     c_bands:  2 eigenvalues not converged
     ethr =  2.07E-05,  avg # of iterations = 14.2

     total cpu time spent up to now is       60.9 secs

     total energy              =    -360.88760755 Ry
     estimated scf accuracy    <       0.09135983 Ry

     iteration #  7     ecut=    50.00 Ry     beta= 0.30
     Davidson diagonalization with overlap
     c_bands:  1 eigenvalues not converged
     ethr =  2.07E-05,  avg # of iterations = 10.2

     total cpu time spent up to now is       72.3 secs

     total energy              =    -360.89876098 Ry
     estimated scf accuracy    <       0.00090789 Ry

     iteration #  8     ecut=    50.00 Ry     beta= 0.30
     Davidson diagonalization with overlap
     c_bands:  2 eigenvalues not converged
     c_bands:  2 eigenvalues not converged
     ethr =  2.52E-06,  avg # of iterations = 10.9

     total cpu time spent up to now is       83.6 secs

     total energy              =    -360.89914821 Ry
     estimated scf accuracy    <       0.00364202 Ry

     iteration #  9     ecut=    50.00 Ry     beta= 0.30
     Davidson diagonalization with overlap
     c_bands:  1 eigenvalues not converged
     ethr =  2.52E-06,  avg # of iterations =  6.5

     total cpu time spent up to now is       91.1 secs

     total energy              =    -360.89966889 Ry
     estimated scf accuracy    <       0.00004157 Ry

     iteration # 10     ecut=    50.00 Ry     beta= 0.30
     Davidson diagonalization with overlap
     c_bands:  1 eigenvalues not converged
     c_bands:  2 eigenvalues not converged
     ethr =  1.15E-07,  avg # of iterations =  8.0

     total cpu time spent up to now is      100.6 secs

     total energy              =    -360.89961159 Ry
     estimated scf accuracy    <       0.00034234 Ry

     iteration # 11     ecut=    50.00 Ry     beta= 0.30
     Davidson diagonalization with overlap
     c_bands:  1 eigenvalues not converged
     ethr =  1.15E-07,  avg # of iterations =  7.9

     total cpu time spent up to now is      110.1 secs

     total energy              =    -360.89964200 Ry
     estimated scf accuracy    <       0.00001375 Ry

     iteration # 12     ecut=    50.00 Ry     beta= 0.30
     Davidson diagonalization with overlap
     ethr =  3.82E-08,  avg # of iterations =  9.2

     total cpu time spent up to now is      120.2 secs

     total energy              =    -360.89964866 Ry
     estimated scf accuracy    <       0.00002740 Ry

     iteration # 13     ecut=    50.00 Ry     beta= 0.30
     Davidson diagonalization with overlap
     ethr =  3.82E-08,  avg # of iterations =  2.3

     total cpu time spent up to now is      125.4 secs

     total energy              =    -360.89964658 Ry
     estimated scf accuracy    <       0.00001062 Ry

     iteration # 14     ecut=    50.00 Ry     beta= 0.30
     Davidson diagonalization with overlap
     ethr =  2.95E-08,  avg # of iterations =  6.0

     total cpu time spent up to now is      132.8 secs

     total energy              =    -360.89965082 Ry
     estimated scf accuracy    <       0.00000221 Ry

     iteration # 15     ecut=    50.00 Ry     beta= 0.30
     Davidson diagonalization with overlap
     ethr =  6.14E-09,  avg # of iterations =  2.4

     total cpu time spent up to now is      137.9 secs

     total energy              =    -360.89965084 Ry
     estimated scf accuracy    <       0.00000098 Ry

     iteration # 16     ecut=    50.00 Ry     beta= 0.30
     Davidson diagonalization with overlap
     ethr =  2.72E-09,  avg # of iterations =  5.8

     total cpu time spent up to now is      144.4 secs

     total energy              =    -360.89965108 Ry
     estimated scf accuracy    <       0.00000004 Ry

     iteration # 17     ecut=    50.00 Ry     beta= 0.30
     Davidson diagonalization with overlap
     c_bands:  1 eigenvalues not converged
     c_bands:  1 eigenvalues not converged
     ethr =  1.00E-10,  avg # of iterations =  9.9

     total cpu time spent up to now is      155.6 secs

     total energy              =    -360.89965113 Ry
     estimated scf accuracy    <       0.00000003 Ry

     iteration # 18     ecut=    50.00 Ry     beta= 0.30
     Davidson diagonalization with overlap
     ethr =  7.61E-11,  avg # of iterations =  1.3

     total cpu time spent up to now is      160.1 secs

     total energy              =    -360.89965113 Ry
     estimated scf accuracy    <       0.00000002 Ry

     iteration # 19     ecut=    50.00 Ry     beta= 0.30
     Davidson diagonalization with overlap
     ethr =  6.44E-11,  avg # of iterations =  2.7

     total cpu time spent up to now is      165.1 secs

     End of self-consistent calculation

     Number of k-points >= 100: set verbosity='high' to print the bands.

     highest occupied level (ev):     9.3121

!    total energy              =    -360.89965112 Ry
     estimated scf accuracy    <          6.8E-09 Ry

     The total energy is the sum of the following terms:
     one-electron contribution =    -182.31080125 Ry
     hartree contribution      =     131.94509546 Ry
     xc contribution           =    -109.88447504 Ry
     ewald contribution        =    -200.64947029 Ry

     convergence has been achieved in  19 iterations

     Forces acting on atoms (cartesian axes, Ry/au):

     atom    1 type  1   force =    -0.13658818    0.10073034   -1.05020224
     atom    2 type  1   force =     0.45583449    0.17636198    0.14558849
     atom    3 type  2   force =    -0.29714959   -0.31404277    0.59922963
     atom    4 type  2   force =    -0.02209671    0.03695045    0.30538413
     The non-local contrib.  to forces
     atom    1 type  1   force =    -0.19246364    0.14258947   -0.52643042
     atom    2 type  1   force =     0.59911168    0.14670321   -0.88796137
     atom    3 type  2   force =     0.05889966    0.40534123   -1.05314019
     atom    4 type  2   force =     0.21052263   -0.17310819   -0.15938784
     The ionic contribution  to forces
     atom    1 type  1   force =    -2.59857633    0.83438687  -29.93117952
     atom    2 type  1   force =     6.44256208    2.45805231   10.07606934
     atom    3 type  2   force =    -3.05775038   -5.12730943    9.92425268
     atom    4 type  2   force =    -0.78623538    1.83487025    9.93085750
     The local contribution  to forces
     atom    1 type  1   force =     2.62546367   -0.85939226   29.27196824
     atom    2 type  1   force =    -6.51012532   -2.39891058   -9.06946605
     atom    3 type  2   force =     2.70071826    4.40986016   -8.27798673
     atom    4 type  2   force =     0.55550727   -1.62601573   -9.46502335
     The core correction contribution to forces
     atom    1 type  1   force =     0.02896315   -0.01684161    0.13544160
     atom    2 type  1   force =    -0.07565473   -0.02948737    0.02672341
     atom    3 type  2   force =     0.00097620   -0.00193590    0.00600427
     atom    4 type  2   force =    -0.00189579    0.00120058   -0.00092430
     The Hubbard contrib.    to forces
     atom    1 type  1   force =     0.00000000    0.00000000    0.00000000
     atom    2 type  1   force =     0.00000000    0.00000000    0.00000000
     atom    3 type  2   force =     0.00000000    0.00000000    0.00000000
     atom    4 type  2   force =     0.00000000    0.00000000    0.00000000
     The SCF correction term to forces
     atom    1 type  1   force =     0.00002654   -0.00001387    0.00004448
     atom    2 type  1   force =    -0.00005765    0.00000266    0.00026978
     atom    3 type  2   force =     0.00000823   -0.00000058    0.00014623
     atom    4 type  2   force =     0.00000612    0.00000179   -0.00009126

     Total force =     1.425806     Total SCF correction =     0.000330

     Writing all to output data dir ./ZnO_ANN.save/

     init_run     :      3.27s CPU      3.34s WALL (       1 calls)
     electrons    :    158.66s CPU    161.35s WALL (       1 calls)
     forces       :      1.02s CPU      1.03s WALL (       1 calls)

     Called by init_run:
     wfcinit      :      2.45s CPU      2.49s WALL (       1 calls)
     potinit      :      0.21s CPU      0.21s WALL (       1 calls)
     hinit0       :      0.54s CPU      0.55s WALL (       1 calls)

     Called by electrons:
     c_bands      :    144.01s CPU    146.37s WALL (      19 calls)
     sum_band     :     13.26s CPU     13.56s WALL (      19 calls)
     v_of_rho     :      0.28s CPU      0.29s WALL (      20 calls)
     newd         :      1.09s CPU      1.12s WALL (      20 calls)
     mix_rho      :      0.04s CPU      0.05s WALL (      19 calls)

     Called by c_bands:
     init_us_2    :      0.85s CPU      0.87s WALL (    4480 calls)
     init_us_2:cp :      0.84s CPU      0.86s WALL (    4480 calls)
     cegterg      :    141.14s CPU    143.44s WALL (    2128 calls)

     Called by *egterg:
     cdiaghg      :     16.78s CPU     16.92s WALL (   16159 calls)
     h_psi        :     80.84s CPU     82.52s WALL (   16271 calls)
     s_psi        :      7.76s CPU      7.82s WALL (   16271 calls)
     g_psi        :      0.28s CPU      0.29s WALL (   14031 calls)

     Called by h_psi:
     h_psi:calbec :     10.72s CPU     11.04s WALL (   16271 calls)
     vloc_psi     :     62.06s CPU     63.36s WALL (   16271 calls)
     add_vuspsi   :      7.81s CPU      7.89s WALL (   16271 calls)

     General routines
     calbec       :     14.07s CPU     14.46s WALL (   18847 calls)
     fft          :      0.52s CPU      0.55s WALL (     269 calls)
     ffts         :      0.07s CPU      0.08s WALL (      39 calls)
     fftw         :     64.19s CPU     65.55s WALL (  323664 calls)
     interpolate  :      0.08s CPU      0.09s WALL (      20 calls)

     Parallel routines

     PWSCF        :   2m43.65s CPU   2m46.56s WALL


   This run was terminated on:  13:27:12  23Jun2025            

=------------------------------------------------------------------------------=
   JOB DONE.
=------------------------------------------------------------------------------=
Note: The following floating-point exceptions are signalling: IEEE_INVALID_FLAG
