
     Program PWSCF v.7.2 starts on 23Jun2025 at 14:46:44 

     This program is part of the open-source Quantum ESPRESSO suite
     for quantum simulation of materials; please cite
         "P. Giannozzi et al., J. Phys.:Condens. Matter 21 395502 (2009);
         "P. Giannozzi et al., J. Phys.:Condens. Matter 29 465901 (2017);
         "P. Giannozzi et al., J. Chem. Phys. 152 154105 (2020);
          URL http://www.quantum-espresso.org", 
     in publications or presentations arising from this work. More details at
     http://www.quantum-espresso.org/quote

     Parallel version (MPI), running on     8 processors

     MPI processes distributed on     1 nodes
     90969 MiB available memory on the printing compute node when the environment starts

     Reading input from /home/jvc/QEspresso7.2/ZnO_DataBase/scfs_rnd025.in/scf-6.18-1.71-5.in

     Current dimensions of program PWSCF are:
     Max number of different atomic species (ntypx) = 10
     Max number of k-points (npk) =  40000
     Max angular momentum in pseudopotentials (lmaxx) =  4
     file Zn.upf: wavefunction(s)  3D renormalized

     R & G space division:  proc/nbgrp/npool/nimage =       8
     Subspace diagonalization in iterative solution of the eigenvalue problem:
     a serial algorithm will be used


     Parallelization info
     --------------------
     sticks:   dense  smooth     PW     G-vecs:    dense   smooth      PW
     Min         130      64     20                 5890     2080     354
     Max         131      65     21                 5895     2085     357
     Sum        1045     517    163                47143    16667    2841

     Using Slab Decomposition



     bravais-lattice index     =            4
     lattice parameter (alat)  =       6.1788  a.u.
     unit-cell volume          =     349.5855 (a.u.)^3
     number of atoms/cell      =            4
     number of atomic types    =            2
     number of electrons       =        36.00
     number of Kohn-Sham states=           18
     kinetic-energy cutoff     =      50.0000  Ry
     charge density cutoff     =     400.0000  Ry
     scf convergence threshold =      1.0E-08
     mixing beta               =       0.3000
     number of iterations used =            8  plain     mixing
     Exchange-correlation= PBE
                           (   1   4   3   4   0   0   0)

     celldm(1)=   6.178821  celldm(2)=   0.000000  celldm(3)=   1.711220
     celldm(4)=   0.000000  celldm(5)=   0.000000  celldm(6)=   0.000000

     crystal axes: (cart. coord. in units of alat)
               a(1) = (   1.000000   0.000000   0.000000 )  
               a(2) = (  -0.500000   0.866025   0.000000 )  
               a(3) = (   0.000000   0.000000   1.711220 )  

     reciprocal axes: (cart. coord. in units 2 pi/alat)
               b(1) = (  1.000000  0.577350 -0.000000 )  
               b(2) = (  0.000000  1.154701  0.000000 )  
               b(3) = (  0.000000 -0.000000  0.584378 )  


     PseudoPot. # 1 for Zn read from file:
     ./pseudos/Zn.upf
     MD5 check sum: 7f56cabf9682ed8c977c2f7d0c5985c5
     Pseudo is Ultrasoft + core correction, Zval = 12.0
     Generated using &quot;atomic&quot; code by A. Dal Corso  v.6.2.2
     Using radial grid of 1201 points,  6 beta functions with: 
                l(1) =   0
                l(2) =   0
                l(3) =   1
                l(4) =   1
                l(5) =   2
                l(6) =   2
     Q(r) pseudized with 0 coefficients 


     PseudoPot. # 2 for O  read from file:
     ./pseudos/O.upf
     MD5 check sum: 91400c9766925bcf19f520983a725ff0
     Pseudo is Ultrasoft + core correction, Zval =  6.0
     Generated using &quot;atomic&quot; code by A. Dal Corso  v.6.3MaX
     Using radial grid of 1095 points,  4 beta functions with: 
                l(1) =   0
                l(2) =   0
                l(3) =   1
                l(4) =   1
     Q(r) pseudized with 0 coefficients 


     atomic species   valence    mass     pseudopotential
        Zn            12.00    63.38000     Zn( 1.00)
        O              6.00    15.99900     O ( 1.00)

     No symmetry found



   Cartesian axes

     site n.     atom                  positions (alat units)
         1           Zn  tau(   1) = (   0.8484498   0.1109417   0.4616834  )
         2           Zn  tau(   2) = (   0.2958915   0.3735621   0.0810582  )
         3           O   tau(   3) = (   0.5227352   0.3334562   1.6071901  )
         4           O   tau(   4) = (   0.2913944   0.4550799   0.8020849  )

     number of k points=   112

     Number of k-points >= 100: set verbosity='high' to print them.

     Dense  grid:    47143 G-vectors     FFT dimensions: (  40,  40,  72)

     Smooth grid:    16667 G-vectors     FFT dimensions: (  27,  27,  48)

     Estimated max dynamical RAM per process >      32.21 MB

     Estimated total dynamical RAM >     257.69 MB

     Check: negative core charge=   -0.000002

     Initial potential from superposition of free atoms

     starting charge      35.9925, renormalised to      36.0000
     Starting wfcs are   26 randomized atomic wfcs

     total cpu time spent up to now is        4.1 secs

     Self-consistent Calculation

     iteration #  1     ecut=    50.00 Ry     beta= 0.30
     Davidson diagonalization with overlap
     ethr =  1.00E-02,  avg # of iterations =  4.0

     total cpu time spent up to now is       10.6 secs

     total energy              =    -357.60930463 Ry
     estimated scf accuracy    <       1.35988585 Ry

     iteration #  2     ecut=    50.00 Ry     beta= 0.30
     Davidson diagonalization with overlap
     ethr =  3.78E-03,  avg # of iterations =  7.0

     total cpu time spent up to now is       18.9 secs

     total energy              =    -357.86722415 Ry
     estimated scf accuracy    <       0.66101016 Ry

     iteration #  3     ecut=    50.00 Ry     beta= 0.30
     Davidson diagonalization with overlap
     ethr =  1.84E-03,  avg # of iterations =  2.2

     total cpu time spent up to now is       24.5 secs

     total energy              =    -357.77144259 Ry
     estimated scf accuracy    <       0.25889240 Ry

     iteration #  4     ecut=    50.00 Ry     beta= 0.30
     Davidson diagonalization with overlap
     ethr =  7.19E-04,  avg # of iterations =  9.8

     total cpu time spent up to now is       36.8 secs

     total energy              =    -358.13167353 Ry
     estimated scf accuracy    <       1.13428739 Ry

     iteration #  5     ecut=    50.00 Ry     beta= 0.30
     Davidson diagonalization with overlap
     ethr =  7.19E-04,  avg # of iterations =  1.0

     total cpu time spent up to now is       41.8 secs

     total energy              =    -357.96145211 Ry
     estimated scf accuracy    <       0.94212842 Ry

     iteration #  6     ecut=    50.00 Ry     beta= 0.30
     Davidson diagonalization with overlap
     ethr =  7.19E-04,  avg # of iterations =  4.2

     total cpu time spent up to now is       48.2 secs

     total energy              =    -357.93494371 Ry
     estimated scf accuracy    <       0.36755906 Ry

     iteration #  7     ecut=    50.00 Ry     beta= 0.30
     Davidson diagonalization with overlap
     ethr =  7.19E-04,  avg # of iterations =  5.1

     total cpu time spent up to now is       54.6 secs

     total energy              =    -357.95030772 Ry
     estimated scf accuracy    <       0.07879700 Ry

     iteration #  8     ecut=    50.00 Ry     beta= 0.30
     Davidson diagonalization with overlap
     ethr =  2.19E-04,  avg # of iterations =  6.9

     total cpu time spent up to now is       62.6 secs

     total energy              =    -358.01004781 Ry
     estimated scf accuracy    <       0.04241799 Ry

     iteration #  9     ecut=    50.00 Ry     beta= 0.30
     Davidson diagonalization with overlap
     ethr =  1.18E-04,  avg # of iterations =  4.8

     total cpu time spent up to now is       69.0 secs

     total energy              =    -358.01538509 Ry
     estimated scf accuracy    <       0.14693362 Ry

     iteration # 10     ecut=    50.00 Ry     beta= 0.30
     Davidson diagonalization with overlap
     ethr =  1.18E-04,  avg # of iterations =  1.1

     total cpu time spent up to now is       73.9 secs

     total energy              =    -357.98317369 Ry
     estimated scf accuracy    <       0.14846452 Ry

     iteration # 11     ecut=    50.00 Ry     beta= 0.30
     Davidson diagonalization with overlap
     ethr =  1.18E-04,  avg # of iterations =  4.5

     total cpu time spent up to now is       80.5 secs

     total energy              =    -357.98808437 Ry
     estimated scf accuracy    <       0.03550479 Ry

     iteration # 12     ecut=    50.00 Ry     beta= 0.30
     Davidson diagonalization with overlap
     ethr =  9.86E-05,  avg # of iterations =  1.8

     total cpu time spent up to now is       85.8 secs

     total energy              =    -357.98090038 Ry
     estimated scf accuracy    <       0.02349036 Ry

     iteration # 13     ecut=    50.00 Ry     beta= 0.30
     Davidson diagonalization with overlap
     ethr =  6.53E-05,  avg # of iterations =  7.2

     total cpu time spent up to now is       94.5 secs

     total energy              =    -357.98799679 Ry
     estimated scf accuracy    <       0.02720263 Ry

     iteration # 14     ecut=    50.00 Ry     beta= 0.30
     Davidson diagonalization with overlap
     ethr =  6.53E-05,  avg # of iterations =  2.5

     total cpu time spent up to now is      100.1 secs

     total energy              =    -357.98543034 Ry
     estimated scf accuracy    <       0.00924692 Ry

     iteration # 15     ecut=    50.00 Ry     beta= 0.30
     Davidson diagonalization with overlap
     ethr =  2.57E-05,  avg # of iterations =  7.9

     total cpu time spent up to now is      108.8 secs

     total energy              =    -357.98968459 Ry
     estimated scf accuracy    <       0.03531778 Ry

     iteration # 16     ecut=    50.00 Ry     beta= 0.30
     Davidson diagonalization with overlap
     ethr =  2.57E-05,  avg # of iterations =  5.8

     total cpu time spent up to now is      115.4 secs

     total energy              =    -357.99180216 Ry
     estimated scf accuracy    <       0.00667378 Ry

     iteration # 17     ecut=    50.00 Ry     beta= 0.30
     Davidson diagonalization with overlap
     ethr =  1.85E-05,  avg # of iterations =  1.5

     total cpu time spent up to now is      120.4 secs

     total energy              =    -357.99162578 Ry
     estimated scf accuracy    <       0.00642648 Ry

     iteration # 18     ecut=    50.00 Ry     beta= 0.30
     Davidson diagonalization with overlap
     ethr =  1.79E-05,  avg # of iterations =  1.9

     total cpu time spent up to now is      125.5 secs

     total energy              =    -357.99142990 Ry
     estimated scf accuracy    <       0.00464185 Ry

     iteration # 19     ecut=    50.00 Ry     beta= 0.30
     Davidson diagonalization with overlap
     ethr =  1.29E-05,  avg # of iterations =  3.2

     total cpu time spent up to now is      131.0 secs

     total energy              =    -357.99174172 Ry
     estimated scf accuracy    <       0.00179557 Ry

     iteration # 20     ecut=    50.00 Ry     beta= 0.30
     Davidson diagonalization with overlap
     ethr =  4.99E-06,  avg # of iterations =  3.5

     total cpu time spent up to now is      136.8 secs

     total energy              =    -357.99191399 Ry
     estimated scf accuracy    <       0.00072990 Ry

     iteration # 21     ecut=    50.00 Ry     beta= 0.30
     Davidson diagonalization with overlap
     ethr =  2.03E-06,  avg # of iterations =  2.3

     total cpu time spent up to now is      142.1 secs

     total energy              =    -357.99199799 Ry
     estimated scf accuracy    <       0.00049638 Ry

     iteration # 22     ecut=    50.00 Ry     beta= 0.30
     Davidson diagonalization with overlap
     ethr =  1.38E-06,  avg # of iterations =  1.3

     total cpu time spent up to now is      146.9 secs

     total energy              =    -357.99199619 Ry
     estimated scf accuracy    <       0.00055522 Ry

     iteration # 23     ecut=    50.00 Ry     beta= 0.30
     Davidson diagonalization with overlap
     ethr =  1.38E-06,  avg # of iterations =  1.3

     total cpu time spent up to now is      151.8 secs

     total energy              =    -357.99183809 Ry
     estimated scf accuracy    <       0.00049566 Ry

     iteration # 24     ecut=    50.00 Ry     beta= 0.30
     Davidson diagonalization with overlap
     ethr =  1.38E-06,  avg # of iterations =  5.8

     total cpu time spent up to now is      158.6 secs

     total energy              =    -357.99197716 Ry
     estimated scf accuracy    <       0.00003335 Ry

     iteration # 25     ecut=    50.00 Ry     beta= 0.30
     Davidson diagonalization with overlap
     ethr =  9.26E-08,  avg # of iterations =  7.1

     total cpu time spent up to now is      167.2 secs

     total energy              =    -357.99196403 Ry
     estimated scf accuracy    <       0.00029976 Ry

     iteration # 26     ecut=    50.00 Ry     beta= 0.30
     Davidson diagonalization with overlap
     ethr =  9.26E-08,  avg # of iterations =  7.1

     total cpu time spent up to now is      175.2 secs

     total energy              =    -357.99198330 Ry
     estimated scf accuracy    <       0.00004564 Ry

     iteration # 27     ecut=    50.00 Ry     beta= 0.30
     Davidson diagonalization with overlap
     ethr =  9.26E-08,  avg # of iterations =  1.1

     total cpu time spent up to now is      179.9 secs

     total energy              =    -357.99196381 Ry
     estimated scf accuracy    <       0.00005219 Ry

     iteration # 28     ecut=    50.00 Ry     beta= 0.30
     Davidson diagonalization with overlap
     ethr =  9.26E-08,  avg # of iterations =  7.4

     total cpu time spent up to now is      188.2 secs

     total energy              =    -357.99196022 Ry
     estimated scf accuracy    <       0.00002768 Ry

     iteration # 29     ecut=    50.00 Ry     beta= 0.30
     Davidson diagonalization with overlap
     c_bands:  1 eigenvalues not converged
     c_bands:  1 eigenvalues not converged
     ethr =  7.69E-08,  avg # of iterations = 14.5

     total cpu time spent up to now is      202.6 secs

     total energy              =    -357.99180270 Ry
     estimated scf accuracy    <       0.00082918 Ry

     iteration # 30     ecut=    50.00 Ry     beta= 0.30
     Davidson diagonalization with overlap
     c_bands:  1 eigenvalues not converged
     c_bands:  1 eigenvalues not converged
     ethr =  7.69E-08,  avg # of iterations = 15.0

     total cpu time spent up to now is      218.3 secs

     total energy              =    -357.99199283 Ry
     estimated scf accuracy    <       0.00014816 Ry

     iteration # 31     ecut=    50.00 Ry     beta= 0.30
     Davidson diagonalization with overlap
     ethr =  7.69E-08,  avg # of iterations =  1.1

     total cpu time spent up to now is      222.9 secs

     total energy              =    -357.99196589 Ry
     estimated scf accuracy    <       0.00013894 Ry

     iteration # 32     ecut=    50.00 Ry     beta= 0.30
     Davidson diagonalization with overlap
     ethr =  7.69E-08,  avg # of iterations =  7.4

     total cpu time spent up to now is      230.6 secs

     total energy              =    -357.99197683 Ry
     estimated scf accuracy    <       0.00001009 Ry

     iteration # 33     ecut=    50.00 Ry     beta= 0.30
     Davidson diagonalization with overlap
     ethr =  2.80E-08,  avg # of iterations =  2.0

     total cpu time spent up to now is      235.8 secs

     total energy              =    -357.99197417 Ry
     estimated scf accuracy    <       0.00001046 Ry

     iteration # 34     ecut=    50.00 Ry     beta= 0.30
     Davidson diagonalization with overlap
     ethr =  2.80E-08,  avg # of iterations =  2.4

     total cpu time spent up to now is      241.2 secs

     total energy              =    -357.99197343 Ry
     estimated scf accuracy    <       0.00000339 Ry

     iteration # 35     ecut=    50.00 Ry     beta= 0.30
     Davidson diagonalization with overlap
     ethr =  9.40E-09,  avg # of iterations =  7.4

     total cpu time spent up to now is      249.8 secs

     total energy              =    -357.99197542 Ry
     estimated scf accuracy    <       0.00000986 Ry

     iteration # 36     ecut=    50.00 Ry     beta= 0.30
     Davidson diagonalization with overlap
     ethr =  9.40E-09,  avg # of iterations =  2.0

     total cpu time spent up to now is      255.0 secs

     total energy              =    -357.99197476 Ry
     estimated scf accuracy    <       0.00000614 Ry

     iteration # 37     ecut=    50.00 Ry     beta= 0.30
     Davidson diagonalization with overlap
     ethr =  9.40E-09,  avg # of iterations =  7.1

     total cpu time spent up to now is      262.0 secs

     total energy              =    -357.99197545 Ry
     estimated scf accuracy    <       0.00000016 Ry

     iteration # 38     ecut=    50.00 Ry     beta= 0.30
     Davidson diagonalization with overlap
     c_bands:  2 eigenvalues not converged
     ethr =  4.37E-10,  avg # of iterations = 12.3

     total cpu time spent up to now is      274.5 secs

     total energy              =    -357.99197565 Ry
     estimated scf accuracy    <       0.00000250 Ry

     iteration # 39     ecut=    50.00 Ry     beta= 0.30
     Davidson diagonalization with overlap
     ethr =  4.37E-10,  avg # of iterations =  7.4

     total cpu time spent up to now is      282.8 secs

     total energy              =    -357.99197571 Ry
     estimated scf accuracy    <       0.00000046 Ry

     iteration # 40     ecut=    50.00 Ry     beta= 0.30
     Davidson diagonalization with overlap
     ethr =  4.37E-10,  avg # of iterations =  1.5

     total cpu time spent up to now is      287.8 secs

     total energy              =    -357.99197567 Ry
     estimated scf accuracy    <       0.00000034 Ry

     iteration # 41     ecut=    50.00 Ry     beta= 0.30
     Davidson diagonalization with overlap
     ethr =  4.37E-10,  avg # of iterations =  6.5

     total cpu time spent up to now is      294.8 secs

     total energy              =    -357.99197571 Ry
     estimated scf accuracy    <       0.00000002 Ry

     iteration # 42     ecut=    50.00 Ry     beta= 0.30
     Davidson diagonalization with overlap
     ethr =  4.80E-11,  avg # of iterations =  4.7

     total cpu time spent up to now is      301.4 secs

     End of self-consistent calculation

     Number of k-points >= 100: set verbosity='high' to print the bands.

     highest occupied level (ev):     6.5287

!    total energy              =    -357.99197572 Ry
     estimated scf accuracy    <          3.2E-09 Ry

     The total energy is the sum of the following terms:
     one-electron contribution =    -252.99797664 Ry
     hartree contribution      =     162.67911453 Ry
     xc contribution           =    -110.27665772 Ry
     ewald contribution        =    -157.39645588 Ry

     convergence has been achieved in  42 iterations

     Forces acting on atoms (cartesian axes, Ry/au):

     atom    1 type  1   force =    -0.06337201   -0.03179988    0.28612653
     atom    2 type  1   force =    -6.98354432    1.29709753    5.68435510
     atom    3 type  2   force =     7.07547191   -1.25920727   -5.85380376
     atom    4 type  2   force =    -0.02855557   -0.00609038   -0.11667786
     The non-local contrib.  to forces
     atom    1 type  1   force =    -0.06398592    0.15824117   -0.62229442
     atom    2 type  1   force =     1.10154986   -0.23085038   -0.68645703
     atom    3 type  2   force =    -0.72680777    0.08343683    1.06096439
     atom    4 type  2   force =    -0.18678293    0.13244067   -1.12463819
     The ionic contribution  to forces
     atom    1 type  1   force =    -1.25816036   -0.57724219   19.61068490
     atom    2 type  1   force =   -27.07043346    5.68998446    1.85923445
     atom    3 type  2   force =    27.99240996   -4.62264662  -36.95608071
     atom    4 type  2   force =     0.33618386   -0.49009565   15.48616136
     The local contribution  to forces
     atom    1 type  1   force =     1.25407448    0.39349057  -18.70986314
     atom    2 type  1   force =    18.58330311   -4.09171098    4.81060606
     atom    3 type  2   force =   -20.17570986    3.27717611   30.03298350
     atom    4 type  2   force =    -0.18011486    0.35274516  -14.48866196
     The core correction contribution to forces
     atom    1 type  1   force =     0.00470742   -0.00627566    0.00748413
     atom    2 type  1   force =     0.40201750   -0.07033269   -0.29896014
     atom    3 type  2   force =    -0.01442430    0.00282378    0.00838789
     atom    4 type  2   force =     0.00215061   -0.00118119    0.01040321
     The Hubbard contrib.    to forces
     atom    1 type  1   force =     0.00000000    0.00000000    0.00000000
     atom    2 type  1   force =     0.00000000    0.00000000    0.00000000
     atom    3 type  2   force =     0.00000000    0.00000000    0.00000000
     atom    4 type  2   force =     0.00000000    0.00000000    0.00000000
     The SCF correction term to forces
     atom    1 type  1   force =    -0.00001078   -0.00001370    0.00012245
     atom    2 type  1   force =     0.00001553    0.00000718   -0.00006085
     atom    3 type  2   force =     0.00000074    0.00000270   -0.00005144
     atom    4 type  2   force =     0.00000458    0.00000069    0.00006511

     Total force =    12.991556     Total SCF correction =     0.000162

     Writing all to output data dir ./ZnO_ANN.save/

     init_run     :      3.54s CPU      3.64s WALL (       1 calls)
     electrons    :    292.10s CPU    297.31s WALL (       1 calls)
     forces       :      1.13s CPU      1.14s WALL (       1 calls)

     Called by init_run:
     wfcinit      :      2.64s CPU      2.70s WALL (       1 calls)
     potinit      :      0.27s CPU      0.27s WALL (       1 calls)
     hinit0       :      0.54s CPU      0.56s WALL (       1 calls)

     Called by electrons:
     c_bands      :    257.39s CPU    261.83s WALL (      42 calls)
     sum_band     :     31.20s CPU     31.89s WALL (      42 calls)
     v_of_rho     :      0.67s CPU      0.72s WALL (      43 calls)
     newd         :      2.71s CPU      2.74s WALL (      43 calls)
     mix_rho      :      0.13s CPU      0.14s WALL (      42 calls)

     Called by c_bands:
     init_us_2    :      2.29s CPU      2.32s WALL (    9632 calls)
     init_us_2:cp :      2.26s CPU      2.29s WALL (    9632 calls)
     cegterg      :    250.05s CPU    254.41s WALL (    4704 calls)

     Called by *egterg:
     cdiaghg      :     29.43s CPU     29.67s WALL (   28304 calls)
     h_psi        :    145.46s CPU    148.77s WALL (   28416 calls)
     s_psi        :     17.76s CPU     17.91s WALL (   28416 calls)
     g_psi        :      0.48s CPU      0.49s WALL (   23600 calls)

     Called by h_psi:
     h_psi:calbec :     20.22s CPU     20.86s WALL (   28416 calls)
     vloc_psi     :    106.98s CPU    109.47s WALL (   28416 calls)
     add_vuspsi   :     17.76s CPU     17.94s WALL (   28416 calls)

     General routines
     calbec       :     27.75s CPU     28.59s WALL (   33568 calls)
     fft          :      0.89s CPU      0.95s WALL (     568 calls)
     ffts         :      0.13s CPU      0.13s WALL (      85 calls)
     fftw         :    112.38s CPU    115.02s WALL (  563266 calls)
     interpolate  :      0.15s CPU      0.15s WALL (      43 calls)

     Parallel routines

     PWSCF        :   4m57.51s CPU   5m 3.08s WALL


   This run was terminated on:  14:51:47  23Jun2025            

=------------------------------------------------------------------------------=
   JOB DONE.
=------------------------------------------------------------------------------=
Note: The following floating-point exceptions are signalling: IEEE_INVALID_FLAG
