
     Program PWSCF v.7.2 starts on 23Jun2025 at 12:13:45 

     This program is part of the open-source Quantum ESPRESSO suite
     for quantum simulation of materials; please cite
         "P. Giannozzi et al., J. Phys.:Condens. Matter 21 395502 (2009);
         "P. Giannozzi et al., J. Phys.:Condens. Matter 29 465901 (2017);
         "P. Giannozzi et al., J. Chem. Phys. 152 154105 (2020);
          URL http://www.quantum-espresso.org", 
     in publications or presentations arising from this work. More details at
     http://www.quantum-espresso.org/quote

     Parallel version (MPI), running on     8 processors

     MPI processes distributed on     1 nodes
     91457 MiB available memory on the printing compute node when the environment starts

     Reading input from /home/jvc/QEspresso7.2/ZnO_DataBase/scfs_rnd025.in/scf-5.68-1.52-4.in

     Current dimensions of program PWSCF are:
     Max number of different atomic species (ntypx) = 10
     Max number of k-points (npk) =  40000
     Max angular momentum in pseudopotentials (lmaxx) =  4
     file Zn.upf: wavefunction(s)  3D renormalized

     R & G space division:  proc/nbgrp/npool/nimage =       8
     Subspace diagonalization in iterative solution of the eigenvalue problem:
     a serial algorithm will be used


     Parallelization info
     --------------------
     sticks:   dense  smooth     PW     G-vecs:    dense   smooth      PW
     Min         111      54     16                 4077     1438     243
     Max         112      55     18                 4082     1445     246
     Sum         889     439    139                32623    11529    1959

     Using Slab Decomposition



     bravais-lattice index     =            4
     lattice parameter (alat)  =       5.6845  a.u.
     unit-cell volume          =     241.4009 (a.u.)^3
     number of atoms/cell      =            4
     number of atomic types    =            2
     number of electrons       =        36.00
     number of Kohn-Sham states=           18
     kinetic-energy cutoff     =      50.0000  Ry
     charge density cutoff     =     400.0000  Ry
     scf convergence threshold =      1.0E-08
     mixing beta               =       0.3000
     number of iterations used =            8  plain     mixing
     Exchange-correlation= PBE
                           (   1   4   3   4   0   0   0)

     celldm(1)=   5.684516  celldm(2)=   0.000000  celldm(3)=   1.517497
     celldm(4)=   0.000000  celldm(5)=   0.000000  celldm(6)=   0.000000

     crystal axes: (cart. coord. in units of alat)
               a(1) = (   1.000000   0.000000   0.000000 )  
               a(2) = (  -0.500000   0.866025   0.000000 )  
               a(3) = (   0.000000   0.000000   1.517497 )  

     reciprocal axes: (cart. coord. in units 2 pi/alat)
               b(1) = (  1.000000  0.577350 -0.000000 )  
               b(2) = (  0.000000  1.154701  0.000000 )  
               b(3) = (  0.000000 -0.000000  0.658980 )  


     PseudoPot. # 1 for Zn read from file:
     ./pseudos/Zn.upf
     MD5 check sum: 7f56cabf9682ed8c977c2f7d0c5985c5
     Pseudo is Ultrasoft + core correction, Zval = 12.0
     Generated using &quot;atomic&quot; code by A. Dal Corso  v.6.2.2
     Using radial grid of 1201 points,  6 beta functions with: 
                l(1) =   0
                l(2) =   0
                l(3) =   1
                l(4) =   1
                l(5) =   2
                l(6) =   2
     Q(r) pseudized with 0 coefficients 


     PseudoPot. # 2 for O  read from file:
     ./pseudos/O.upf
     MD5 check sum: 91400c9766925bcf19f520983a725ff0
     Pseudo is Ultrasoft + core correction, Zval =  6.0
     Generated using &quot;atomic&quot; code by A. Dal Corso  v.6.3MaX
     Using radial grid of 1095 points,  4 beta functions with: 
                l(1) =   0
                l(2) =   0
                l(3) =   1
                l(4) =   1
     Q(r) pseudized with 0 coefficients 


     atomic species   valence    mass     pseudopotential
        Zn            12.00    63.38000     Zn( 1.00)
        O              6.00    15.99900     O ( 1.00)

     No symmetry found



   Cartesian axes

     site n.     atom                  positions (alat units)
         1           Zn  tau(   1) = (   0.4108092   0.3028376   0.9001115  )
         2           Zn  tau(   2) = (  -0.3125232   0.7936536  -0.0260353  )
         3           O   tau(   3) = (   0.3445276   0.2662724   1.4899999  )
         4           O   tau(   4) = (   0.0624071   0.5032474   0.2472694  )

     number of k points=   112

     Number of k-points >= 100: set verbosity='high' to print them.

     Dense  grid:    32623 G-vectors     FFT dimensions: (  40,  40,  60)

     Smooth grid:    11529 G-vectors     FFT dimensions: (  25,  25,  40)

     Estimated max dynamical RAM per process >      23.49 MB

     Estimated total dynamical RAM >     187.95 MB

     Check: negative core charge=   -0.000002

     Initial potential from superposition of free atoms

     starting charge      35.9925, renormalised to      36.0000
     Starting wfcs are   26 randomized atomic wfcs

     total cpu time spent up to now is        3.0 secs

     Self-consistent Calculation

     iteration #  1     ecut=    50.00 Ry     beta= 0.30
     Davidson diagonalization with overlap
     ethr =  1.00E-02,  avg # of iterations =  2.4

     total cpu time spent up to now is        7.1 secs

     total energy              =    -359.07906363 Ry
     estimated scf accuracy    <       0.73016428 Ry

     iteration #  2     ecut=    50.00 Ry     beta= 0.30
     Davidson diagonalization with overlap
     ethr =  2.03E-03,  avg # of iterations =  4.8

     total cpu time spent up to now is       12.1 secs

     total energy              =    -359.20167366 Ry
     estimated scf accuracy    <       0.11373454 Ry

     iteration #  3     ecut=    50.00 Ry     beta= 0.30
     Davidson diagonalization with overlap
     ethr =  3.16E-04,  avg # of iterations =  6.3

     total cpu time spent up to now is       18.5 secs

     total energy              =    -359.24529151 Ry
     estimated scf accuracy    <       0.03820660 Ry

     iteration #  4     ecut=    50.00 Ry     beta= 0.30
     Davidson diagonalization with overlap
     ethr =  1.06E-04,  avg # of iterations =  5.4

     total cpu time spent up to now is       23.8 secs

     total energy              =    -359.25651416 Ry
     estimated scf accuracy    <       0.00930011 Ry

     iteration #  5     ecut=    50.00 Ry     beta= 0.30
     Davidson diagonalization with overlap
     ethr =  2.58E-05,  avg # of iterations =  4.4

     total cpu time spent up to now is       28.4 secs

     total energy              =    -359.25292943 Ry
     estimated scf accuracy    <       0.00830584 Ry

     iteration #  6     ecut=    50.00 Ry     beta= 0.30
     Davidson diagonalization with overlap
     ethr =  2.31E-05,  avg # of iterations =  6.5

     total cpu time spent up to now is       34.5 secs

     total energy              =    -359.25517000 Ry
     estimated scf accuracy    <       0.00456966 Ry

     iteration #  7     ecut=    50.00 Ry     beta= 0.30
     Davidson diagonalization with overlap
     ethr =  1.27E-05,  avg # of iterations =  4.3

     total cpu time spent up to now is       39.1 secs

     total energy              =    -359.25610008 Ry
     estimated scf accuracy    <       0.00006153 Ry

     iteration #  8     ecut=    50.00 Ry     beta= 0.30
     Davidson diagonalization with overlap
     c_bands:  1 eigenvalues not converged
     c_bands:  1 eigenvalues not converged
     c_bands:  1 eigenvalues not converged
     c_bands:  1 eigenvalues not converged
     c_bands:  1 eigenvalues not converged
     c_bands:  1 eigenvalues not converged
     c_bands:  1 eigenvalues not converged
     c_bands:  1 eigenvalues not converged
     c_bands:  1 eigenvalues not converged
     c_bands:  1 eigenvalues not converged
     ethr =  1.71E-07,  avg # of iterations = 15.4

     total cpu time spent up to now is       52.9 secs

     total energy              =    -359.25617561 Ry
     estimated scf accuracy    <       0.00093436 Ry

     iteration #  9     ecut=    50.00 Ry     beta= 0.30
     Davidson diagonalization with overlap
     c_bands:  1 eigenvalues not converged
     c_bands:  1 eigenvalues not converged
     c_bands:  1 eigenvalues not converged
     c_bands:  1 eigenvalues not converged
     c_bands:  1 eigenvalues not converged
     ethr =  1.71E-07,  avg # of iterations = 12.1

     total cpu time spent up to now is       63.1 secs

     total energy              =    -359.25635247 Ry
     estimated scf accuracy    <       0.00000221 Ry

     iteration # 10     ecut=    50.00 Ry     beta= 0.30
     Davidson diagonalization with overlap
     ethr =  6.15E-09,  avg # of iterations =  9.9

     total cpu time spent up to now is       70.5 secs

     total energy              =    -359.25635524 Ry
     estimated scf accuracy    <       0.00000081 Ry

     iteration # 11     ecut=    50.00 Ry     beta= 0.30
     Davidson diagonalization with overlap
     c_bands:  1 eigenvalues not converged
     c_bands:  1 eigenvalues not converged
     ethr =  2.26E-09,  avg # of iterations = 10.4

     total cpu time spent up to now is       80.4 secs

     total energy              =    -359.25635438 Ry
     estimated scf accuracy    <       0.00000697 Ry

     iteration # 12     ecut=    50.00 Ry     beta= 0.30
     Davidson diagonalization with overlap
     c_bands:  1 eigenvalues not converged
     ethr =  2.26E-09,  avg # of iterations =  7.9

     total cpu time spent up to now is       87.9 secs

     total energy              =    -359.25635500 Ry
     estimated scf accuracy    <       0.00000043 Ry

     iteration # 13     ecut=    50.00 Ry     beta= 0.30
     Davidson diagonalization with overlap
     c_bands:  1 eigenvalues not converged
     ethr =  1.19E-09,  avg # of iterations =  6.5

     total cpu time spent up to now is       93.2 secs

     total energy              =    -359.25635516 Ry
     estimated scf accuracy    <       0.00000004 Ry

     iteration # 14     ecut=    50.00 Ry     beta= 0.30
     Davidson diagonalization with overlap
     ethr =  1.06E-10,  avg # of iterations =  6.7

     total cpu time spent up to now is       99.1 secs

     total energy              =    -359.25635518 Ry
     estimated scf accuracy    <       0.00000002 Ry

     iteration # 15     ecut=    50.00 Ry     beta= 0.30
     Davidson diagonalization with overlap
     ethr =  6.56E-11,  avg # of iterations =  1.6

     total cpu time spent up to now is      102.4 secs

     total energy              =    -359.25635517 Ry
     estimated scf accuracy    <       0.00000002 Ry

     iteration # 16     ecut=    50.00 Ry     beta= 0.30
     Davidson diagonalization with overlap
     ethr =  6.37E-11,  avg # of iterations =  3.3

     total cpu time spent up to now is      106.4 secs

     End of self-consistent calculation

     Number of k-points >= 100: set verbosity='high' to print the bands.

     highest occupied level (ev):    15.1644

!    total energy              =    -359.25635517 Ry
     estimated scf accuracy    <          3.4E-09 Ry

     The total energy is the sum of the following terms:
     one-electron contribution =    -157.73718244 Ry
     hartree contribution      =     123.92300066 Ry
     xc contribution           =    -110.72689586 Ry
     ewald contribution        =    -214.71527753 Ry

     convergence has been achieved in  16 iterations

     Forces acting on atoms (cartesian axes, Ry/au):

     atom    1 type  1   force =     0.03322985    0.04065885   -0.27287154
     atom    2 type  1   force =    -1.97783966   -3.85912301   -0.12047883
     atom    3 type  2   force =     1.88849492    3.79171416   -0.07039715
     atom    4 type  2   force =     0.05611490    0.02675000    0.46374752
     The non-local contrib.  to forces
     atom    1 type  1   force =    -0.29159808    0.01061928    0.13398128
     atom    2 type  1   force =    -0.59613129   -0.04805631    0.02338022
     atom    3 type  2   force =    -0.97670829    0.61591967    0.21339590
     atom    4 type  2   force =     0.56854937   -0.52692250   -1.05281573
     The ionic contribution  to forces
     atom    1 type  1   force =     2.09080201    1.05962106  -18.28035500
     atom    2 type  1   force =   -12.57712172  -18.94935219    0.82688333
     atom    3 type  2   force =    11.63756060   16.11643389    1.56809535
     atom    4 type  2   force =    -1.15124089    1.77329724   15.88537632
     The local contribution  to forces
     atom    1 type  1   force =    -1.76611493   -1.02572717   17.83372624
     atom    2 type  1   force =    11.01350235   14.87055009   -0.97858285
     atom    3 type  2   force =    -8.77567316  -12.92288496   -1.84889120
     atom    4 type  2   force =     0.64515372   -1.22508613  -14.37621467
     The core correction contribution to forces
     atom    1 type  1   force =     0.00011960   -0.00386395    0.03981702
     atom    2 type  1   force =     0.18195771    0.26782684    0.00793235
     atom    3 type  2   force =     0.00327471   -0.01776012   -0.00294446
     atom    4 type  2   force =    -0.00631341    0.00540548    0.00727401
     The Hubbard contrib.    to forces
     atom    1 type  1   force =     0.00000000    0.00000000    0.00000000
     atom    2 type  1   force =     0.00000000    0.00000000    0.00000000
     atom    3 type  2   force =     0.00000000    0.00000000    0.00000000
     atom    4 type  2   force =     0.00000000    0.00000000    0.00000000
     The SCF correction term to forces
     atom    1 type  1   force =     0.00002122   -0.00000915   -0.00006330
     atom    2 type  1   force =    -0.00004676   -0.00011022   -0.00011410
     atom    3 type  2   force =     0.00004103   -0.00001311   -0.00007496
     atom    4 type  2   force =    -0.00003392    0.00003713    0.00010539

     Total force =     6.088005     Total SCF correction =     0.000230

     Writing all to output data dir ./ZnO_ANN.save/

     init_run     :      2.52s CPU      2.59s WALL (       1 calls)
     electrons    :    101.13s CPU    103.35s WALL (       1 calls)
     forces       :      0.78s CPU      0.80s WALL (       1 calls)

     Called by init_run:
     wfcinit      :      1.78s CPU      1.83s WALL (       1 calls)
     potinit      :      0.18s CPU      0.19s WALL (       1 calls)
     hinit0       :      0.49s CPU      0.50s WALL (       1 calls)

     Called by electrons:
     c_bands      :     92.59s CPU     94.56s WALL (      16 calls)
     sum_band     :      7.63s CPU      7.85s WALL (      16 calls)
     v_of_rho     :      0.22s CPU      0.24s WALL (      17 calls)
     newd         :      0.69s CPU      0.71s WALL (      17 calls)
     mix_rho      :      0.03s CPU      0.03s WALL (      16 calls)

     Called by c_bands:
     init_us_2    :      0.54s CPU      0.55s WALL (    3808 calls)
     init_us_2:cp :      0.53s CPU      0.54s WALL (    3808 calls)
     cegterg      :     90.67s CPU     92.60s WALL (    1792 calls)

     Called by *egterg:
     cdiaghg      :     14.03s CPU     14.17s WALL (   13877 calls)
     h_psi        :     45.51s CPU     46.90s WALL (   13989 calls)
     s_psi        :      4.74s CPU      4.81s WALL (   13989 calls)
     g_psi        :      0.20s CPU      0.20s WALL (   12085 calls)

     Called by h_psi:
     h_psi:calbec :      7.41s CPU      7.72s WALL (   13989 calls)
     vloc_psi     :     33.22s CPU     34.24s WALL (   13989 calls)
     add_vuspsi   :      4.71s CPU      4.77s WALL (   13989 calls)

     General routines
     calbec       :      9.72s CPU     10.11s WALL (   16229 calls)
     fft          :      0.45s CPU      0.48s WALL (     230 calls)
     ffts         :      0.08s CPU      0.08s WALL (      33 calls)
     fftw         :     33.37s CPU     34.37s WALL (  281876 calls)
     interpolate  :      0.09s CPU      0.09s WALL (      17 calls)

     Parallel routines

     PWSCF        :   1m45.12s CPU   1m47.53s WALL


   This run was terminated on:  12:15:33  23Jun2025            

=------------------------------------------------------------------------------=
   JOB DONE.
=------------------------------------------------------------------------------=
Note: The following floating-point exceptions are signalling: IEEE_INVALID_FLAG
