
     Program PWSCF v.7.2 starts on 23Jun2025 at 13:37:24 

     This program is part of the open-source Quantum ESPRESSO suite
     for quantum simulation of materials; please cite
         "P. Giannozzi et al., J. Phys.:Condens. Matter 21 395502 (2009);
         "P. Giannozzi et al., J. Phys.:Condens. Matter 29 465901 (2017);
         "P. Giannozzi et al., J. Chem. Phys. 152 154105 (2020);
          URL http://www.quantum-espresso.org", 
     in publications or presentations arising from this work. More details at
     http://www.quantum-espresso.org/quote

     Parallel version (MPI), running on     8 processors

     MPI processes distributed on     1 nodes
     91116 MiB available memory on the printing compute node when the environment starts

     Reading input from /home/jvc/QEspresso7.2/ZnO_DataBase/scfs_rnd025.in/scf-5.93-1.78-5.in

     Current dimensions of program PWSCF are:
     Max number of different atomic species (ntypx) = 10
     Max number of k-points (npk) =  40000
     Max angular momentum in pseudopotentials (lmaxx) =  4
     file Zn.upf: wavefunction(s)  3D renormalized

     R & G space division:  proc/nbgrp/npool/nimage =       8
     Subspace diagonalization in iterative solution of the eigenvalue problem:
     a serial algorithm will be used


     Parallelization info
     --------------------
     sticks:   dense  smooth     PW     G-vecs:    dense   smooth      PW
     Min         119      61     18                 5413     1917     324
     Max         120      63     19                 5424     1920     329
     Sum         955     499    151                43333    15341    2613

     Using Slab Decomposition



     bravais-lattice index     =            4
     lattice parameter (alat)  =       5.9317  a.u.
     unit-cell volume          =     320.9622 (a.u.)^3
     number of atoms/cell      =            4
     number of atomic types    =            2
     number of electrons       =        36.00
     number of Kohn-Sham states=           18
     kinetic-energy cutoff     =      50.0000  Ry
     charge density cutoff     =     400.0000  Ry
     scf convergence threshold =      1.0E-08
     mixing beta               =       0.3000
     number of iterations used =            8  plain     mixing
     Exchange-correlation= PBE
                           (   1   4   3   4   0   0   0)

     celldm(1)=   5.931669  celldm(2)=   0.000000  celldm(3)=   1.775794
     celldm(4)=   0.000000  celldm(5)=   0.000000  celldm(6)=   0.000000

     crystal axes: (cart. coord. in units of alat)
               a(1) = (   1.000000   0.000000   0.000000 )  
               a(2) = (  -0.500000   0.866025   0.000000 )  
               a(3) = (   0.000000   0.000000   1.775794 )  

     reciprocal axes: (cart. coord. in units 2 pi/alat)
               b(1) = (  1.000000  0.577350 -0.000000 )  
               b(2) = (  0.000000  1.154701  0.000000 )  
               b(3) = (  0.000000 -0.000000  0.563128 )  


     PseudoPot. # 1 for Zn read from file:
     ./pseudos/Zn.upf
     MD5 check sum: 7f56cabf9682ed8c977c2f7d0c5985c5
     Pseudo is Ultrasoft + core correction, Zval = 12.0
     Generated using &quot;atomic&quot; code by A. Dal Corso  v.6.2.2
     Using radial grid of 1201 points,  6 beta functions with: 
                l(1) =   0
                l(2) =   0
                l(3) =   1
                l(4) =   1
                l(5) =   2
                l(6) =   2
     Q(r) pseudized with 0 coefficients 


     PseudoPot. # 2 for O  read from file:
     ./pseudos/O.upf
     MD5 check sum: 91400c9766925bcf19f520983a725ff0
     Pseudo is Ultrasoft + core correction, Zval =  6.0
     Generated using &quot;atomic&quot; code by A. Dal Corso  v.6.3MaX
     Using radial grid of 1095 points,  4 beta functions with: 
                l(1) =   0
                l(2) =   0
                l(3) =   1
                l(4) =   1
     Q(r) pseudized with 0 coefficients 


     atomic species   valence    mass     pseudopotential
        Zn            12.00    63.38000     Zn( 1.00)
        O              6.00    15.99900     O ( 1.00)

     No symmetry found



   Cartesian axes

     site n.     atom                  positions (alat units)
         1           Zn  tau(   1) = (   0.6380155   0.1049121   0.5191216  )
         2           Zn  tau(   2) = (   0.0941328   0.3968464  -0.0730573  )
         3           O   tau(   3) = (   0.4844321   0.3571895   1.8574088  )
         4           O   tau(   4) = (   0.1046723   0.6338402   1.0340552  )

     number of k points=   112

     Number of k-points >= 100: set verbosity='high' to print them.

     Dense  grid:    43333 G-vectors     FFT dimensions: (  40,  40,  72)

     Smooth grid:    15341 G-vectors     FFT dimensions: (  27,  27,  48)

     Estimated max dynamical RAM per process >      29.98 MB

     Estimated total dynamical RAM >     239.80 MB

     Check: negative core charge=   -0.000002

     Initial potential from superposition of free atoms

     starting charge      35.9925, renormalised to      36.0000
     Starting wfcs are   26 randomized atomic wfcs

     total cpu time spent up to now is        3.9 secs

     Self-consistent Calculation

     iteration #  1     ecut=    50.00 Ry     beta= 0.30
     Davidson diagonalization with overlap
     ethr =  1.00E-02,  avg # of iterations =  2.0

     total cpu time spent up to now is        9.2 secs

     total energy              =    -360.59500727 Ry
     estimated scf accuracy    <       1.15780616 Ry

     iteration #  2     ecut=    50.00 Ry     beta= 0.30
     Davidson diagonalization with overlap
     ethr =  3.22E-03,  avg # of iterations =  2.6

     total cpu time spent up to now is       15.1 secs

     total energy              =    -360.71318211 Ry
     estimated scf accuracy    <       0.17516086 Ry

     iteration #  3     ecut=    50.00 Ry     beta= 0.30
     Davidson diagonalization with overlap
     c_bands:  1 eigenvalues not converged
     c_bands:  1 eigenvalues not converged
     c_bands:  2 eigenvalues not converged
     c_bands:  2 eigenvalues not converged
     ethr =  4.87E-04,  avg # of iterations =  9.3

     total cpu time spent up to now is       26.7 secs

     total energy              =    -360.70748397 Ry
     estimated scf accuracy    <       0.36089712 Ry

     iteration #  4     ecut=    50.00 Ry     beta= 0.30
     Davidson diagonalization with overlap
     ethr =  4.87E-04,  avg # of iterations =  7.8

     total cpu time spent up to now is       37.5 secs

     total energy              =    -360.86526973 Ry
     estimated scf accuracy    <       0.33917317 Ry

     iteration #  5     ecut=    50.00 Ry     beta= 0.30
     Davidson diagonalization with overlap
     ethr =  4.87E-04,  avg # of iterations =  1.9

     total cpu time spent up to now is       42.6 secs

     total energy              =    -360.78374082 Ry
     estimated scf accuracy    <       0.17601369 Ry

     iteration #  6     ecut=    50.00 Ry     beta= 0.30
     Davidson diagonalization with overlap
     ethr =  4.87E-04,  avg # of iterations =  6.9

     total cpu time spent up to now is       50.5 secs

     total energy              =    -360.85897210 Ry
     estimated scf accuracy    <       0.15476415 Ry

     iteration #  7     ecut=    50.00 Ry     beta= 0.30
     Davidson diagonalization with overlap
     ethr =  4.30E-04,  avg # of iterations =  1.0

     total cpu time spent up to now is       55.0 secs

     total energy              =    -360.83158506 Ry
     estimated scf accuracy    <       0.10712732 Ry

     iteration #  8     ecut=    50.00 Ry     beta= 0.30
     Davidson diagonalization with overlap
     ethr =  2.98E-04,  avg # of iterations =  5.2

     total cpu time spent up to now is       61.4 secs

     total energy              =    -360.86009748 Ry
     estimated scf accuracy    <       0.00297007 Ry

     iteration #  9     ecut=    50.00 Ry     beta= 0.30
     Davidson diagonalization with overlap
     c_bands:  1 eigenvalues not converged
     ethr =  8.25E-06,  avg # of iterations =  8.1

     total cpu time spent up to now is       70.2 secs

     total energy              =    -360.86493265 Ry
     estimated scf accuracy    <       0.02195891 Ry

     iteration # 10     ecut=    50.00 Ry     beta= 0.30
     Davidson diagonalization with overlap
     ethr =  8.25E-06,  avg # of iterations =  1.2

     total cpu time spent up to now is       74.8 secs

     total energy              =    -360.86321917 Ry
     estimated scf accuracy    <       0.02351724 Ry

     iteration # 11     ecut=    50.00 Ry     beta= 0.30
     Davidson diagonalization with overlap
     ethr =  8.25E-06,  avg # of iterations =  1.0

     total cpu time spent up to now is       79.3 secs

     total energy              =    -360.85433259 Ry
     estimated scf accuracy    <       0.02034746 Ry

     iteration # 12     ecut=    50.00 Ry     beta= 0.30
     Davidson diagonalization with overlap
     c_bands:  1 eigenvalues not converged
     c_bands:  1 eigenvalues not converged
     c_bands:  1 eigenvalues not converged
     c_bands:  2 eigenvalues not converged
     c_bands:  1 eigenvalues not converged
     c_bands:  1 eigenvalues not converged
     ethr =  8.25E-06,  avg # of iterations = 10.9

     total cpu time spent up to now is       90.5 secs

     total energy              =    -360.86080944 Ry
     estimated scf accuracy    <       0.01037107 Ry

     iteration # 13     ecut=    50.00 Ry     beta= 0.30
     Davidson diagonalization with overlap
     ethr =  8.25E-06,  avg # of iterations =  1.2

     total cpu time spent up to now is       95.1 secs

     total energy              =    -360.85730179 Ry
     estimated scf accuracy    <       0.00799556 Ry

     iteration # 14     ecut=    50.00 Ry     beta= 0.30
     Davidson diagonalization with overlap
     c_bands:  1 eigenvalues not converged
     c_bands:  1 eigenvalues not converged
     ethr =  8.25E-06,  avg # of iterations =  8.2

     total cpu time spent up to now is      103.7 secs

     total energy              =    -360.86017190 Ry
     estimated scf accuracy    <       0.00660928 Ry

     iteration # 15     ecut=    50.00 Ry     beta= 0.30
     Davidson diagonalization with overlap
     ethr =  8.25E-06,  avg # of iterations =  2.2

     total cpu time spent up to now is      108.7 secs

     total energy              =    -360.85881559 Ry
     estimated scf accuracy    <       0.00375421 Ry

     iteration # 16     ecut=    50.00 Ry     beta= 0.30
     Davidson diagonalization with overlap
     c_bands:  2 eigenvalues not converged
     ethr =  8.25E-06,  avg # of iterations =  7.8

     total cpu time spent up to now is      116.5 secs

     total energy              =    -360.86098048 Ry
     estimated scf accuracy    <       0.00411901 Ry

     iteration # 17     ecut=    50.00 Ry     beta= 0.30
     Davidson diagonalization with overlap
     ethr =  8.25E-06,  avg # of iterations =  1.0

     total cpu time spent up to now is      121.0 secs

     total energy              =    -360.86018807 Ry
     estimated scf accuracy    <       0.00398774 Ry

     iteration # 18     ecut=    50.00 Ry     beta= 0.30
     Davidson diagonalization with overlap
     ethr =  8.25E-06,  avg # of iterations =  2.2

     total cpu time spent up to now is      126.0 secs

     total energy              =    -360.86030663 Ry
     estimated scf accuracy    <       0.00171076 Ry

     iteration # 19     ecut=    50.00 Ry     beta= 0.30
     Davidson diagonalization with overlap
     ethr =  4.75E-06,  avg # of iterations =  1.8

     total cpu time spent up to now is      130.8 secs

     total energy              =    -360.86025098 Ry
     estimated scf accuracy    <       0.00137740 Ry

     iteration # 20     ecut=    50.00 Ry     beta= 0.30
     Davidson diagonalization with overlap
     ethr =  3.83E-06,  avg # of iterations =  2.1

     total cpu time spent up to now is      135.8 secs

     total energy              =    -360.86027498 Ry
     estimated scf accuracy    <       0.00093360 Ry

     iteration # 21     ecut=    50.00 Ry     beta= 0.30
     Davidson diagonalization with overlap
     ethr =  2.59E-06,  avg # of iterations =  3.7

     total cpu time spent up to now is      141.2 secs

     total energy              =    -360.86031653 Ry
     estimated scf accuracy    <       0.00029311 Ry

     iteration # 22     ecut=    50.00 Ry     beta= 0.30
     Davidson diagonalization with overlap
     ethr =  8.14E-07,  avg # of iterations =  7.2

     total cpu time spent up to now is      148.2 secs

     total energy              =    -360.86044306 Ry
     estimated scf accuracy    <       0.00007110 Ry

     iteration # 23     ecut=    50.00 Ry     beta= 0.30
     Davidson diagonalization with overlap
     ethr =  1.98E-07,  avg # of iterations =  2.3

     total cpu time spent up to now is      153.2 secs

     total energy              =    -360.86045389 Ry
     estimated scf accuracy    <       0.00005408 Ry

     iteration # 24     ecut=    50.00 Ry     beta= 0.30
     Davidson diagonalization with overlap
     ethr =  1.50E-07,  avg # of iterations =  1.2

     total cpu time spent up to now is      157.7 secs

     total energy              =    -360.86043373 Ry
     estimated scf accuracy    <       0.00006038 Ry

     iteration # 25     ecut=    50.00 Ry     beta= 0.30
     Davidson diagonalization with overlap
     ethr =  1.50E-07,  avg # of iterations =  6.1

     total cpu time spent up to now is      164.1 secs

     total energy              =    -360.86045351 Ry
     estimated scf accuracy    <       0.00001151 Ry

     iteration # 26     ecut=    50.00 Ry     beta= 0.30
     Davidson diagonalization with overlap
     c_bands:  2 eigenvalues not converged
     c_bands:  1 eigenvalues not converged
     ethr =  3.20E-08,  avg # of iterations =  6.6

     total cpu time spent up to now is      171.2 secs

     total energy              =    -360.86044957 Ry
     estimated scf accuracy    <       0.00005599 Ry

     iteration # 27     ecut=    50.00 Ry     beta= 0.30
     Davidson diagonalization with overlap
     ethr =  3.20E-08,  avg # of iterations =  5.2

     total cpu time spent up to now is      177.1 secs

     total energy              =    -360.86044030 Ry
     estimated scf accuracy    <       0.00002570 Ry

     iteration # 28     ecut=    50.00 Ry     beta= 0.30
     Davidson diagonalization with overlap
     c_bands:  2 eigenvalues not converged
     c_bands:  1 eigenvalues not converged
     c_bands:  1 eigenvalues not converged
     c_bands:  2 eigenvalues not converged
     ethr =  3.20E-08,  avg # of iterations = 10.6

     total cpu time spent up to now is      187.7 secs

     total energy              =    -360.86046965 Ry
     estimated scf accuracy    <       0.00011973 Ry

     iteration # 29     ecut=    50.00 Ry     beta= 0.30
     Davidson diagonalization with overlap
     ethr =  3.20E-08,  avg # of iterations =  1.5

     total cpu time spent up to now is      192.3 secs

     total energy              =    -360.86043394 Ry
     estimated scf accuracy    <       0.00012867 Ry

     iteration # 30     ecut=    50.00 Ry     beta= 0.30
     Davidson diagonalization with overlap
     c_bands:  2 eigenvalues not converged
     c_bands:  2 eigenvalues not converged
     c_bands:  1 eigenvalues not converged
     c_bands:  1 eigenvalues not converged
     c_bands:  1 eigenvalues not converged
     ethr =  3.20E-08,  avg # of iterations =  8.8

     total cpu time spent up to now is      201.3 secs

     total energy              =    -360.86044767 Ry
     estimated scf accuracy    <       0.00000706 Ry

     iteration # 31     ecut=    50.00 Ry     beta= 0.30
     Davidson diagonalization with overlap
     ethr =  1.96E-08,  avg # of iterations =  2.1

     total cpu time spent up to now is      206.1 secs

     total energy              =    -360.86044832 Ry
     estimated scf accuracy    <       0.00000366 Ry

     iteration # 32     ecut=    50.00 Ry     beta= 0.30
     Davidson diagonalization with overlap
     c_bands:  1 eigenvalues not converged
     c_bands:  1 eigenvalues not converged
     c_bands:  2 eigenvalues not converged
     c_bands:  1 eigenvalues not converged
     c_bands:  1 eigenvalues not converged
     ethr =  1.02E-08,  avg # of iterations = 11.4

     total cpu time spent up to now is      217.8 secs

     total energy              =    -360.86043140 Ry
     estimated scf accuracy    <       0.00005676 Ry

     iteration # 33     ecut=    50.00 Ry     beta= 0.30
     Davidson diagonalization with overlap
     c_bands:  2 eigenvalues not converged
     c_bands:  1 eigenvalues not converged
     c_bands:  2 eigenvalues not converged
     c_bands:  2 eigenvalues not converged
     c_bands:  2 eigenvalues not converged
     c_bands:  2 eigenvalues not converged
     c_bands:  2 eigenvalues not converged
     c_bands:  2 eigenvalues not converged
     c_bands:  2 eigenvalues not converged
     c_bands:  1 eigenvalues not converged
     ethr =  1.02E-08,  avg # of iterations = 13.6

     total cpu time spent up to now is      232.1 secs

     total energy              =    -360.86044872 Ry
     estimated scf accuracy    <       0.00003150 Ry

     iteration # 34     ecut=    50.00 Ry     beta= 0.30
     Davidson diagonalization with overlap
     c_bands:  2 eigenvalues not converged
     ethr =  1.02E-08,  avg # of iterations =  6.0

     total cpu time spent up to now is      238.6 secs

     total energy              =    -360.86044674 Ry
     estimated scf accuracy    <       0.00001476 Ry

     iteration # 35     ecut=    50.00 Ry     beta= 0.30
     Davidson diagonalization with overlap
     ethr =  1.02E-08,  avg # of iterations =  6.0

     total cpu time spent up to now is      245.6 secs

     total energy              =    -360.86044802 Ry
     estimated scf accuracy    <       0.00000140 Ry

     iteration # 36     ecut=    50.00 Ry     beta= 0.30
     Davidson diagonalization with overlap
     ethr =  3.88E-09,  avg # of iterations =  3.2

     total cpu time spent up to now is      251.1 secs

     total energy              =    -360.86044798 Ry
     estimated scf accuracy    <       0.00000066 Ry

     iteration # 37     ecut=    50.00 Ry     beta= 0.30
     Davidson diagonalization with overlap
     c_bands:  1 eigenvalues not converged
     c_bands:  1 eigenvalues not converged
     ethr =  1.84E-09,  avg # of iterations =  7.4

     total cpu time spent up to now is      258.7 secs

     total energy              =    -360.86044811 Ry
     estimated scf accuracy    <       0.00000114 Ry

     iteration # 38     ecut=    50.00 Ry     beta= 0.30
     Davidson diagonalization with overlap
     ethr =  1.84E-09,  avg # of iterations =  4.5

     total cpu time spent up to now is      264.4 secs

     total energy              =    -360.86044825 Ry
     estimated scf accuracy    <       0.00000027 Ry

     iteration # 39     ecut=    50.00 Ry     beta= 0.30
     Davidson diagonalization with overlap
     c_bands:  2 eigenvalues not converged
     ethr =  7.56E-10,  avg # of iterations =  5.6

     total cpu time spent up to now is      270.6 secs

     total energy              =    -360.86044830 Ry
     estimated scf accuracy    <       0.00000028 Ry

     iteration # 40     ecut=    50.00 Ry     beta= 0.30
     Davidson diagonalization with overlap
     ethr =  7.56E-10,  avg # of iterations =  1.1

     total cpu time spent up to now is      275.0 secs

     total energy              =    -360.86044832 Ry
     estimated scf accuracy    <       0.00000027 Ry

     iteration # 41     ecut=    50.00 Ry     beta= 0.30
     Davidson diagonalization with overlap
     ethr =  7.54E-10,  avg # of iterations =  1.1

     total cpu time spent up to now is      279.3 secs

     total energy              =    -360.86044830 Ry
     estimated scf accuracy    <       0.00000030 Ry

     iteration # 42     ecut=    50.00 Ry     beta= 0.30
     Davidson diagonalization with overlap
     ethr =  7.54E-10,  avg # of iterations =  1.0

     total cpu time spent up to now is      283.7 secs

     total energy              =    -360.86044815 Ry
     estimated scf accuracy    <       0.00000027 Ry

     iteration # 43     ecut=    50.00 Ry     beta= 0.30
     Davidson diagonalization with overlap
     ethr =  7.39E-10,  avg # of iterations =  4.4

     total cpu time spent up to now is      290.9 secs

     total energy              =    -360.86044819 Ry
     estimated scf accuracy    <       0.00000007 Ry

     iteration # 44     ecut=    50.00 Ry     beta= 0.30
     Davidson diagonalization with overlap
     c_bands:  1 eigenvalues not converged
     ethr =  1.98E-10,  avg # of iterations =  5.0

     total cpu time spent up to now is      298.8 secs

     total energy              =    -360.86044821 Ry
     estimated scf accuracy    <       0.00000002 Ry

     iteration # 45     ecut=    50.00 Ry     beta= 0.30
     Davidson diagonalization with overlap
     ethr =  5.82E-11,  avg # of iterations =  5.6

     total cpu time spent up to now is      306.2 secs

     total energy              =    -360.86044821 Ry
     estimated scf accuracy    <       0.00000001 Ry

     iteration # 46     ecut=    50.00 Ry     beta= 0.30
     Davidson diagonalization with overlap
     ethr =  3.70E-11,  avg # of iterations =  2.0

     total cpu time spent up to now is      311.0 secs

     End of self-consistent calculation

     Number of k-points >= 100: set verbosity='high' to print the bands.

     highest occupied level (ev):     8.9008

!    total energy              =    -360.86044821 Ry
     estimated scf accuracy    <          7.4E-09 Ry

     The total energy is the sum of the following terms:
     one-electron contribution =    -188.20921414 Ry
     hartree contribution      =     133.72194866 Ry
     xc contribution           =    -109.74401488 Ry
     ewald contribution        =    -196.62916785 Ry

     convergence has been achieved in  46 iterations

     Forces acting on atoms (cartesian axes, Ry/au):

     atom    1 type  1   force =     0.04703945   -0.10645891    0.39780617
     atom    2 type  1   force =    -1.36359952    0.15420319   -0.69863357
     atom    3 type  2   force =     1.31857212   -0.04470581    0.35690391
     atom    4 type  2   force =    -0.00201205   -0.00303847   -0.05607651
     The non-local contrib.  to forces
     atom    1 type  1   force =     0.22776734   -0.00814085   -0.38199810
     atom    2 type  1   force =    -0.88167180    0.05300711   -0.06453440
     atom    3 type  2   force =    -0.12489574   -0.29282431    0.28556975
     atom    4 type  2   force =    -0.02124692    0.25209804   -0.44786415
     The ionic contribution  to forces
     atom    1 type  1   force =     1.99091558   -1.41522461   21.11640312
     atom    2 type  1   force =   -11.48442061    0.68008004  -21.63110852
     atom    3 type  2   force =     9.70044641    1.97147311   -2.85588167
     atom    4 type  2   force =    -0.20694138   -1.23632854    3.37058707
     The local contribution  to forces
     atom    1 type  1   force =    -2.14653670    1.30127672  -20.31012245
     atom    2 type  1   force =    10.84230034   -0.56278224   20.92266189
     atom    3 type  2   force =    -8.25226903   -1.72584903    2.93082881
     atom    4 type  2   force =     0.22590792    0.98348584   -2.98297518
     The core correction contribution to forces
     atom    1 type  1   force =    -0.02510073    0.01559088   -0.02623838
     atom    2 type  1   force =     0.16013740   -0.01608243    0.07414147
     atom    3 type  2   force =    -0.00469203    0.00249548   -0.00364034
     atom    4 type  2   force =     0.00027762   -0.00229557    0.00420585
     The Hubbard contrib.    to forces
     atom    1 type  1   force =     0.00000000    0.00000000    0.00000000
     atom    2 type  1   force =     0.00000000    0.00000000    0.00000000
     atom    3 type  2   force =     0.00000000    0.00000000    0.00000000
     atom    4 type  2   force =     0.00000000    0.00000000    0.00000000
     The SCF correction term to forces
     atom    1 type  1   force =     0.00000457    0.00003884   -0.00023405
     atom    2 type  1   force =     0.00006575   -0.00001941    0.00020996
     atom    3 type  2   force =    -0.00000688   -0.00000118    0.00003131
     atom    4 type  2   force =     0.00000132    0.00000164   -0.00002613

     Total force =     2.101008     Total SCF correction =     0.000327

     Writing all to output data dir ./ZnO_ANN.save/

     init_run     :      3.40s CPU      3.48s WALL (       1 calls)
     electrons    :    301.53s CPU    307.02s WALL (       1 calls)
     forces       :      0.98s CPU      0.99s WALL (       1 calls)

     Called by init_run:
     wfcinit      :      2.54s CPU      2.59s WALL (       1 calls)
     potinit      :      0.24s CPU      0.25s WALL (       1 calls)
     hinit0       :      0.54s CPU      0.55s WALL (       1 calls)

     Called by electrons:
     c_bands      :    265.62s CPU    270.28s WALL (      46 calls)
     sum_band     :     32.49s CPU     33.23s WALL (      46 calls)
     v_of_rho     :      0.71s CPU      0.77s WALL (      47 calls)
     newd         :      2.57s CPU      2.60s WALL (      47 calls)
     mix_rho      :      0.13s CPU      0.14s WALL (      46 calls)

     Called by c_bands:
     init_us_2    :      2.05s CPU      2.08s WALL (   10528 calls)
     init_us_2:cp :      2.01s CPU      2.05s WALL (   10528 calls)
     cegterg      :    258.47s CPU    263.02s WALL (    5152 calls)

     Called by *egterg:
     cdiaghg      :     29.87s CPU     30.10s WALL (   29507 calls)
     h_psi        :    151.05s CPU    154.44s WALL (   29619 calls)
     s_psi        :     15.61s CPU     15.77s WALL (   29619 calls)
     g_psi        :      0.47s CPU      0.48s WALL (   24355 calls)

     Called by h_psi:
     h_psi:calbec :     20.44s CPU     21.10s WALL (   29619 calls)
     vloc_psi     :    114.52s CPU    117.09s WALL (   29619 calls)
     add_vuspsi   :     15.62s CPU     15.78s WALL (   29619 calls)

     General routines
     calbec       :     28.05s CPU     28.93s WALL (   35219 calls)
     fft          :      1.00s CPU      1.08s WALL (     620 calls)
     ffts         :      0.13s CPU      0.13s WALL (      93 calls)
     fftw         :    121.79s CPU    124.52s WALL (  617384 calls)
     interpolate  :      0.15s CPU      0.16s WALL (      47 calls)

     Parallel routines

     PWSCF        :   5m 6.62s CPU   5m12.35s WALL


   This run was terminated on:  13:42:36  23Jun2025            

=------------------------------------------------------------------------------=
   JOB DONE.
=------------------------------------------------------------------------------=
Note: The following floating-point exceptions are signalling: IEEE_INVALID_FLAG
