
     Program PWSCF v.7.2 starts on 23Jun2025 at 12:16: 2 

     This program is part of the open-source Quantum ESPRESSO suite
     for quantum simulation of materials; please cite
         "P. Giannozzi et al., J. Phys.:Condens. Matter 21 395502 (2009);
         "P. Giannozzi et al., J. Phys.:Condens. Matter 29 465901 (2017);
         "P. Giannozzi et al., J. Chem. Phys. 152 154105 (2020);
          URL http://www.quantum-espresso.org", 
     in publications or presentations arising from this work. More details at
     http://www.quantum-espresso.org/quote

     Parallel version (MPI), running on     8 processors

     MPI processes distributed on     1 nodes
     91459 MiB available memory on the printing compute node when the environment starts

     Reading input from /home/jvc/QEspresso7.2/ZnO_DataBase/scfs_rnd025.in/scf-5.68-1.58-1.in

     Current dimensions of program PWSCF are:
     Max number of different atomic species (ntypx) = 10
     Max number of k-points (npk) =  40000
     Max angular momentum in pseudopotentials (lmaxx) =  4
     file Zn.upf: wavefunction(s)  3D renormalized

     R & G space division:  proc/nbgrp/npool/nimage =       8
     Subspace diagonalization in iterative solution of the eigenvalue problem:
     a serial algorithm will be used


     Parallelization info
     --------------------
     sticks:   dense  smooth     PW     G-vecs:    dense   smooth      PW
     Min         111      54     16                 4237     1496     257
     Max         112      55     18                 4242     1503     260
     Sum         889     439    139                33909    11999    2069

     Using Slab Decomposition



     bravais-lattice index     =            4
     lattice parameter (alat)  =       5.6845  a.u.
     unit-cell volume          =     251.6733 (a.u.)^3
     number of atoms/cell      =            4
     number of atomic types    =            2
     number of electrons       =        36.00
     number of Kohn-Sham states=           18
     kinetic-energy cutoff     =      50.0000  Ry
     charge density cutoff     =     400.0000  Ry
     scf convergence threshold =      1.0E-08
     mixing beta               =       0.3000
     number of iterations used =            8  plain     mixing
     Exchange-correlation= PBE
                           (   1   4   3   4   0   0   0)

     celldm(1)=   5.684516  celldm(2)=   0.000000  celldm(3)=   1.582071
     celldm(4)=   0.000000  celldm(5)=   0.000000  celldm(6)=   0.000000

     crystal axes: (cart. coord. in units of alat)
               a(1) = (   1.000000   0.000000   0.000000 )  
               a(2) = (  -0.500000   0.866025   0.000000 )  
               a(3) = (   0.000000   0.000000   1.582071 )  

     reciprocal axes: (cart. coord. in units 2 pi/alat)
               b(1) = (  1.000000  0.577350 -0.000000 )  
               b(2) = (  0.000000  1.154701  0.000000 )  
               b(3) = (  0.000000 -0.000000  0.632083 )  


     PseudoPot. # 1 for Zn read from file:
     ./pseudos/Zn.upf
     MD5 check sum: 7f56cabf9682ed8c977c2f7d0c5985c5
     Pseudo is Ultrasoft + core correction, Zval = 12.0
     Generated using &quot;atomic&quot; code by A. Dal Corso  v.6.2.2
     Using radial grid of 1201 points,  6 beta functions with: 
                l(1) =   0
                l(2) =   0
                l(3) =   1
                l(4) =   1
                l(5) =   2
                l(6) =   2
     Q(r) pseudized with 0 coefficients 


     PseudoPot. # 2 for O  read from file:
     ./pseudos/O.upf
     MD5 check sum: 91400c9766925bcf19f520983a725ff0
     Pseudo is Ultrasoft + core correction, Zval =  6.0
     Generated using &quot;atomic&quot; code by A. Dal Corso  v.6.3MaX
     Using radial grid of 1095 points,  4 beta functions with: 
                l(1) =   0
                l(2) =   0
                l(3) =   1
                l(4) =   1
     Q(r) pseudized with 0 coefficients 


     atomic species   valence    mass     pseudopotential
        Zn            12.00    63.38000     Zn( 1.00)
        O              6.00    15.99900     O ( 1.00)

     No symmetry found



   Cartesian axes

     site n.     atom                  positions (alat units)
         1           Zn  tau(   1) = (   0.5746335   0.2975692   0.9043435  )
         2           Zn  tau(   2) = (   0.0198597   0.6004058   0.0363842  )
         3           O   tau(   3) = (   0.5787005   0.3446311   1.0119991  )
         4           O   tau(   4) = (  -0.1906100   0.7585026   0.8256097  )

     number of k points=   112

     Number of k-points >= 100: set verbosity='high' to print them.

     Dense  grid:    33909 G-vectors     FFT dimensions: (  40,  40,  60)

     Smooth grid:    11999 G-vectors     FFT dimensions: (  25,  25,  45)

     Estimated max dynamical RAM per process >      24.24 MB

     Estimated total dynamical RAM >     193.94 MB

     Check: negative core charge=   -0.000001

     Initial potential from superposition of free atoms

     starting charge      35.9925, renormalised to      36.0000
     Starting wfcs are   26 randomized atomic wfcs

     total cpu time spent up to now is        3.1 secs

     Self-consistent Calculation

     iteration #  1     ecut=    50.00 Ry     beta= 0.30
     Davidson diagonalization with overlap
     ethr =  1.00E-02,  avg # of iterations =  6.1

     total cpu time spent up to now is       10.9 secs

     total energy              =    -283.70353466 Ry
     estimated scf accuracy    <       3.21584300 Ry

     iteration #  2     ecut=    50.00 Ry     beta= 0.30
     Davidson diagonalization with overlap
     ethr =  8.93E-03,  avg # of iterations =  1.9

     total cpu time spent up to now is       14.9 secs

     total energy              =    -283.25007209 Ry
     estimated scf accuracy    <       0.94479375 Ry

     iteration #  3     ecut=    50.00 Ry     beta= 0.30
     Davidson diagonalization with overlap
     ethr =  2.62E-03,  avg # of iterations =  4.4

     total cpu time spent up to now is       20.9 secs

     total energy              =    -283.58369512 Ry
     estimated scf accuracy    <       0.23916973 Ry

     iteration #  4     ecut=    50.00 Ry     beta= 0.30
     Davidson diagonalization with overlap
     ethr =  6.64E-04,  avg # of iterations =  3.3

     total cpu time spent up to now is       25.4 secs

     total energy              =    -283.55220587 Ry
     estimated scf accuracy    <       0.14150907 Ry

     iteration #  5     ecut=    50.00 Ry     beta= 0.30
     Davidson diagonalization with overlap
     ethr =  3.93E-04,  avg # of iterations =  5.1

     total cpu time spent up to now is       30.5 secs

     total energy              =    -283.57765948 Ry
     estimated scf accuracy    <       0.01751251 Ry

     iteration #  6     ecut=    50.00 Ry     beta= 0.30
     Davidson diagonalization with overlap
     ethr =  4.86E-05,  avg # of iterations =  7.1

     total cpu time spent up to now is       37.3 secs

     total energy              =    -283.57551666 Ry
     estimated scf accuracy    <       0.02925537 Ry

     iteration #  7     ecut=    50.00 Ry     beta= 0.30
     Davidson diagonalization with overlap
     ethr =  4.86E-05,  avg # of iterations =  5.7

     total cpu time spent up to now is       43.5 secs

     total energy              =    -283.58493943 Ry
     estimated scf accuracy    <       0.01090136 Ry

     iteration #  8     ecut=    50.00 Ry     beta= 0.30
     Davidson diagonalization with overlap
     ethr =  3.03E-05,  avg # of iterations =  7.0

     total cpu time spent up to now is       49.9 secs

     total energy              =    -283.57894193 Ry
     estimated scf accuracy    <       0.03002668 Ry

     iteration #  9     ecut=    50.00 Ry     beta= 0.30
     Davidson diagonalization with overlap
     ethr =  3.03E-05,  avg # of iterations =  5.3

     total cpu time spent up to now is       55.5 secs

     total energy              =    -283.58059523 Ry
     estimated scf accuracy    <       0.00366834 Ry

     iteration # 10     ecut=    50.00 Ry     beta= 0.30
     Davidson diagonalization with overlap
     ethr =  1.02E-05,  avg # of iterations =  6.1

     total cpu time spent up to now is       61.3 secs

     total energy              =    -283.58186754 Ry
     estimated scf accuracy    <       0.00013131 Ry

     iteration # 11     ecut=    50.00 Ry     beta= 0.30
     Davidson diagonalization with overlap
     ethr =  3.65E-07,  avg # of iterations =  8.0

     total cpu time spent up to now is       68.3 secs

     total energy              =    -283.58196482 Ry
     estimated scf accuracy    <       0.00005900 Ry

     iteration # 12     ecut=    50.00 Ry     beta= 0.30
     Davidson diagonalization with overlap
     ethr =  1.64E-07,  avg # of iterations =  2.2

     total cpu time spent up to now is       72.2 secs

     total energy              =    -283.58195105 Ry
     estimated scf accuracy    <       0.00004099 Ry

     iteration # 13     ecut=    50.00 Ry     beta= 0.30
     Davidson diagonalization with overlap
     ethr =  1.14E-07,  avg # of iterations =  5.3

     total cpu time spent up to now is       77.2 secs

     total energy              =    -283.58195844 Ry
     estimated scf accuracy    <       0.00000289 Ry

     iteration # 14     ecut=    50.00 Ry     beta= 0.30
     Davidson diagonalization with overlap
     ethr =  8.03E-09,  avg # of iterations =  7.3

     total cpu time spent up to now is       84.4 secs

     total energy              =    -283.58196091 Ry
     estimated scf accuracy    <       0.00000126 Ry

     iteration # 15     ecut=    50.00 Ry     beta= 0.30
     Davidson diagonalization with overlap
     ethr =  3.51E-09,  avg # of iterations =  4.0

     total cpu time spent up to now is       88.8 secs

     total energy              =    -283.58196064 Ry
     estimated scf accuracy    <       0.00000092 Ry

     iteration # 16     ecut=    50.00 Ry     beta= 0.30
     Davidson diagonalization with overlap
     ethr =  2.54E-09,  avg # of iterations =  4.4

     total cpu time spent up to now is       93.5 secs

     total energy              =    -283.58196073 Ry
     estimated scf accuracy    <       0.00000012 Ry

     iteration # 17     ecut=    50.00 Ry     beta= 0.30
     Davidson diagonalization with overlap
     ethr =  3.41E-10,  avg # of iterations =  6.7

     total cpu time spent up to now is      100.2 secs

     total energy              =    -283.58196081 Ry
     estimated scf accuracy    <       0.00000001 Ry

     iteration # 18     ecut=    50.00 Ry     beta= 0.30
     Davidson diagonalization with overlap
     ethr =  3.67E-11,  avg # of iterations =  7.0

     total cpu time spent up to now is      105.6 secs

     End of self-consistent calculation

     Number of k-points >= 100: set verbosity='high' to print the bands.

     highest occupied level (ev):    15.6469

!    total energy              =    -283.58196081 Ry
     estimated scf accuracy    <          4.5E-09 Ry

     The total energy is the sum of the following terms:
     one-electron contribution =    -269.21573067 Ry
     hartree contribution      =     169.10002799 Ry
     xc contribution           =    -116.48958759 Ry
     ewald contribution        =     -66.97667054 Ry

     convergence has been achieved in  18 iterations

     Forces acting on atoms (cartesian axes, Ry/au):

     atom    1 type  1   force =    -8.49266516  -99.62363463 -228.04732285
     atom    2 type  1   force =     0.01630927   -0.00096818    0.12466628
     atom    3 type  2   force =     8.57442931   99.65279827  228.34697342
     atom    4 type  2   force =    -0.09807342   -0.02819545   -0.42431685
     The non-local contrib.  to forces
     atom    1 type  1   force =     1.36504080   16.67448615   38.06926925
     atom    2 type  1   force =    -0.22589777    0.08553599   -0.25568109
     atom    3 type  2   force =    -0.06497879   -1.16366368   -2.93698406
     atom    4 type  2   force =     0.12720996    0.14982032    0.04179310
     The ionic contribution  to forces
     atom    1 type  1   force =    -9.46210306 -126.39163535 -296.10945943
     atom    2 type  1   force =     1.12085578   -0.29620696   12.11130869
     atom    3 type  2   force =    10.18329888  126.60166467  295.18273576
     atom    4 type  2   force =    -1.84205160    0.08617764  -11.18458501
     The local contribution  to forces
     atom    1 type  1   force =    -0.45543336    9.25262160   28.01821934
     atom    2 type  1   force =    -0.88254707    0.21148830  -11.73292767
     atom    3 type  2   force =    -1.52429649  -25.56540004  -63.39724513
     atom    4 type  2   force =     1.61716873   -0.26233596   10.71422840
     The core correction contribution to forces
     atom    1 type  1   force =     0.05980273    0.84084999    1.97458926
     atom    2 type  1   force =     0.00390256   -0.00181665    0.00195220
     atom    3 type  2   force =    -0.01959954   -0.21982379   -0.50168518
     atom    4 type  2   force =    -0.00037913   -0.00183915    0.00417469
     The Hubbard contrib.    to forces
     atom    1 type  1   force =     0.00000000    0.00000000    0.00000000
     atom    2 type  1   force =     0.00000000    0.00000000    0.00000000
     atom    3 type  2   force =     0.00000000    0.00000000    0.00000000
     atom    4 type  2   force =     0.00000000    0.00000000    0.00000000
     The SCF correction term to forces
     atom    1 type  1   force =     0.00003255    0.00002589   -0.00002109
     atom    2 type  1   force =     0.00000057    0.00001406   -0.00006567
     atom    3 type  2   force =     0.00001005    0.00000402    0.00007221
     atom    4 type  2   force =    -0.00001658   -0.00003538   -0.00000785

     Total force =   352.348298     Total SCF correction =     0.000117

     Writing all to output data dir ./ZnO_ANN.save/

     init_run     :      2.62s CPU      2.69s WALL (       1 calls)
     electrons    :    100.24s CPU    102.43s WALL (       1 calls)
     forces       :      0.86s CPU      0.88s WALL (       1 calls)

     Called by init_run:
     wfcinit      :      1.90s CPU      1.94s WALL (       1 calls)
     potinit      :      0.17s CPU      0.17s WALL (       1 calls)
     hinit0       :      0.49s CPU      0.50s WALL (       1 calls)

     Called by electrons:
     c_bands      :     89.71s CPU     91.59s WALL (      18 calls)
     sum_band     :      9.45s CPU      9.73s WALL (      18 calls)
     v_of_rho     :      0.26s CPU      0.27s WALL (      19 calls)
     newd         :      0.81s CPU      0.83s WALL (      19 calls)
     mix_rho      :      0.04s CPU      0.04s WALL (      18 calls)

     Called by c_bands:
     init_us_2    :      0.70s CPU      0.71s WALL (    4256 calls)
     init_us_2:cp :      0.69s CPU      0.70s WALL (    4256 calls)
     cegterg      :     87.45s CPU     89.29s WALL (    2016 calls)

     Called by *egterg:
     cdiaghg      :     13.48s CPU     13.62s WALL (   12868 calls)
     h_psi        :     47.83s CPU     49.18s WALL (   12980 calls)
     s_psi        :      5.76s CPU      5.82s WALL (   12980 calls)
     g_psi        :      0.17s CPU      0.18s WALL (   10852 calls)

     Called by h_psi:
     h_psi:calbec :      6.97s CPU      7.26s WALL (   12980 calls)
     vloc_psi     :     34.86s CPU     35.85s WALL (   12980 calls)
     add_vuspsi   :      5.81s CPU      5.88s WALL (   12980 calls)

     General routines
     calbec       :      9.58s CPU      9.96s WALL (   15444 calls)
     fft          :      0.46s CPU      0.48s WALL (     256 calls)
     ffts         :      0.05s CPU      0.05s WALL (      37 calls)
     fftw         :     35.54s CPU     36.56s WALL (  261536 calls)
     interpolate  :      0.06s CPU      0.06s WALL (      19 calls)

     Parallel routines

     PWSCF        :   1m44.43s CPU   1m46.85s WALL


   This run was terminated on:  12:17:49  23Jun2025            

=------------------------------------------------------------------------------=
   JOB DONE.
=------------------------------------------------------------------------------=
Note: The following floating-point exceptions are signalling: IEEE_INVALID_FLAG
