
     Program PWSCF v.7.2 starts on 23Jun2025 at 11:55:35 

     This program is part of the open-source Quantum ESPRESSO suite
     for quantum simulation of materials; please cite
         "P. Giannozzi et al., J. Phys.:Condens. Matter 21 395502 (2009);
         "P. Giannozzi et al., J. Phys.:Condens. Matter 29 465901 (2017);
         "P. Giannozzi et al., J. Chem. Phys. 152 154105 (2020);
          URL http://www.quantum-espresso.org", 
     in publications or presentations arising from this work. More details at
     http://www.quantum-espresso.org/quote

     Parallel version (MPI), running on     8 processors

     MPI processes distributed on     1 nodes
     91452 MiB available memory on the printing compute node when the environment starts

     Reading input from /home/jvc/QEspresso7.2/ZnO_DataBase/scfs_rnd025.in/scf-5.56-1.61-1.in

     Current dimensions of program PWSCF are:
     Max number of different atomic species (ntypx) = 10
     Max number of k-points (npk) =  40000
     Max angular momentum in pseudopotentials (lmaxx) =  4
     file Zn.upf: wavefunction(s)  3D renormalized

     R & G space division:  proc/nbgrp/npool/nimage =       8
     Subspace diagonalization in iterative solution of the eigenvalue problem:
     a serial algorithm will be used


     Parallelization info
     --------------------
     sticks:   dense  smooth     PW     G-vecs:    dense   smooth      PW
     Min         105      53     15                 4053     1443     245
     Max         106      55     16                 4062     1446     252
     Sum         847     433    127                32475    11561    1985

     Using Slab Decomposition



     bravais-lattice index     =            4
     lattice parameter (alat)  =       5.5609  a.u.
     unit-cell volume          =     240.4225 (a.u.)^3
     number of atoms/cell      =            4
     number of atomic types    =            2
     number of electrons       =        36.00
     number of Kohn-Sham states=           18
     kinetic-energy cutoff     =      50.0000  Ry
     charge density cutoff     =     400.0000  Ry
     scf convergence threshold =      1.0E-08
     mixing beta               =       0.3000
     number of iterations used =            8  plain     mixing
     Exchange-correlation= PBE
                           (   1   4   3   4   0   0   0)

     celldm(1)=   5.560939  celldm(2)=   0.000000  celldm(3)=   1.614358
     celldm(4)=   0.000000  celldm(5)=   0.000000  celldm(6)=   0.000000

     crystal axes: (cart. coord. in units of alat)
               a(1) = (   1.000000   0.000000   0.000000 )  
               a(2) = (  -0.500000   0.866025   0.000000 )  
               a(3) = (   0.000000   0.000000   1.614358 )  

     reciprocal axes: (cart. coord. in units 2 pi/alat)
               b(1) = (  1.000000  0.577350 -0.000000 )  
               b(2) = (  0.000000  1.154701  0.000000 )  
               b(3) = (  0.000000 -0.000000  0.619441 )  


     PseudoPot. # 1 for Zn read from file:
     ./pseudos/Zn.upf
     MD5 check sum: 7f56cabf9682ed8c977c2f7d0c5985c5
     Pseudo is Ultrasoft + core correction, Zval = 12.0
     Generated using &quot;atomic&quot; code by A. Dal Corso  v.6.2.2
     Using radial grid of 1201 points,  6 beta functions with: 
                l(1) =   0
                l(2) =   0
                l(3) =   1
                l(4) =   1
                l(5) =   2
                l(6) =   2
     Q(r) pseudized with 0 coefficients 


     PseudoPot. # 2 for O  read from file:
     ./pseudos/O.upf
     MD5 check sum: 91400c9766925bcf19f520983a725ff0
     Pseudo is Ultrasoft + core correction, Zval =  6.0
     Generated using &quot;atomic&quot; code by A. Dal Corso  v.6.3MaX
     Using radial grid of 1095 points,  4 beta functions with: 
                l(1) =   0
                l(2) =   0
                l(3) =   1
                l(4) =   1
     Q(r) pseudized with 0 coefficients 


     atomic species   valence    mass     pseudopotential
        Zn            12.00    63.38000     Zn( 1.00)
        O              6.00    15.99900     O ( 1.00)

     No symmetry found



   Cartesian axes

     site n.     atom                  positions (alat units)
         1           Zn  tau(   1) = (   0.5434256   0.2371753   0.6128049  )
         2           Zn  tau(   2) = (  -0.0643536   0.6744059  -0.1649327  )
         3           O   tau(   3) = (   0.4281407   0.2833577   1.6861810  )
         4           O   tau(   4) = (  -0.2284320   0.7212455   0.7962416  )

     number of k points=   112

     Number of k-points >= 100: set verbosity='high' to print them.

     Dense  grid:    32475 G-vectors     FFT dimensions: (  36,  36,  60)

     Smooth grid:    11561 G-vectors     FFT dimensions: (  25,  25,  45)

     Estimated max dynamical RAM per process >      23.23 MB

     Estimated total dynamical RAM >     185.83 MB

     Check: negative core charge=   -0.000001

     Initial potential from superposition of free atoms

     starting charge      35.9925, renormalised to      36.0000
     Starting wfcs are   26 randomized atomic wfcs

     total cpu time spent up to now is        3.1 secs

     Self-consistent Calculation

     iteration #  1     ecut=    50.00 Ry     beta= 0.30
     Davidson diagonalization with overlap
     ethr =  1.00E-02,  avg # of iterations =  2.2

     total cpu time spent up to now is        7.1 secs

     total energy              =    -360.93306937 Ry
     estimated scf accuracy    <       0.86528427 Ry

     iteration #  2     ecut=    50.00 Ry     beta= 0.30
     Davidson diagonalization with overlap
     ethr =  2.40E-03,  avg # of iterations =  2.0

     total cpu time spent up to now is       11.7 secs

     total energy              =    -360.97275989 Ry
     estimated scf accuracy    <       0.16860809 Ry

     iteration #  3     ecut=    50.00 Ry     beta= 0.30
     Davidson diagonalization with overlap
     ethr =  4.68E-04,  avg # of iterations =  6.2

     total cpu time spent up to now is       20.3 secs

     total energy              =    -361.06956880 Ry
     estimated scf accuracy    <       0.11185721 Ry

     iteration #  4     ecut=    50.00 Ry     beta= 0.30
     Davidson diagonalization with overlap
     ethr =  3.11E-04,  avg # of iterations =  2.3

     total cpu time spent up to now is       24.7 secs

     total energy              =    -361.08659579 Ry
     estimated scf accuracy    <       0.01496121 Ry

     iteration #  5     ecut=    50.00 Ry     beta= 0.30
     Davidson diagonalization with overlap
     ethr =  4.16E-05,  avg # of iterations =  9.4

     total cpu time spent up to now is       38.2 secs

     total energy              =    -361.06136638 Ry
     estimated scf accuracy    <       0.41343303 Ry

     iteration #  6     ecut=    50.00 Ry     beta= 0.30
     Davidson diagonalization with overlap
     ethr =  4.16E-05,  avg # of iterations =  8.2

     total cpu time spent up to now is       49.0 secs

     total energy              =    -361.08098679 Ry
     estimated scf accuracy    <       0.03494920 Ry

     iteration #  7     ecut=    50.00 Ry     beta= 0.30
     Davidson diagonalization with overlap
     ethr =  4.16E-05,  avg # of iterations =  6.7

     total cpu time spent up to now is       57.8 secs

     total energy              =    -361.09269523 Ry
     estimated scf accuracy    <       0.00568307 Ry

     iteration #  8     ecut=    50.00 Ry     beta= 0.30
     Davidson diagonalization with overlap
     ethr =  1.58E-05,  avg # of iterations =  2.4

     total cpu time spent up to now is       62.2 secs

     total energy              =    -361.09327841 Ry
     estimated scf accuracy    <       0.00090895 Ry

     iteration #  9     ecut=    50.00 Ry     beta= 0.30
     Davidson diagonalization with overlap
     ethr =  2.52E-06,  avg # of iterations =  5.4

     total cpu time spent up to now is       68.9 secs

     total energy              =    -361.09376259 Ry
     estimated scf accuracy    <       0.00001894 Ry

     iteration # 10     ecut=    50.00 Ry     beta= 0.30
     Davidson diagonalization with overlap
     ethr =  5.26E-08,  avg # of iterations =  9.2

     total cpu time spent up to now is       80.6 secs

     total energy              =    -361.09379083 Ry
     estimated scf accuracy    <       0.00013995 Ry

     iteration # 11     ecut=    50.00 Ry     beta= 0.30
     Davidson diagonalization with overlap
     ethr =  5.26E-08,  avg # of iterations =  6.0

     total cpu time spent up to now is       88.5 secs

     total energy              =    -361.09380324 Ry
     estimated scf accuracy    <       0.00001232 Ry

     iteration # 12     ecut=    50.00 Ry     beta= 0.30
     Davidson diagonalization with overlap
     ethr =  3.42E-08,  avg # of iterations =  1.8

     total cpu time spent up to now is       92.2 secs

     total energy              =    -361.09380202 Ry
     estimated scf accuracy    <       0.00000590 Ry

     iteration # 13     ecut=    50.00 Ry     beta= 0.30
     Davidson diagonalization with overlap
     ethr =  1.64E-08,  avg # of iterations =  4.2

     total cpu time spent up to now is       97.5 secs

     total energy              =    -361.09380377 Ry
     estimated scf accuracy    <       0.00000015 Ry

     iteration # 14     ecut=    50.00 Ry     beta= 0.30
     Davidson diagonalization with overlap
     ethr =  4.13E-10,  avg # of iterations =  6.5

     total cpu time spent up to now is      105.1 secs

     total energy              =    -361.09380401 Ry
     estimated scf accuracy    <       0.00000008 Ry

     iteration # 15     ecut=    50.00 Ry     beta= 0.30
     Davidson diagonalization with overlap
     ethr =  2.11E-10,  avg # of iterations =  4.3

     total cpu time spent up to now is      110.6 secs

     total energy              =    -361.09380397 Ry
     estimated scf accuracy    <       0.00000029 Ry

     iteration # 16     ecut=    50.00 Ry     beta= 0.30
     Davidson diagonalization with overlap
     ethr =  2.11E-10,  avg # of iterations =  2.0

     total cpu time spent up to now is      114.3 secs

     total energy              =    -361.09380390 Ry
     estimated scf accuracy    <       0.00000017 Ry

     iteration # 17     ecut=    50.00 Ry     beta= 0.30
     Davidson diagonalization with overlap
     ethr =  2.11E-10,  avg # of iterations =  5.5

     total cpu time spent up to now is      121.4 secs

     End of self-consistent calculation

     Number of k-points >= 100: set verbosity='high' to print the bands.

     highest occupied level (ev):    13.0731

!    total energy              =    -361.09380394 Ry
     estimated scf accuracy    <          3.8E-10 Ry

     The total energy is the sum of the following terms:
     one-electron contribution =    -124.50075935 Ry
     hartree contribution      =     108.95667015 Ry
     xc contribution           =    -110.46289013 Ry
     ewald contribution        =    -235.08682461 Ry

     convergence has been achieved in  17 iterations

     Forces acting on atoms (cartesian axes, Ry/au):

     atom    1 type  1   force =     0.32295335    0.31423966    0.03966445
     atom    2 type  1   force =     0.00134705   -0.37957492   -0.21813739
     atom    3 type  2   force =    -0.06376842    0.40943318   -0.16580948
     atom    4 type  2   force =    -0.26053198   -0.34409792    0.34428242
     The non-local contrib.  to forces
     atom    1 type  1   force =     0.41602174    0.12098112   -0.06240287
     atom    2 type  1   force =     0.11771598   -0.61673930   -0.27632294
     atom    3 type  2   force =     0.13128695   -0.24623697   -0.29108510
     atom    4 type  2   force =     0.29917583   -0.12416990   -0.00226778
     The ionic contribution  to forces
     atom    1 type  1   force =     4.42972600    2.37897114    4.88231370
     atom    2 type  1   force =     0.93227629   -5.55869982   -7.54362269
     atom    3 type  2   force =    -1.65735382    5.46390022   -3.32474621
     atom    4 type  2   force =    -3.70464848   -2.28417155    5.98605520
     The local contribution  to forces
     atom    1 type  1   force =    -4.46424026   -2.15675205   -4.78136772
     atom    2 type  1   force =    -1.04061569    5.72722078    7.56354259
     atom    3 type  2   force =     1.46301658   -4.80818488    3.44629376
     atom    4 type  2   force =     3.14634987    2.06157206   -5.63756804
     The core correction contribution to forces
     atom    1 type  1   force =    -0.05854957   -0.02894708    0.00108229
     atom    2 type  1   force =    -0.00802947    0.06862536    0.03829563
     atom    3 type  2   force =    -0.00071227   -0.00003001    0.00374799
     atom    4 type  2   force =    -0.00141657    0.00266093   -0.00195549
     The Hubbard contrib.    to forces
     atom    1 type  1   force =     0.00000000    0.00000000    0.00000000
     atom    2 type  1   force =     0.00000000    0.00000000    0.00000000
     atom    3 type  2   force =     0.00000000    0.00000000    0.00000000
     atom    4 type  2   force =     0.00000000    0.00000000    0.00000000
     The SCF correction term to forces
     atom    1 type  1   force =    -0.00000120   -0.00001420    0.00004129
     atom    2 type  1   force =     0.00000330    0.00001734   -0.00002776
     atom    3 type  2   force =    -0.00000251   -0.00001591   -0.00001767
     atom    4 type  2   force =     0.00001073    0.00000982    0.00002076

     Total force =     0.948835     Total SCF correction =     0.000065

     Writing all to output data dir ./ZnO_ANN.save/

     init_run     :      2.55s CPU      2.63s WALL (       1 calls)
     electrons    :    115.65s CPU    118.29s WALL (       1 calls)
     forces       :      0.77s CPU      0.78s WALL (       1 calls)

     Called by init_run:
     wfcinit      :      1.84s CPU      1.90s WALL (       1 calls)
     potinit      :      0.15s CPU      0.15s WALL (       1 calls)
     hinit0       :      0.50s CPU      0.50s WALL (       1 calls)

     Called by electrons:
     c_bands      :    106.11s CPU    108.46s WALL (      17 calls)
     sum_band     :      8.62s CPU      8.88s WALL (      17 calls)
     v_of_rho     :      0.20s CPU      0.21s WALL (      18 calls)
     newd         :      0.72s CPU      0.74s WALL (      18 calls)
     mix_rho      :      0.03s CPU      0.03s WALL (      17 calls)

     Called by c_bands:
     init_us_2    :      0.63s CPU      0.64s WALL (    4032 calls)
     init_us_2:cp :      0.61s CPU      0.62s WALL (    4032 calls)
     cegterg      :    104.07s CPU    106.37s WALL (    1904 calls)

     Called by *egterg:
     cdiaghg      :     12.73s CPU     12.81s WALL (   11344 calls)
     h_psi        :     57.41s CPU     59.13s WALL (   11456 calls)
     s_psi        :      6.78s CPU      6.83s WALL (   11456 calls)
     g_psi        :      0.22s CPU      0.22s WALL (    9440 calls)

     Called by h_psi:
     h_psi:calbec :      8.23s CPU      8.56s WALL (   11456 calls)
     vloc_psi     :     42.24s CPU     43.55s WALL (   11456 calls)
     add_vuspsi   :      6.75s CPU      6.83s WALL (   11456 calls)

     General routines
     calbec       :     10.66s CPU     11.09s WALL (   13808 calls)
     fft          :      0.41s CPU      0.44s WALL (     243 calls)
     ffts         :      0.05s CPU      0.05s WALL (      35 calls)
     fftw         :     42.07s CPU     43.36s WALL (  311708 calls)
     interpolate  :      0.06s CPU      0.06s WALL (      18 calls)

     Parallel routines

     PWSCF        :   1m59.66s CPU   2m 2.51s WALL


   This run was terminated on:  11:57:38  23Jun2025            

=------------------------------------------------------------------------------=
   JOB DONE.
=------------------------------------------------------------------------------=
Note: The following floating-point exceptions are signalling: IEEE_INVALID_FLAG
