
     Program PWSCF v.7.2 starts on 23Jun2025 at 15:27:26 

     This program is part of the open-source Quantum ESPRESSO suite
     for quantum simulation of materials; please cite
         "P. Giannozzi et al., J. Phys.:Condens. Matter 21 395502 (2009);
         "P. Giannozzi et al., J. Phys.:Condens. Matter 29 465901 (2017);
         "P. Giannozzi et al., J. Chem. Phys. 152 154105 (2020);
          URL http://www.quantum-espresso.org", 
     in publications or presentations arising from this work. More details at
     http://www.quantum-espresso.org/quote

     Parallel version (MPI), running on     8 processors

     MPI processes distributed on     1 nodes
     90916 MiB available memory on the printing compute node when the environment starts

     Reading input from /home/jvc/QEspresso7.2/ZnO_DataBase/scfs_rnd025.in/scf-6.30-1.71-2.in

     Current dimensions of program PWSCF are:
     Max number of different atomic species (ntypx) = 10
     Max number of k-points (npk) =  40000
     Max angular momentum in pseudopotentials (lmaxx) =  4
     file Zn.upf: wavefunction(s)  3D renormalized

     R & G space division:  proc/nbgrp/npool/nimage =       8
     Subspace diagonalization in iterative solution of the eigenvalue problem:
     a serial algorithm will be used


     Parallelization info
     --------------------
     sticks:   dense  smooth     PW     G-vecs:    dense   smooth      PW
     Min         137      68     20                 6244     2212     370
     Max         138      69     21                 6247     2219     375
     Sum        1099     547    163                49959    17719    2973

     Using Slab Decomposition



     bravais-lattice index     =            4
     lattice parameter (alat)  =       6.3024  a.u.
     unit-cell volume          =     370.9829 (a.u.)^3
     number of atoms/cell      =            4
     number of atomic types    =            2
     number of electrons       =        36.00
     number of Kohn-Sham states=           18
     kinetic-energy cutoff     =      50.0000  Ry
     charge density cutoff     =     400.0000  Ry
     scf convergence threshold =      1.0E-08
     mixing beta               =       0.3000
     number of iterations used =            8  plain     mixing
     Exchange-correlation= PBE
                           (   1   4   3   4   0   0   0)

     celldm(1)=   6.302398  celldm(2)=   0.000000  celldm(3)=   1.711220
     celldm(4)=   0.000000  celldm(5)=   0.000000  celldm(6)=   0.000000

     crystal axes: (cart. coord. in units of alat)
               a(1) = (   1.000000   0.000000   0.000000 )  
               a(2) = (  -0.500000   0.866025   0.000000 )  
               a(3) = (   0.000000   0.000000   1.711220 )  

     reciprocal axes: (cart. coord. in units 2 pi/alat)
               b(1) = (  1.000000  0.577350 -0.000000 )  
               b(2) = (  0.000000  1.154701  0.000000 )  
               b(3) = (  0.000000 -0.000000  0.584378 )  


     PseudoPot. # 1 for Zn read from file:
     ./pseudos/Zn.upf
     MD5 check sum: 7f56cabf9682ed8c977c2f7d0c5985c5
     Pseudo is Ultrasoft + core correction, Zval = 12.0
     Generated using &quot;atomic&quot; code by A. Dal Corso  v.6.2.2
     Using radial grid of 1201 points,  6 beta functions with: 
                l(1) =   0
                l(2) =   0
                l(3) =   1
                l(4) =   1
                l(5) =   2
                l(6) =   2
     Q(r) pseudized with 0 coefficients 


     PseudoPot. # 2 for O  read from file:
     ./pseudos/O.upf
     MD5 check sum: 91400c9766925bcf19f520983a725ff0
     Pseudo is Ultrasoft + core correction, Zval =  6.0
     Generated using &quot;atomic&quot; code by A. Dal Corso  v.6.3MaX
     Using radial grid of 1095 points,  4 beta functions with: 
                l(1) =   0
                l(2) =   0
                l(3) =   1
                l(4) =   1
     Q(r) pseudized with 0 coefficients 


     atomic species   valence    mass     pseudopotential
        Zn            12.00    63.38000     Zn( 1.00)
        O              6.00    15.99900     O ( 1.00)

     No symmetry found



   Cartesian axes

     site n.     atom                  positions (alat units)
         1           Zn  tau(   1) = (   0.7638327   0.1775372   0.7999816  )
         2           Zn  tau(   2) = (   0.0224819   0.7060802   0.2881437  )
         3           O   tau(   3) = (   0.5999000   0.1032037   1.5879776  )
         4           O   tau(   4) = (   0.2067731   0.4953722   0.5156233  )

     number of k points=   112

     Number of k-points >= 100: set verbosity='high' to print them.

     Dense  grid:    49959 G-vectors     FFT dimensions: (  45,  45,  72)

     Smooth grid:    17719 G-vectors     FFT dimensions: (  30,  30,  50)

     Estimated max dynamical RAM per process >      34.17 MB

     Estimated total dynamical RAM >     273.37 MB

     Check: negative core charge=   -0.000002

     Initial potential from superposition of free atoms

     starting charge      35.9925, renormalised to      36.0000
     Starting wfcs are   26 randomized atomic wfcs

     total cpu time spent up to now is        4.2 secs

     Self-consistent Calculation

     iteration #  1     ecut=    50.00 Ry     beta= 0.30
     Davidson diagonalization with overlap
     ethr =  1.00E-02,  avg # of iterations =  2.3

     total cpu time spent up to now is       10.3 secs

     total energy              =    -359.92985193 Ry
     estimated scf accuracy    <       1.56316473 Ry

     iteration #  2     ecut=    50.00 Ry     beta= 0.30
     Davidson diagonalization with overlap
     ethr =  4.34E-03,  avg # of iterations =  4.5

     total cpu time spent up to now is       17.3 secs

     total energy              =    -360.15777663 Ry
     estimated scf accuracy    <       0.14830636 Ry

     iteration #  3     ecut=    50.00 Ry     beta= 0.30
     Davidson diagonalization with overlap
     c_bands:  2 eigenvalues not converged
     ethr =  4.12E-04,  avg # of iterations =  9.2

     total cpu time spent up to now is       29.8 secs

     total energy              =    -360.25078642 Ry
     estimated scf accuracy    <       0.31310977 Ry

     iteration #  4     ecut=    50.00 Ry     beta= 0.30
     Davidson diagonalization with overlap
     ethr =  4.12E-04,  avg # of iterations =  6.6

     total cpu time spent up to now is       38.3 secs

     total energy              =    -360.30129819 Ry
     estimated scf accuracy    <       0.01403279 Ry

     iteration #  5     ecut=    50.00 Ry     beta= 0.30
     Davidson diagonalization with overlap
     ethr =  3.90E-05,  avg # of iterations =  5.6

     total cpu time spent up to now is       46.5 secs

     total energy              =    -360.30554077 Ry
     estimated scf accuracy    <       0.00926431 Ry

     iteration #  6     ecut=    50.00 Ry     beta= 0.30
     Davidson diagonalization with overlap
     ethr =  2.57E-05,  avg # of iterations =  1.8

     total cpu time spent up to now is       51.9 secs

     total energy              =    -360.30459136 Ry
     estimated scf accuracy    <       0.00319663 Ry

     iteration #  7     ecut=    50.00 Ry     beta= 0.30
     Davidson diagonalization with overlap
     c_bands:  1 eigenvalues not converged
     c_bands:  1 eigenvalues not converged
     c_bands:  1 eigenvalues not converged
     ethr =  8.88E-06,  avg # of iterations =  8.6

     total cpu time spent up to now is       60.8 secs

     total energy              =    -360.30701637 Ry
     estimated scf accuracy    <       0.00231994 Ry

     iteration #  8     ecut=    50.00 Ry     beta= 0.30
     Davidson diagonalization with overlap
     ethr =  6.44E-06,  avg # of iterations =  1.7

     total cpu time spent up to now is       66.0 secs

     total energy              =    -360.30694187 Ry
     estimated scf accuracy    <       0.00282864 Ry

     iteration #  9     ecut=    50.00 Ry     beta= 0.30
     Davidson diagonalization with overlap
     ethr =  6.44E-06,  avg # of iterations =  1.1

     total cpu time spent up to now is       70.9 secs

     total energy              =    -360.30613193 Ry
     estimated scf accuracy    <       0.00267359 Ry

     iteration # 10     ecut=    50.00 Ry     beta= 0.30
     Davidson diagonalization with overlap
     ethr =  6.44E-06,  avg # of iterations =  2.3

     total cpu time spent up to now is       76.6 secs

     total energy              =    -360.30560191 Ry
     estimated scf accuracy    <       0.00102489 Ry

     iteration # 11     ecut=    50.00 Ry     beta= 0.30
     Davidson diagonalization with overlap
     c_bands:  2 eigenvalues not converged
     c_bands:  1 eigenvalues not converged
     c_bands:  1 eigenvalues not converged
     c_bands:  2 eigenvalues not converged
     c_bands:  1 eigenvalues not converged
     c_bands:  1 eigenvalues not converged
     c_bands:  2 eigenvalues not converged
     c_bands:  2 eigenvalues not converged
     c_bands:  1 eigenvalues not converged
     c_bands:  1 eigenvalues not converged
     c_bands:  2 eigenvalues not converged
     c_bands:  2 eigenvalues not converged
     ethr =  2.85E-06,  avg # of iterations = 11.1

     total cpu time spent up to now is       87.5 secs

     total energy              =    -360.30805255 Ry
     estimated scf accuracy    <       0.01083749 Ry

     iteration # 12     ecut=    50.00 Ry     beta= 0.30
     Davidson diagonalization with overlap
     ethr =  2.85E-06,  avg # of iterations =  1.4

     total cpu time spent up to now is       92.6 secs

     total energy              =    -360.30929399 Ry
     estimated scf accuracy    <       0.01153913 Ry

     iteration # 13     ecut=    50.00 Ry     beta= 0.30
     Davidson diagonalization with overlap
     ethr =  2.85E-06,  avg # of iterations =  5.7

     total cpu time spent up to now is       99.3 secs

     total energy              =    -360.31002664 Ry
     estimated scf accuracy    <       0.01891819 Ry

     iteration # 14     ecut=    50.00 Ry     beta= 0.30
     Davidson diagonalization with overlap
     ethr =  2.85E-06,  avg # of iterations =  2.4

     total cpu time spent up to now is      104.9 secs

     total energy              =    -360.31305644 Ry
     estimated scf accuracy    <       0.02299333 Ry

     iteration # 15     ecut=    50.00 Ry     beta= 0.30
     Davidson diagonalization with overlap
     c_bands:  1 eigenvalues not converged
     c_bands:  1 eigenvalues not converged
     c_bands:  2 eigenvalues not converged
     ethr =  2.85E-06,  avg # of iterations =  8.1

     total cpu time spent up to now is      114.0 secs

     total energy              =    -360.31480056 Ry
     estimated scf accuracy    <       0.05294655 Ry

     iteration # 16     ecut=    50.00 Ry     beta= 0.30
     Davidson diagonalization with overlap
     ethr =  2.85E-06,  avg # of iterations =  1.3

     total cpu time spent up to now is      119.1 secs

     total energy              =    -360.30159638 Ry
     estimated scf accuracy    <       0.05492054 Ry

     iteration # 17     ecut=    50.00 Ry     beta= 0.30
     Davidson diagonalization with overlap
     c_bands:  3 eigenvalues not converged
     c_bands:  2 eigenvalues not converged
     c_bands:  2 eigenvalues not converged
     c_bands:  2 eigenvalues not converged
     c_bands:  2 eigenvalues not converged
     c_bands:  1 eigenvalues not converged
     c_bands:  1 eigenvalues not converged
     c_bands:  2 eigenvalues not converged
     c_bands:  2 eigenvalues not converged
     c_bands:  1 eigenvalues not converged
     c_bands:  2 eigenvalues not converged
     c_bands:  2 eigenvalues not converged
     c_bands:  1 eigenvalues not converged
     c_bands:  1 eigenvalues not converged
     c_bands:  1 eigenvalues not converged
     c_bands:  2 eigenvalues not converged
     c_bands:  1 eigenvalues not converged
     c_bands:  1 eigenvalues not converged
     c_bands:  2 eigenvalues not converged
     ethr =  2.85E-06,  avg # of iterations = 13.9

     total cpu time spent up to now is      134.1 secs

     total energy              =    -360.30602184 Ry
     estimated scf accuracy    <       0.00133203 Ry

     iteration # 18     ecut=    50.00 Ry     beta= 0.30
     Davidson diagonalization with overlap
     ethr =  2.85E-06,  avg # of iterations =  5.2

     total cpu time spent up to now is      140.7 secs

     total energy              =    -360.30650558 Ry
     estimated scf accuracy    <       0.00007156 Ry

     iteration # 19     ecut=    50.00 Ry     beta= 0.30
     Davidson diagonalization with overlap
     c_bands:  2 eigenvalues not converged
     c_bands:  1 eigenvalues not converged
     c_bands:  1 eigenvalues not converged
     c_bands:  1 eigenvalues not converged
     c_bands:  1 eigenvalues not converged
     c_bands:  1 eigenvalues not converged
     c_bands:  1 eigenvalues not converged
     c_bands:  1 eigenvalues not converged
     c_bands:  2 eigenvalues not converged
     c_bands:  1 eigenvalues not converged
     c_bands:  1 eigenvalues not converged
     c_bands:  1 eigenvalues not converged
     c_bands:  2 eigenvalues not converged
     c_bands:  1 eigenvalues not converged
     c_bands:  2 eigenvalues not converged
     c_bands:  2 eigenvalues not converged
     c_bands:  1 eigenvalues not converged
     ethr =  1.99E-07,  avg # of iterations = 14.8

     total cpu time spent up to now is      154.8 secs

     total energy              =    -360.30660772 Ry
     estimated scf accuracy    <       0.00240687 Ry

     iteration # 20     ecut=    50.00 Ry     beta= 0.30
     Davidson diagonalization with overlap
     ethr =  1.99E-07,  avg # of iterations =  7.3

     total cpu time spent up to now is      162.7 secs

     total energy              =    -360.30659576 Ry
     estimated scf accuracy    <       0.00126059 Ry

     iteration # 21     ecut=    50.00 Ry     beta= 0.30
     Davidson diagonalization with overlap
     ethr =  1.99E-07,  avg # of iterations =  1.6

     total cpu time spent up to now is      167.9 secs

     total energy              =    -360.30647797 Ry
     estimated scf accuracy    <       0.00115279 Ry

     iteration # 22     ecut=    50.00 Ry     beta= 0.30
     Davidson diagonalization with overlap
     c_bands:  1 eigenvalues not converged
     c_bands:  1 eigenvalues not converged
     c_bands:  2 eigenvalues not converged
     c_bands:  1 eigenvalues not converged
     ethr =  1.99E-07,  avg # of iterations =  8.6

     total cpu time spent up to now is      177.2 secs

     total energy              =    -360.30649793 Ry
     estimated scf accuracy    <       0.00025943 Ry

     iteration # 23     ecut=    50.00 Ry     beta= 0.30
     Davidson diagonalization with overlap
     ethr =  1.99E-07,  avg # of iterations =  2.2

     total cpu time spent up to now is      182.8 secs

     total energy              =    -360.30648593 Ry
     estimated scf accuracy    <       0.00016071 Ry

     iteration # 24     ecut=    50.00 Ry     beta= 0.30
     Davidson diagonalization with overlap
     ethr =  1.99E-07,  avg # of iterations =  4.0

     total cpu time spent up to now is      189.3 secs

     total energy              =    -360.30648794 Ry
     estimated scf accuracy    <       0.00004487 Ry

     iteration # 25     ecut=    50.00 Ry     beta= 0.30
     Davidson diagonalization with overlap
     c_bands:  1 eigenvalues not converged
     ethr =  1.25E-07,  avg # of iterations =  6.5

     total cpu time spent up to now is      197.0 secs

     total energy              =    -360.30650241 Ry
     estimated scf accuracy    <       0.00000189 Ry

     iteration # 26     ecut=    50.00 Ry     beta= 0.30
     Davidson diagonalization with overlap
     c_bands:  1 eigenvalues not converged
     c_bands:  1 eigenvalues not converged
     c_bands:  1 eigenvalues not converged
     c_bands:  1 eigenvalues not converged
     c_bands:  1 eigenvalues not converged
     c_bands:  2 eigenvalues not converged
     c_bands:  1 eigenvalues not converged
     ethr =  5.25E-09,  avg # of iterations =  9.7

     total cpu time spent up to now is      206.8 secs

     total energy              =    -360.30650250 Ry
     estimated scf accuracy    <       0.00001196 Ry

     iteration # 27     ecut=    50.00 Ry     beta= 0.30
     Davidson diagonalization with overlap
     ethr =  5.25E-09,  avg # of iterations =  7.8

     total cpu time spent up to now is      215.7 secs

     total energy              =    -360.30650317 Ry
     estimated scf accuracy    <       0.00000093 Ry

     iteration # 28     ecut=    50.00 Ry     beta= 0.30
     Davidson diagonalization with overlap
     ethr =  2.58E-09,  avg # of iterations =  3.1

     total cpu time spent up to now is      221.7 secs

     total energy              =    -360.30650329 Ry
     estimated scf accuracy    <       0.00000014 Ry

     iteration # 29     ecut=    50.00 Ry     beta= 0.30
     Davidson diagonalization with overlap
     c_bands:  1 eigenvalues not converged
     c_bands:  1 eigenvalues not converged
     ethr =  4.02E-10,  avg # of iterations =  7.6

     total cpu time spent up to now is      230.8 secs

     total energy              =    -360.30650337 Ry
     estimated scf accuracy    <       0.00000003 Ry

     iteration # 30     ecut=    50.00 Ry     beta= 0.30
     Davidson diagonalization with overlap
     ethr =  7.04E-11,  avg # of iterations =  4.8

     total cpu time spent up to now is      237.6 secs

     total energy              =    -360.30650336 Ry
     estimated scf accuracy    <       0.00000004 Ry

     iteration # 31     ecut=    50.00 Ry     beta= 0.30
     Davidson diagonalization with overlap
     ethr =  7.04E-11,  avg # of iterations =  2.8

     total cpu time spent up to now is      244.0 secs

     total energy              =    -360.30650336 Ry
     estimated scf accuracy    <       0.00000002 Ry

     iteration # 32     ecut=    50.00 Ry     beta= 0.30
     Davidson diagonalization with overlap
     c_bands:  2 eigenvalues not converged
     c_bands:  1 eigenvalues not converged
     c_bands:  1 eigenvalues not converged
     c_bands:  1 eigenvalues not converged
     c_bands:  1 eigenvalues not converged
     c_bands:  2 eigenvalues not converged
     c_bands:  1 eigenvalues not converged
     c_bands:  2 eigenvalues not converged
     c_bands:  1 eigenvalues not converged
     ethr =  5.27E-11,  avg # of iterations =  9.2

     total cpu time spent up to now is      254.7 secs

     total energy              =    -360.30650337 Ry
     estimated scf accuracy    <       0.00000005 Ry

     iteration # 33     ecut=    50.00 Ry     beta= 0.30
     Davidson diagonalization with overlap
     ethr =  5.27E-11,  avg # of iterations =  1.2

     total cpu time spent up to now is      260.1 secs

     total energy              =    -360.30650338 Ry
     estimated scf accuracy    <       0.00000004 Ry

     iteration # 34     ecut=    50.00 Ry     beta= 0.30
     Davidson diagonalization with overlap
     ethr =  5.27E-11,  avg # of iterations =  1.5

     total cpu time spent up to now is      265.5 secs

     total energy              =    -360.30650339 Ry
     estimated scf accuracy    <       0.00000006 Ry

     iteration # 35     ecut=    50.00 Ry     beta= 0.30
     Davidson diagonalization with overlap
     ethr =  5.27E-11,  avg # of iterations =  7.3

     total cpu time spent up to now is      273.6 secs

     total energy              =    -360.30650334 Ry
     estimated scf accuracy    <       0.00000020 Ry

     iteration # 36     ecut=    50.00 Ry     beta= 0.30
     Davidson diagonalization with overlap
     c_bands:  2 eigenvalues not converged
     c_bands:  2 eigenvalues not converged
     c_bands:  2 eigenvalues not converged
     c_bands:  2 eigenvalues not converged
     c_bands:  1 eigenvalues not converged
     ethr =  5.27E-11,  avg # of iterations = 10.1

     total cpu time spent up to now is      284.6 secs

     End of self-consistent calculation

     Number of k-points >= 100: set verbosity='high' to print the bands.

     highest occupied level (ev):     6.5904

!    total energy              =    -360.30650337 Ry
     estimated scf accuracy    <          1.5E-09 Ry

     The total energy is the sum of the following terms:
     one-electron contribution =    -242.81721693 Ry
     hartree contribution      =     158.27662970 Ry
     xc contribution           =    -109.81977348 Ry
     ewald contribution        =    -165.94614266 Ry

     convergence has been achieved in  36 iterations

     Forces acting on atoms (cartesian axes, Ry/au):

     atom    1 type  1   force =     0.01118249    0.04518632    0.17150223
     atom    2 type  1   force =    -1.38857995    1.46590839   -1.79686541
     atom    3 type  2   force =     0.01384932    0.12229606   -0.18218640
     atom    4 type  2   force =     1.36354814   -1.63339076    1.80754957
     The non-local contrib.  to forces
     atom    1 type  1   force =    -0.05791253    0.02785028   -0.00479503
     atom    2 type  1   force =    -0.43365694    0.00780157    0.64495925
     atom    3 type  2   force =    -0.28781662   -0.47884925    0.61326548
     atom    4 type  2   force =    -0.75134731    0.56440918    0.20340268
     The ionic contribution  to forces
     atom    1 type  1   force =     0.82031247    2.24874591   27.42933264
     atom    2 type  1   force =   -13.63301614    6.24290204  -24.36766780
     atom    3 type  2   force =     0.98188641    4.46342634  -15.75844554
     atom    4 type  2   force =    11.83081726  -12.95507429   12.69678069
     The local contribution  to forces
     atom    1 type  1   force =    -0.75467688   -2.22464511  -27.22844887
     atom    2 type  1   force =    12.51199522   -4.66542535   21.80936072
     atom    3 type  2   force =    -0.68292831   -3.86549008   14.96630542
     atom    4 type  2   force =    -9.71677839   10.75556322  -11.08343424
     The core correction contribution to forces
     atom    1 type  1   force =     0.00345968   -0.00676941   -0.02456833
     atom    2 type  1   force =     0.16613631   -0.11937715    0.11638698
     atom    3 type  2   force =     0.00269353    0.00322061   -0.00328022
     atom    4 type  2   force =     0.00084723    0.00171846   -0.00925713
     The Hubbard contrib.    to forces
     atom    1 type  1   force =     0.00000000    0.00000000    0.00000000
     atom    2 type  1   force =     0.00000000    0.00000000    0.00000000
     atom    3 type  2   force =     0.00000000    0.00000000    0.00000000
     atom    4 type  2   force =     0.00000000    0.00000000    0.00000000
     The SCF correction term to forces
     atom    1 type  1   force =    -0.00001139    0.00001179   -0.00000814
     atom    2 type  1   force =    -0.00004953    0.00001444    0.00010549
     atom    3 type  2   force =     0.00000318   -0.00000441   -0.00002148
     atom    4 type  2   force =    -0.00000179   -0.00000017    0.00006762

     Total force =     3.896171     Total SCF correction =     0.000139

     Writing all to output data dir ./ZnO_ANN.save/

     init_run     :      3.68s CPU      3.76s WALL (       1 calls)
     electrons    :    276.10s CPU    280.38s WALL (       1 calls)
     forces       :      1.17s CPU      1.18s WALL (       1 calls)

     Called by init_run:
     wfcinit      :      2.84s CPU      2.88s WALL (       1 calls)
     potinit      :      0.27s CPU      0.27s WALL (       1 calls)
     hinit0       :      0.47s CPU      0.48s WALL (       1 calls)

     Called by electrons:
     c_bands      :    243.67s CPU    247.37s WALL (      36 calls)
     sum_band     :     29.23s CPU     29.74s WALL (      36 calls)
     v_of_rho     :      0.72s CPU      0.76s WALL (      37 calls)
     newd         :      2.38s CPU      2.41s WALL (      37 calls)
     mix_rho      :      0.12s CPU      0.12s WALL (      36 calls)

     Called by c_bands:
     init_us_2    :      1.97s CPU      1.99s WALL (    8288 calls)
     init_us_2:cp :      1.94s CPU      1.97s WALL (    8288 calls)
     cegterg      :    236.95s CPU    240.57s WALL (    4032 calls)

     Called by *egterg:
     cdiaghg      :     26.50s CPU     26.72s WALL (   26736 calls)
     h_psi        :    138.91s CPU    141.57s WALL (   26848 calls)
     s_psi        :     14.05s CPU     14.17s WALL (   26848 calls)
     g_psi        :      0.46s CPU      0.46s WALL (   22704 calls)

     Called by h_psi:
     h_psi:calbec :     18.85s CPU     19.34s WALL (   26848 calls)
     vloc_psi     :    105.62s CPU    107.65s WALL (   26848 calls)
     add_vuspsi   :     14.01s CPU     14.14s WALL (   26848 calls)

     General routines
     calbec       :     25.78s CPU     26.41s WALL (   31328 calls)
     fft          :      0.90s CPU      0.95s WALL (     490 calls)
     ffts         :      0.12s CPU      0.13s WALL (      73 calls)
     fftw         :    110.39s CPU    112.50s WALL (  493736 calls)
     interpolate  :      0.15s CPU      0.15s WALL (      37 calls)

     Parallel routines

     PWSCF        :   4m41.65s CPU   4m46.28s WALL


   This run was terminated on:  15:32:12  23Jun2025            

=------------------------------------------------------------------------------=
   JOB DONE.
=------------------------------------------------------------------------------=
Note: The following floating-point exceptions are signalling: IEEE_INVALID_FLAG
