
     Program PWSCF v.7.2 starts on 23Jun2025 at 15:56:38 

     This program is part of the open-source Quantum ESPRESSO suite
     for quantum simulation of materials; please cite
         "P. Giannozzi et al., J. Phys.:Condens. Matter 21 395502 (2009);
         "P. Giannozzi et al., J. Phys.:Condens. Matter 29 465901 (2017);
         "P. Giannozzi et al., J. Chem. Phys. 152 154105 (2020);
          URL http://www.quantum-espresso.org", 
     in publications or presentations arising from this work. More details at
     http://www.quantum-espresso.org/quote

     Parallel version (MPI), running on     8 processors

     MPI processes distributed on     1 nodes
     90946 MiB available memory on the printing compute node when the environment starts

     Reading input from /home/jvc/QEspresso7.2/ZnO_DataBase/scfs_rnd025.in/scf-6.43-1.58-3.in

     Current dimensions of program PWSCF are:
     Max number of different atomic species (ntypx) = 10
     Max number of k-points (npk) =  40000
     Max angular momentum in pseudopotentials (lmaxx) =  4
     file Zn.upf: wavefunction(s)  3D renormalized

     R & G space division:  proc/nbgrp/npool/nimage =       8
     Subspace diagonalization in iterative solution of the eigenvalue problem:
     a serial algorithm will be used


     Parallelization info
     --------------------
     sticks:   dense  smooth     PW     G-vecs:    dense   smooth      PW
     Min         143      71     20                 6127     2157     356
     Max         145      73     21                 6129     2160     363
     Sum        1147     571    163                49019    17259    2863

     Using Slab Decomposition



     bravais-lattice index     =            4
     lattice parameter (alat)  =       6.4260  a.u.
     unit-cell volume          =     363.5579 (a.u.)^3
     number of atoms/cell      =            4
     number of atomic types    =            2
     number of electrons       =        36.00
     number of Kohn-Sham states=           18
     kinetic-energy cutoff     =      50.0000  Ry
     charge density cutoff     =     400.0000  Ry
     scf convergence threshold =      1.0E-08
     mixing beta               =       0.3000
     number of iterations used =            8  plain     mixing
     Exchange-correlation= PBE
                           (   1   4   3   4   0   0   0)

     celldm(1)=   6.425974  celldm(2)=   0.000000  celldm(3)=   1.582071
     celldm(4)=   0.000000  celldm(5)=   0.000000  celldm(6)=   0.000000

     crystal axes: (cart. coord. in units of alat)
               a(1) = (   1.000000   0.000000   0.000000 )  
               a(2) = (  -0.500000   0.866025   0.000000 )  
               a(3) = (   0.000000   0.000000   1.582071 )  

     reciprocal axes: (cart. coord. in units 2 pi/alat)
               b(1) = (  1.000000  0.577350 -0.000000 )  
               b(2) = (  0.000000  1.154701  0.000000 )  
               b(3) = (  0.000000 -0.000000  0.632083 )  


     PseudoPot. # 1 for Zn read from file:
     ./pseudos/Zn.upf
     MD5 check sum: 7f56cabf9682ed8c977c2f7d0c5985c5
     Pseudo is Ultrasoft + core correction, Zval = 12.0
     Generated using &quot;atomic&quot; code by A. Dal Corso  v.6.2.2
     Using radial grid of 1201 points,  6 beta functions with: 
                l(1) =   0
                l(2) =   0
                l(3) =   1
                l(4) =   1
                l(5) =   2
                l(6) =   2
     Q(r) pseudized with 0 coefficients 


     PseudoPot. # 2 for O  read from file:
     ./pseudos/O.upf
     MD5 check sum: 91400c9766925bcf19f520983a725ff0
     Pseudo is Ultrasoft + core correction, Zval =  6.0
     Generated using &quot;atomic&quot; code by A. Dal Corso  v.6.3MaX
     Using radial grid of 1095 points,  4 beta functions with: 
                l(1) =   0
                l(2) =   0
                l(3) =   1
                l(4) =   1
     Q(r) pseudized with 0 coefficients 


     atomic species   valence    mass     pseudopotential
        Zn            12.00    63.38000     Zn( 1.00)
        O              6.00    15.99900     O ( 1.00)

     No symmetry found



   Cartesian axes

     site n.     atom                  positions (alat units)
         1           Zn  tau(   1) = (   0.6418809   0.2453174   0.9516747  )
         2           Zn  tau(   2) = (   0.1172012   0.3996556  -0.2575657  )
         3           O   tau(   3) = (   0.8391342   0.1001548   1.5076215  )
         4           O   tau(   4) = (  -0.0675196   0.6377190   0.4015688  )

     number of k points=   112

     Number of k-points >= 100: set verbosity='high' to print them.

     Dense  grid:    49019 G-vectors     FFT dimensions: (  45,  45,  72)

     Smooth grid:    17259 G-vectors     FFT dimensions: (  30,  30,  45)

     Estimated max dynamical RAM per process >      33.61 MB

     Estimated total dynamical RAM >     268.88 MB

     Check: negative core charge=   -0.000003

     Initial potential from superposition of free atoms

     starting charge      35.9925, renormalised to      36.0000
     Starting wfcs are   26 randomized atomic wfcs

     total cpu time spent up to now is        4.2 secs

     Self-consistent Calculation

     iteration #  1     ecut=    50.00 Ry     beta= 0.30
     Davidson diagonalization with overlap
     ethr =  1.00E-02,  avg # of iterations =  2.0

     total cpu time spent up to now is        9.8 secs

     total energy              =    -360.48681069 Ry
     estimated scf accuracy    <       1.38859957 Ry

     iteration #  2     ecut=    50.00 Ry     beta= 0.30
     Davidson diagonalization with overlap
     ethr =  3.86E-03,  avg # of iterations =  8.0

     total cpu time spent up to now is       18.8 secs

     total energy              =    -360.82375149 Ry
     estimated scf accuracy    <       1.27618051 Ry

     iteration #  3     ecut=    50.00 Ry     beta= 0.30
     Davidson diagonalization with overlap
     ethr =  3.54E-03,  avg # of iterations =  1.2

     total cpu time spent up to now is       23.8 secs

     total energy              =    -360.45149679 Ry
     estimated scf accuracy    <       0.71867384 Ry

     iteration #  4     ecut=    50.00 Ry     beta= 0.30
     Davidson diagonalization with overlap
     ethr =  2.00E-03,  avg # of iterations =  9.5

     total cpu time spent up to now is       37.9 secs

     total energy              =    -361.13188208 Ry
     estimated scf accuracy    <       2.35151311 Ry

     iteration #  5     ecut=    50.00 Ry     beta= 0.30
     Davidson diagonalization with overlap
     ethr =  2.00E-03,  avg # of iterations =  1.7

     total cpu time spent up to now is       43.3 secs

     total energy              =    -361.11315879 Ry
     estimated scf accuracy    <       1.60415414 Ry

     iteration #  6     ecut=    50.00 Ry     beta= 0.30
     Davidson diagonalization with overlap
     ethr =  2.00E-03,  avg # of iterations =  1.0

     total cpu time spent up to now is       48.3 secs

     total energy              =    -361.11825567 Ry
     estimated scf accuracy    <       1.47809309 Ry

     iteration #  7     ecut=    50.00 Ry     beta= 0.30
     Davidson diagonalization with overlap
     ethr =  2.00E-03,  avg # of iterations =  1.0

     total cpu time spent up to now is       53.3 secs

     total energy              =    -362.22382498 Ry
     estimated scf accuracy    <       1.37128765 Ry

     iteration #  8     ecut=    50.00 Ry     beta= 0.30
     Davidson diagonalization with overlap
     ethr =  2.00E-03,  avg # of iterations =  5.4

     total cpu time spent up to now is       60.9 secs

     total energy              =    -362.01971903 Ry
     estimated scf accuracy    <       5.34050120 Ry

     iteration #  9     ecut=    50.00 Ry     beta= 0.30
     Davidson diagonalization with overlap
     ethr =  2.00E-03,  avg # of iterations =  1.0

     total cpu time spent up to now is       65.8 secs

     total energy              =    -362.50977240 Ry
     estimated scf accuracy    <       4.47629406 Ry

     iteration # 10     ecut=    50.00 Ry     beta= 0.30
     Davidson diagonalization with overlap
     ethr =  2.00E-03,  avg # of iterations =  1.0

     total cpu time spent up to now is       70.8 secs

     total energy              =    -362.90497666 Ry
     estimated scf accuracy    <       5.23025425 Ry

     iteration # 11     ecut=    50.00 Ry     beta= 0.30
     Davidson diagonalization with overlap
     ethr =  2.00E-03,  avg # of iterations =  1.0

     total cpu time spent up to now is       75.8 secs

     total energy              =    -362.43371646 Ry
     estimated scf accuracy    <       6.07796964 Ry

     iteration # 12     ecut=    50.00 Ry     beta= 0.30
     Davidson diagonalization with overlap
     ethr =  2.00E-03,  avg # of iterations =  1.0

     total cpu time spent up to now is       80.8 secs

     total energy              =    -357.73594878 Ry
     estimated scf accuracy    <       5.33566878 Ry

     iteration # 13     ecut=    50.00 Ry     beta= 0.30
     Davidson diagonalization with overlap
     c_bands:  1 eigenvalues not converged
     ethr =  2.00E-03,  avg # of iterations = 13.5

     total cpu time spent up to now is       96.7 secs

     total energy              =    -357.24052619 Ry
     estimated scf accuracy    <      41.84672021 Ry

     iteration # 14     ecut=    50.00 Ry     beta= 0.30
     Davidson diagonalization with overlap
     ethr =  2.00E-03,  avg # of iterations = 12.3

     total cpu time spent up to now is      111.1 secs

     total energy              =    -360.83752017 Ry
     estimated scf accuracy    <       1.39332071 Ry

     iteration # 15     ecut=    50.00 Ry     beta= 0.30
     Davidson diagonalization with overlap
     ethr =  2.00E-03,  avg # of iterations =  1.6

     total cpu time spent up to now is      116.2 secs

     total energy              =    -360.93413331 Ry
     estimated scf accuracy    <       1.06372613 Ry

     iteration # 16     ecut=    50.00 Ry     beta= 0.30
     Davidson diagonalization with overlap
     ethr =  2.00E-03,  avg # of iterations =  1.4

     total cpu time spent up to now is      121.2 secs

     total energy              =    -360.61354931 Ry
     estimated scf accuracy    <       1.07518900 Ry

     iteration # 17     ecut=    50.00 Ry     beta= 0.30
     Davidson diagonalization with overlap
     ethr =  2.00E-03,  avg # of iterations =  7.5

     total cpu time spent up to now is      129.3 secs

     total energy              =    -360.98367678 Ry
     estimated scf accuracy    <       0.27779352 Ry

     iteration # 18     ecut=    50.00 Ry     beta= 0.30
     Davidson diagonalization with overlap
     ethr =  7.72E-04,  avg # of iterations =  2.9

     total cpu time spent up to now is      135.0 secs

     total energy              =    -361.10338025 Ry
     estimated scf accuracy    <       0.47531096 Ry

     iteration # 19     ecut=    50.00 Ry     beta= 0.30
     Davidson diagonalization with overlap
     ethr =  7.72E-04,  avg # of iterations =  2.5

     total cpu time spent up to now is      140.5 secs

     total energy              =    -361.06832106 Ry
     estimated scf accuracy    <       0.83238481 Ry

     iteration # 20     ecut=    50.00 Ry     beta= 0.30
     Davidson diagonalization with overlap
     ethr =  7.72E-04,  avg # of iterations =  1.0

     total cpu time spent up to now is      145.3 secs

     total energy              =    -361.00250446 Ry
     estimated scf accuracy    <       0.71847731 Ry

     iteration # 21     ecut=    50.00 Ry     beta= 0.30
     Davidson diagonalization with overlap
     ethr =  7.72E-04,  avg # of iterations =  1.6

     total cpu time spent up to now is      150.4 secs

     total energy              =    -360.94247760 Ry
     estimated scf accuracy    <       0.52094859 Ry

     iteration # 22     ecut=    50.00 Ry     beta= 0.30
     Davidson diagonalization with overlap
     ethr =  7.72E-04,  avg # of iterations =  2.2

     total cpu time spent up to now is      155.7 secs

     total energy              =    -360.88850590 Ry
     estimated scf accuracy    <       0.32512471 Ry

     iteration # 23     ecut=    50.00 Ry     beta= 0.30
     Davidson diagonalization with overlap
     ethr =  7.72E-04,  avg # of iterations =  8.3

     total cpu time spent up to now is      163.1 secs

     total energy              =    -360.97938532 Ry
     estimated scf accuracy    <       0.11036604 Ry

     iteration # 24     ecut=    50.00 Ry     beta= 0.30
     Davidson diagonalization with overlap
     ethr =  3.07E-04,  avg # of iterations =  2.9

     total cpu time spent up to now is      168.5 secs

     total energy              =    -360.96906183 Ry
     estimated scf accuracy    <       0.14020329 Ry

     iteration # 25     ecut=    50.00 Ry     beta= 0.30
     Davidson diagonalization with overlap
     ethr =  3.07E-04,  avg # of iterations =  1.7

     total cpu time spent up to now is      173.6 secs

     total energy              =    -360.90972570 Ry
     estimated scf accuracy    <       0.09340172 Ry

     iteration # 26     ecut=    50.00 Ry     beta= 0.30
     Davidson diagonalization with overlap
     c_bands:  3 eigenvalues not converged
     c_bands:  1 eigenvalues not converged
     ethr =  2.59E-04,  avg # of iterations = 10.5

     total cpu time spent up to now is      184.4 secs

     total energy              =    -361.01145448 Ry
     estimated scf accuracy    <       0.97163495 Ry

     iteration # 27     ecut=    50.00 Ry     beta= 0.30
     Davidson diagonalization with overlap
     ethr =  2.59E-04,  avg # of iterations =  2.1

     total cpu time spent up to now is      189.8 secs

     total energy              =    -360.73310932 Ry
     estimated scf accuracy    <       0.74659824 Ry

     iteration # 28     ecut=    50.00 Ry     beta= 0.30
     Davidson diagonalization with overlap
     c_bands:  1 eigenvalues not converged
     c_bands:  1 eigenvalues not converged
     c_bands:  1 eigenvalues not converged
     c_bands:  1 eigenvalues not converged
     c_bands:  1 eigenvalues not converged
     c_bands:  1 eigenvalues not converged
     c_bands:  1 eigenvalues not converged
     c_bands:  1 eigenvalues not converged
     c_bands:  1 eigenvalues not converged
     c_bands:  1 eigenvalues not converged
     c_bands:  1 eigenvalues not converged
     c_bands:  2 eigenvalues not converged
     c_bands:  1 eigenvalues not converged
     c_bands:  1 eigenvalues not converged
     c_bands:  1 eigenvalues not converged
     c_bands:  1 eigenvalues not converged
     c_bands:  1 eigenvalues not converged
     c_bands:  1 eigenvalues not converged
     c_bands:  1 eigenvalues not converged
     c_bands:  1 eigenvalues not converged
     c_bands:  1 eigenvalues not converged
     c_bands:  1 eigenvalues not converged
     c_bands:  1 eigenvalues not converged
     c_bands:  1 eigenvalues not converged
     c_bands:  1 eigenvalues not converged
     c_bands:  1 eigenvalues not converged
     c_bands:  1 eigenvalues not converged
     c_bands:  1 eigenvalues not converged
     ethr =  2.59E-04,  avg # of iterations = 16.3

     total cpu time spent up to now is      202.1 secs

     total energy              =    -360.75331717 Ry
     estimated scf accuracy    <       1.98622318 Ry

     iteration # 29     ecut=    50.00 Ry     beta= 0.30
     Davidson diagonalization with overlap
     c_bands:  1 eigenvalues not converged
     c_bands:  1 eigenvalues not converged
     c_bands:  1 eigenvalues not converged
     c_bands:  1 eigenvalues not converged
     c_bands:  1 eigenvalues not converged
     c_bands:  1 eigenvalues not converged
     c_bands:  1 eigenvalues not converged
     c_bands:  1 eigenvalues not converged
     c_bands:  1 eigenvalues not converged
     c_bands:  1 eigenvalues not converged
     ethr =  2.59E-04,  avg # of iterations = 12.9

     total cpu time spent up to now is      213.1 secs

     total energy              =    -361.04524563 Ry
     estimated scf accuracy    <       0.05310388 Ry

     iteration # 30     ecut=    50.00 Ry     beta= 0.30
     Davidson diagonalization with overlap
     c_bands:  2 eigenvalues not converged
     c_bands:  2 eigenvalues not converged
     c_bands:  2 eigenvalues not converged
     ethr =  1.48E-04,  avg # of iterations = 10.8

     total cpu time spent up to now is      224.1 secs

     total energy              =    -361.04723278 Ry
     estimated scf accuracy    <       1.17430631 Ry

     iteration # 31     ecut=    50.00 Ry     beta= 0.30
     Davidson diagonalization with overlap
     ethr =  1.48E-04,  avg # of iterations =  3.5

     total cpu time spent up to now is      230.0 secs

     total energy              =    -361.03254580 Ry
     estimated scf accuracy    <       0.89176035 Ry

     iteration # 32     ecut=    50.00 Ry     beta= 0.30
     Davidson diagonalization with overlap
     ethr =  1.48E-04,  avg # of iterations =  2.2

     total cpu time spent up to now is      235.4 secs

     total energy              =    -360.93947337 Ry
     estimated scf accuracy    <       0.80486914 Ry

     iteration # 33     ecut=    50.00 Ry     beta= 0.30
     Davidson diagonalization with overlap
     ethr =  1.48E-04,  avg # of iterations =  8.6

     total cpu time spent up to now is      244.1 secs

     total energy              =    -360.96409192 Ry
     estimated scf accuracy    <       0.10760007 Ry

     iteration # 34     ecut=    50.00 Ry     beta= 0.30
     Davidson diagonalization with overlap
     ethr =  1.48E-04,  avg # of iterations =  4.4

     total cpu time spent up to now is      250.0 secs

     total energy              =    -360.97401800 Ry
     estimated scf accuracy    <       0.01616936 Ry

     iteration # 35     ecut=    50.00 Ry     beta= 0.30
     Davidson diagonalization with overlap
     ethr =  4.49E-05,  avg # of iterations =  6.7

     total cpu time spent up to now is      256.8 secs

     total energy              =    -360.97902665 Ry
     estimated scf accuracy    <       0.00129551 Ry

     iteration # 36     ecut=    50.00 Ry     beta= 0.30
     Davidson diagonalization with overlap
     c_bands:  3 eigenvalues not converged
     c_bands:  3 eigenvalues not converged
     c_bands:  1 eigenvalues not converged
     c_bands:  1 eigenvalues not converged
     c_bands:  3 eigenvalues not converged
     c_bands:  2 eigenvalues not converged
     c_bands:  1 eigenvalues not converged
     c_bands:  1 eigenvalues not converged
     c_bands:  2 eigenvalues not converged
     c_bands:  2 eigenvalues not converged
     c_bands:  1 eigenvalues not converged
     c_bands:  1 eigenvalues not converged
     c_bands:  1 eigenvalues not converged
     c_bands:  2 eigenvalues not converged
     c_bands:  2 eigenvalues not converged
     c_bands:  1 eigenvalues not converged
     c_bands:  1 eigenvalues not converged
     c_bands:  1 eigenvalues not converged
     c_bands:  1 eigenvalues not converged
     c_bands:  2 eigenvalues not converged
     c_bands:  1 eigenvalues not converged
     c_bands:  3 eigenvalues not converged
     c_bands:  1 eigenvalues not converged
     c_bands:  1 eigenvalues not converged
     c_bands:  1 eigenvalues not converged
     c_bands:  2 eigenvalues not converged
     c_bands:  2 eigenvalues not converged
     c_bands:  2 eigenvalues not converged
     c_bands:  2 eigenvalues not converged
     c_bands:  3 eigenvalues not converged
     c_bands:  1 eigenvalues not converged
     c_bands:  3 eigenvalues not converged
     c_bands:  3 eigenvalues not converged
     c_bands:  3 eigenvalues not converged
     c_bands:  1 eigenvalues not converged
     c_bands:  3 eigenvalues not converged
     c_bands:  1 eigenvalues not converged
     c_bands:  3 eigenvalues not converged
     c_bands:  1 eigenvalues not converged
     c_bands:  3 eigenvalues not converged
     c_bands:  2 eigenvalues not converged
     c_bands:  1 eigenvalues not converged
     c_bands:  1 eigenvalues not converged
     c_bands:  1 eigenvalues not converged
     c_bands:  3 eigenvalues not converged
     c_bands:  1 eigenvalues not converged
     c_bands:  2 eigenvalues not converged
     c_bands:  1 eigenvalues not converged
     c_bands:  3 eigenvalues not converged
     c_bands:  2 eigenvalues not converged
     c_bands:  3 eigenvalues not converged
     c_bands:  2 eigenvalues not converged
     c_bands:  1 eigenvalues not converged
     c_bands:  3 eigenvalues not converged
     c_bands:  2 eigenvalues not converged
     c_bands:  1 eigenvalues not converged
     c_bands:  1 eigenvalues not converged
     c_bands:  2 eigenvalues not converged
     c_bands:  3 eigenvalues not converged
     c_bands:  1 eigenvalues not converged
     ethr =  3.60E-06,  avg # of iterations = 18.8

     total cpu time spent up to now is      273.5 secs

     total energy              =    -360.99201532 Ry
     estimated scf accuracy    <       0.15316533 Ry

     iteration # 37     ecut=    50.00 Ry     beta= 0.30
     Davidson diagonalization with overlap
     c_bands:  1 eigenvalues not converged
     c_bands:  1 eigenvalues not converged
     c_bands:  1 eigenvalues not converged
     c_bands:  1 eigenvalues not converged
     ethr =  3.60E-06,  avg # of iterations =  3.7

     total cpu time spent up to now is      279.2 secs

     total energy              =    -360.99153854 Ry
     estimated scf accuracy    <       0.18352572 Ry

     iteration # 38     ecut=    50.00 Ry     beta= 0.30
     Davidson diagonalization with overlap
     ethr =  3.60E-06,  avg # of iterations =  1.6

     total cpu time spent up to now is      284.3 secs

     total energy              =    -360.97694385 Ry
     estimated scf accuracy    <       0.17936333 Ry

     iteration # 39     ecut=    50.00 Ry     beta= 0.30
     Davidson diagonalization with overlap
     c_bands:  1 eigenvalues not converged
     c_bands:  1 eigenvalues not converged
     c_bands:  1 eigenvalues not converged
     c_bands:  1 eigenvalues not converged
     c_bands:  1 eigenvalues not converged
     c_bands:  1 eigenvalues not converged
     c_bands:  2 eigenvalues not converged
     c_bands:  2 eigenvalues not converged
     c_bands:  2 eigenvalues not converged
     c_bands:  1 eigenvalues not converged
     c_bands:  1 eigenvalues not converged
     c_bands:  1 eigenvalues not converged
     c_bands:  1 eigenvalues not converged
     c_bands:  1 eigenvalues not converged
     c_bands:  1 eigenvalues not converged
     c_bands:  1 eigenvalues not converged
     c_bands:  1 eigenvalues not converged
     c_bands:  1 eigenvalues not converged
     ethr =  3.60E-06,  avg # of iterations = 14.9

     total cpu time spent up to now is      297.0 secs

     total energy              =    -360.98531031 Ry
     estimated scf accuracy    <       0.04692895 Ry

     iteration # 40     ecut=    50.00 Ry     beta= 0.30
     Davidson diagonalization with overlap
     c_bands:  1 eigenvalues not converged
     ethr =  3.60E-06,  avg # of iterations =  8.2

     total cpu time spent up to now is      305.4 secs

     total energy              =    -360.97261952 Ry
     estimated scf accuracy    <       0.09343103 Ry

     iteration # 41     ecut=    50.00 Ry     beta= 0.30
     Davidson diagonalization with overlap
     c_bands:  1 eigenvalues not converged
     c_bands:  1 eigenvalues not converged
     c_bands:  1 eigenvalues not converged
     c_bands:  1 eigenvalues not converged
     c_bands:  1 eigenvalues not converged
     c_bands:  1 eigenvalues not converged
     c_bands:  1 eigenvalues not converged
     c_bands:  2 eigenvalues not converged
     c_bands:  1 eigenvalues not converged
     c_bands:  1 eigenvalues not converged
     c_bands:  2 eigenvalues not converged
     c_bands:  1 eigenvalues not converged
     c_bands:  1 eigenvalues not converged
     c_bands:  1 eigenvalues not converged
     c_bands:  1 eigenvalues not converged
     c_bands:  1 eigenvalues not converged
     c_bands:  1 eigenvalues not converged
     c_bands:  1 eigenvalues not converged
     ethr =  3.60E-06,  avg # of iterations = 14.2

     total cpu time spent up to now is      318.1 secs

     total energy              =    -360.97931364 Ry
     estimated scf accuracy    <       0.00299335 Ry

     iteration # 42     ecut=    50.00 Ry     beta= 0.30
     Davidson diagonalization with overlap
     c_bands:  1 eigenvalues not converged
     ethr =  3.60E-06,  avg # of iterations =  8.1

     total cpu time spent up to now is      326.7 secs

     total energy              =    -360.98034915 Ry
     estimated scf accuracy    <       0.02097429 Ry

     iteration # 43     ecut=    50.00 Ry     beta= 0.30
     Davidson diagonalization with overlap
     ethr =  3.60E-06,  avg # of iterations =  1.1

     total cpu time spent up to now is      331.6 secs

     total energy              =    -360.97487647 Ry
     estimated scf accuracy    <       0.02125217 Ry

     iteration # 44     ecut=    50.00 Ry     beta= 0.30
     Davidson diagonalization with overlap
     c_bands:  2 eigenvalues not converged
     c_bands:  1 eigenvalues not converged
     c_bands:  1 eigenvalues not converged
     c_bands:  1 eigenvalues not converged
     c_bands:  1 eigenvalues not converged
     c_bands:  1 eigenvalues not converged
     c_bands:  1 eigenvalues not converged
     c_bands:  1 eigenvalues not converged
     c_bands:  1 eigenvalues not converged
     c_bands:  1 eigenvalues not converged
     c_bands:  1 eigenvalues not converged
     c_bands:  1 eigenvalues not converged
     c_bands:  1 eigenvalues not converged
     ethr =  3.60E-06,  avg # of iterations = 13.3

     total cpu time spent up to now is      343.6 secs

     total energy              =    -360.97870914 Ry
     estimated scf accuracy    <       0.00528740 Ry

     iteration # 45     ecut=    50.00 Ry     beta= 0.30
     Davidson diagonalization with overlap
     c_bands:  1 eigenvalues not converged
     ethr =  3.60E-06,  avg # of iterations =  2.0

     total cpu time spent up to now is      348.8 secs

     total energy              =    -360.97944080 Ry
     estimated scf accuracy    <       0.00602381 Ry

     iteration # 46     ecut=    50.00 Ry     beta= 0.30
     Davidson diagonalization with overlap
     ethr =  3.60E-06,  avg # of iterations =  1.4

     total cpu time spent up to now is      353.9 secs

     total energy              =    -360.97788596 Ry
     estimated scf accuracy    <       0.00736932 Ry

     iteration # 47     ecut=    50.00 Ry     beta= 0.30
     Davidson diagonalization with overlap
     ethr =  3.60E-06,  avg # of iterations =  3.6

     total cpu time spent up to now is      360.0 secs

     total energy              =    -360.97720613 Ry
     estimated scf accuracy    <       0.00279248 Ry

     iteration # 48     ecut=    50.00 Ry     beta= 0.30
     Davidson diagonalization with overlap
     c_bands:  1 eigenvalues not converged
     c_bands:  1 eigenvalues not converged
     c_bands:  1 eigenvalues not converged
     c_bands:  1 eigenvalues not converged
     c_bands:  1 eigenvalues not converged
     c_bands:  1 eigenvalues not converged
     c_bands:  1 eigenvalues not converged
     c_bands:  1 eigenvalues not converged
     ethr =  3.60E-06,  avg # of iterations =  9.9

     total cpu time spent up to now is      369.7 secs

     total energy              =    -360.97756924 Ry
     estimated scf accuracy    <       0.00849533 Ry

     iteration # 49     ecut=    50.00 Ry     beta= 0.30
     Davidson diagonalization with overlap
     c_bands:  1 eigenvalues not converged
     ethr =  3.60E-06,  avg # of iterations =  8.4

     total cpu time spent up to now is      378.1 secs

     total energy              =    -360.97843760 Ry
     estimated scf accuracy    <       0.00005556 Ry

     iteration # 50     ecut=    50.00 Ry     beta= 0.30
     Davidson diagonalization with overlap
     c_bands:  1 eigenvalues not converged
     c_bands:  3 eigenvalues not converged
     c_bands:  1 eigenvalues not converged
     c_bands:  3 eigenvalues not converged
     c_bands:  3 eigenvalues not converged
     c_bands:  2 eigenvalues not converged
     c_bands:  1 eigenvalues not converged
     c_bands:  3 eigenvalues not converged
     c_bands:  3 eigenvalues not converged
     c_bands:  1 eigenvalues not converged
     c_bands:  1 eigenvalues not converged
     c_bands:  2 eigenvalues not converged
     c_bands:  2 eigenvalues not converged
     c_bands:  3 eigenvalues not converged
     c_bands:  2 eigenvalues not converged
     c_bands:  1 eigenvalues not converged
     c_bands:  2 eigenvalues not converged
     c_bands:  1 eigenvalues not converged
     c_bands:  3 eigenvalues not converged
     c_bands:  1 eigenvalues not converged
     c_bands:  3 eigenvalues not converged
     c_bands:  2 eigenvalues not converged
     c_bands:  2 eigenvalues not converged
     c_bands:  3 eigenvalues not converged
     c_bands:  3 eigenvalues not converged
     c_bands:  2 eigenvalues not converged
     c_bands:  1 eigenvalues not converged
     c_bands:  2 eigenvalues not converged
     c_bands:  2 eigenvalues not converged
     c_bands:  1 eigenvalues not converged
     c_bands:  3 eigenvalues not converged
     c_bands:  3 eigenvalues not converged
     c_bands:  1 eigenvalues not converged
     c_bands:  3 eigenvalues not converged
     c_bands:  1 eigenvalues not converged
     c_bands:  2 eigenvalues not converged
     c_bands:  3 eigenvalues not converged
     c_bands:  2 eigenvalues not converged
     c_bands:  3 eigenvalues not converged
     c_bands:  2 eigenvalues not converged
     c_bands:  2 eigenvalues not converged
     c_bands:  3 eigenvalues not converged
     c_bands:  3 eigenvalues not converged
     c_bands:  3 eigenvalues not converged
     c_bands:  2 eigenvalues not converged
     c_bands:  1 eigenvalues not converged
     c_bands:  2 eigenvalues not converged
     c_bands:  3 eigenvalues not converged
     c_bands:  1 eigenvalues not converged
     c_bands:  2 eigenvalues not converged
     c_bands:  3 eigenvalues not converged
     c_bands:  2 eigenvalues not converged
     c_bands:  3 eigenvalues not converged
     c_bands:  2 eigenvalues not converged
     c_bands:  2 eigenvalues not converged
     c_bands:  2 eigenvalues not converged
     c_bands:  2 eigenvalues not converged
     c_bands:  2 eigenvalues not converged
     c_bands:  3 eigenvalues not converged
     c_bands:  2 eigenvalues not converged
     c_bands:  3 eigenvalues not converged
     c_bands:  1 eigenvalues not converged
     c_bands:  2 eigenvalues not converged
     c_bands:  3 eigenvalues not converged
     c_bands:  2 eigenvalues not converged
     c_bands:  3 eigenvalues not converged
     c_bands:  3 eigenvalues not converged
     c_bands:  3 eigenvalues not converged
     c_bands:  2 eigenvalues not converged
     c_bands:  2 eigenvalues not converged
     c_bands:  2 eigenvalues not converged
     c_bands:  2 eigenvalues not converged
     c_bands:  3 eigenvalues not converged
     c_bands:  2 eigenvalues not converged
     ethr =  1.54E-07,  avg # of iterations = 18.9

     total cpu time spent up to now is      396.1 secs

     total energy              =    -360.97911326 Ry
     estimated scf accuracy    <       0.00885743 Ry

     iteration # 51     ecut=    50.00 Ry     beta= 0.30
     Davidson diagonalization with overlap
     c_bands:  2 eigenvalues not converged
     c_bands:  1 eigenvalues not converged
     c_bands:  1 eigenvalues not converged
     c_bands:  1 eigenvalues not converged
     ethr =  1.54E-07,  avg # of iterations =  6.3

     total cpu time spent up to now is      402.7 secs

     total energy              =    -360.97804057 Ry
     estimated scf accuracy    <       0.01114311 Ry

     iteration # 52     ecut=    50.00 Ry     beta= 0.30
     Davidson diagonalization with overlap
     c_bands:  2 eigenvalues not converged
     c_bands:  3 eigenvalues not converged
     c_bands:  3 eigenvalues not converged
     c_bands:  1 eigenvalues not converged
     c_bands:  1 eigenvalues not converged
     c_bands:  1 eigenvalues not converged
     c_bands:  1 eigenvalues not converged
     c_bands:  1 eigenvalues not converged
     c_bands:  1 eigenvalues not converged
     c_bands:  3 eigenvalues not converged
     c_bands:  1 eigenvalues not converged
     c_bands:  2 eigenvalues not converged
     c_bands:  1 eigenvalues not converged
     c_bands:  1 eigenvalues not converged
     c_bands:  2 eigenvalues not converged
     c_bands:  1 eigenvalues not converged
     c_bands:  3 eigenvalues not converged
     c_bands:  2 eigenvalues not converged
     c_bands:  1 eigenvalues not converged
     c_bands:  2 eigenvalues not converged
     c_bands:  3 eigenvalues not converged
     c_bands:  1 eigenvalues not converged
     c_bands:  3 eigenvalues not converged
     c_bands:  1 eigenvalues not converged
     c_bands:  1 eigenvalues not converged
     c_bands:  2 eigenvalues not converged
     c_bands:  2 eigenvalues not converged
     c_bands:  3 eigenvalues not converged
     ethr =  1.54E-07,  avg # of iterations = 17.3

     total cpu time spent up to now is      417.8 secs

     total energy              =    -360.97852825 Ry
     estimated scf accuracy    <       0.00172131 Ry

     iteration # 53     ecut=    50.00 Ry     beta= 0.30
     Davidson diagonalization with overlap
     c_bands:  1 eigenvalues not converged
     c_bands:  1 eigenvalues not converged
     c_bands:  1 eigenvalues not converged
     c_bands:  1 eigenvalues not converged
     c_bands:  1 eigenvalues not converged
     ethr =  1.54E-07,  avg # of iterations =  7.4

     total cpu time spent up to now is      425.1 secs

     total energy              =    -360.97859149 Ry
     estimated scf accuracy    <       0.00246207 Ry

     iteration # 54     ecut=    50.00 Ry     beta= 0.30
     Davidson diagonalization with overlap
     c_bands:  1 eigenvalues not converged
     ethr =  1.54E-07,  avg # of iterations =  4.5

     total cpu time spent up to now is      431.7 secs

     total energy              =    -360.97834119 Ry
     estimated scf accuracy    <       0.00295144 Ry

     iteration # 55     ecut=    50.00 Ry     beta= 0.30
     Davidson diagonalization with overlap
     c_bands:  2 eigenvalues not converged
     c_bands:  1 eigenvalues not converged
     c_bands:  1 eigenvalues not converged
     c_bands:  1 eigenvalues not converged
     c_bands:  1 eigenvalues not converged
     c_bands:  2 eigenvalues not converged
     c_bands:  1 eigenvalues not converged
     c_bands:  1 eigenvalues not converged
     c_bands:  1 eigenvalues not converged
     ethr =  1.54E-07,  avg # of iterations =  9.6

     total cpu time spent up to now is      440.7 secs

     total energy              =    -360.97817725 Ry
     estimated scf accuracy    <       0.00091861 Ry

     iteration # 56     ecut=    50.00 Ry     beta= 0.30
     Davidson diagonalization with overlap
     c_bands:  2 eigenvalues not converged
     c_bands:  2 eigenvalues not converged
     c_bands:  1 eigenvalues not converged
     c_bands:  1 eigenvalues not converged
     c_bands:  1 eigenvalues not converged
     c_bands:  1 eigenvalues not converged
     c_bands:  1 eigenvalues not converged
     c_bands:  1 eigenvalues not converged
     c_bands:  1 eigenvalues not converged
     c_bands:  1 eigenvalues not converged
     c_bands:  1 eigenvalues not converged
     c_bands:  1 eigenvalues not converged
     c_bands:  2 eigenvalues not converged
     c_bands:  1 eigenvalues not converged
     c_bands:  1 eigenvalues not converged
     c_bands:  2 eigenvalues not converged
     c_bands:  1 eigenvalues not converged
     ethr =  1.54E-07,  avg # of iterations = 15.2

     total cpu time spent up to now is      453.9 secs

     total energy              =    -360.97848390 Ry
     estimated scf accuracy    <       0.00029561 Ry

     iteration # 57     ecut=    50.00 Ry     beta= 0.30
     Davidson diagonalization with overlap
     c_bands:  2 eigenvalues not converged
     c_bands:  1 eigenvalues not converged
     c_bands:  1 eigenvalues not converged
     c_bands:  1 eigenvalues not converged
     c_bands:  1 eigenvalues not converged
     c_bands:  1 eigenvalues not converged
     c_bands:  1 eigenvalues not converged
     c_bands:  1 eigenvalues not converged
     c_bands:  1 eigenvalues not converged
     c_bands:  1 eigenvalues not converged
     c_bands:  1 eigenvalues not converged
     c_bands:  1 eigenvalues not converged
     c_bands:  1 eigenvalues not converged
     ethr =  1.54E-07,  avg # of iterations = 10.9

     total cpu time spent up to now is      464.2 secs

     total energy              =    -360.97820276 Ry
     estimated scf accuracy    <       0.00274365 Ry

     iteration # 58     ecut=    50.00 Ry     beta= 0.30
     Davidson diagonalization with overlap
     c_bands:  1 eigenvalues not converged
     c_bands:  3 eigenvalues not converged
     c_bands:  1 eigenvalues not converged
     c_bands:  1 eigenvalues not converged
     c_bands:  1 eigenvalues not converged
     c_bands:  1 eigenvalues not converged
     c_bands:  1 eigenvalues not converged
     c_bands:  1 eigenvalues not converged
     c_bands:  2 eigenvalues not converged
     c_bands:  1 eigenvalues not converged
     ethr =  1.54E-07,  avg # of iterations = 14.2

     total cpu time spent up to now is      476.8 secs

     total energy              =    -360.97832143 Ry
     estimated scf accuracy    <       0.00014155 Ry

     iteration # 59     ecut=    50.00 Ry     beta= 0.30
     Davidson diagonalization with overlap
     c_bands:  2 eigenvalues not converged
     c_bands:  1 eigenvalues not converged
     c_bands:  1 eigenvalues not converged
     c_bands:  1 eigenvalues not converged
     c_bands:  1 eigenvalues not converged
     c_bands:  1 eigenvalues not converged
     c_bands:  1 eigenvalues not converged
     ethr =  1.54E-07,  avg # of iterations =  9.2

     total cpu time spent up to now is      485.4 secs

     total energy              =    -360.97832865 Ry
     estimated scf accuracy    <       0.00013237 Ry

     iteration # 60     ecut=    50.00 Ry     beta= 0.30
     Davidson diagonalization with overlap
     c_bands:  1 eigenvalues not converged
     c_bands:  1 eigenvalues not converged
     ethr =  1.54E-07,  avg # of iterations =  8.4

     total cpu time spent up to now is      494.0 secs

     total energy              =    -360.97833638 Ry
     estimated scf accuracy    <       0.00009366 Ry

     iteration # 61     ecut=    50.00 Ry     beta= 0.30
     Davidson diagonalization with overlap
     c_bands:  1 eigenvalues not converged
     c_bands:  1 eigenvalues not converged
     ethr =  1.54E-07,  avg # of iterations =  8.6

     total cpu time spent up to now is      502.4 secs

     total energy              =    -360.97834372 Ry
     estimated scf accuracy    <       0.00009211 Ry

     iteration # 62     ecut=    50.00 Ry     beta= 0.30
     Davidson diagonalization with overlap
     ethr =  1.54E-07,  avg # of iterations =  5.3

     total cpu time spent up to now is      508.9 secs

     total energy              =    -360.97835522 Ry
     estimated scf accuracy    <       0.00000265 Ry

     iteration # 63     ecut=    50.00 Ry     beta= 0.30
     Davidson diagonalization with overlap
     c_bands:  1 eigenvalues not converged
     c_bands:  1 eigenvalues not converged
     c_bands:  2 eigenvalues not converged
     c_bands:  1 eigenvalues not converged
     c_bands:  2 eigenvalues not converged
     c_bands:  2 eigenvalues not converged
     ethr =  7.35E-09,  avg # of iterations = 12.3

     total cpu time spent up to now is      519.8 secs

     total energy              =    -360.97835944 Ry
     estimated scf accuracy    <       0.00000085 Ry

     iteration # 64     ecut=    50.00 Ry     beta= 0.30
     Davidson diagonalization with overlap
     c_bands:  1 eigenvalues not converged
     c_bands:  2 eigenvalues not converged
     c_bands:  2 eigenvalues not converged
     c_bands:  1 eigenvalues not converged
     c_bands:  1 eigenvalues not converged
     c_bands:  1 eigenvalues not converged
     c_bands:  1 eigenvalues not converged
     c_bands:  1 eigenvalues not converged
     c_bands:  1 eigenvalues not converged
     c_bands:  1 eigenvalues not converged
     c_bands:  1 eigenvalues not converged
     c_bands:  3 eigenvalues not converged
     c_bands:  1 eigenvalues not converged
     c_bands:  1 eigenvalues not converged
     c_bands:  2 eigenvalues not converged
     c_bands:  1 eigenvalues not converged
     c_bands:  1 eigenvalues not converged
     c_bands:  2 eigenvalues not converged
     c_bands:  1 eigenvalues not converged
     c_bands:  1 eigenvalues not converged
     c_bands:  1 eigenvalues not converged
     ethr =  2.35E-09,  avg # of iterations = 15.8

     total cpu time spent up to now is      534.0 secs

     total energy              =    -360.97836480 Ry
     estimated scf accuracy    <       0.00004188 Ry

     iteration # 65     ecut=    50.00 Ry     beta= 0.30
     Davidson diagonalization with overlap
     c_bands:  1 eigenvalues not converged
     c_bands:  1 eigenvalues not converged
     c_bands:  1 eigenvalues not converged
     ethr =  2.35E-09,  avg # of iterations =  2.9

     total cpu time spent up to now is      539.6 secs

     total energy              =    -360.97836976 Ry
     estimated scf accuracy    <       0.00006405 Ry

     iteration # 66     ecut=    50.00 Ry     beta= 0.30
     Davidson diagonalization with overlap
     c_bands:  1 eigenvalues not converged
     c_bands:  1 eigenvalues not converged
     c_bands:  1 eigenvalues not converged
     c_bands:  1 eigenvalues not converged
     c_bands:  1 eigenvalues not converged
     ethr =  2.35E-09,  avg # of iterations = 10.0

     total cpu time spent up to now is      549.2 secs

     total energy              =    -360.97837066 Ry
     estimated scf accuracy    <       0.00012459 Ry

     iteration # 67     ecut=    50.00 Ry     beta= 0.30
     Davidson diagonalization with overlap
     c_bands:  1 eigenvalues not converged
     c_bands:  1 eigenvalues not converged
     ethr =  2.35E-09,  avg # of iterations =  1.6

     total cpu time spent up to now is      554.2 secs

     total energy              =    -360.97836774 Ry
     estimated scf accuracy    <       0.00013498 Ry

     iteration # 68     ecut=    50.00 Ry     beta= 0.30
     Davidson diagonalization with overlap
     c_bands:  1 eigenvalues not converged
     ethr =  2.35E-09,  avg # of iterations =  3.5

     total cpu time spent up to now is      560.2 secs

     total energy              =    -360.97836100 Ry
     estimated scf accuracy    <       0.00012098 Ry

     iteration # 69     ecut=    50.00 Ry     beta= 0.30
     Davidson diagonalization with overlap
     c_bands:  1 eigenvalues not converged
     c_bands:  1 eigenvalues not converged
     c_bands:  1 eigenvalues not converged
     c_bands:  1 eigenvalues not converged
     c_bands:  1 eigenvalues not converged
     c_bands:  1 eigenvalues not converged
     c_bands:  1 eigenvalues not converged
     c_bands:  1 eigenvalues not converged
     c_bands:  1 eigenvalues not converged
     c_bands:  1 eigenvalues not converged
     ethr =  2.35E-09,  avg # of iterations = 10.8

     total cpu time spent up to now is      570.7 secs

     total energy              =    -360.97836143 Ry
     estimated scf accuracy    <       0.00004607 Ry

     iteration # 70     ecut=    50.00 Ry     beta= 0.30
     Davidson diagonalization with overlap
     c_bands:  1 eigenvalues not converged
     c_bands:  1 eigenvalues not converged
     ethr =  2.35E-09,  avg # of iterations =  3.7

     total cpu time spent up to now is      576.7 secs

     total energy              =    -360.97836211 Ry
     estimated scf accuracy    <       0.00003532 Ry

     iteration # 71     ecut=    50.00 Ry     beta= 0.30
     Davidson diagonalization with overlap
     c_bands:  1 eigenvalues not converged
     ethr =  2.35E-09,  avg # of iterations =  1.2

     total cpu time spent up to now is      581.7 secs

     total energy              =    -360.97835315 Ry
     estimated scf accuracy    <       0.00003363 Ry

     iteration # 72     ecut=    50.00 Ry     beta= 0.30
     Davidson diagonalization with overlap
     c_bands:  4 eigenvalues not converged
     c_bands:  3 eigenvalues not converged
     c_bands:  2 eigenvalues not converged
     c_bands:  3 eigenvalues not converged
     c_bands:  1 eigenvalues not converged
     c_bands:  2 eigenvalues not converged
     c_bands:  1 eigenvalues not converged
     c_bands:  1 eigenvalues not converged
     c_bands:  1 eigenvalues not converged
     c_bands:  1 eigenvalues not converged
     c_bands:  1 eigenvalues not converged
     c_bands:  1 eigenvalues not converged
     c_bands:  1 eigenvalues not converged
     c_bands:  2 eigenvalues not converged
     c_bands:  2 eigenvalues not converged
     c_bands:  2 eigenvalues not converged
     c_bands:  2 eigenvalues not converged
     c_bands:  3 eigenvalues not converged
     c_bands:  1 eigenvalues not converged
     c_bands:  2 eigenvalues not converged
     c_bands:  3 eigenvalues not converged
     c_bands:  1 eigenvalues not converged
     c_bands:  2 eigenvalues not converged
     c_bands:  2 eigenvalues not converged
     c_bands:  1 eigenvalues not converged
     c_bands:  3 eigenvalues not converged
     c_bands:  3 eigenvalues not converged
     c_bands:  1 eigenvalues not converged
     c_bands:  3 eigenvalues not converged
     c_bands:  3 eigenvalues not converged
     c_bands:  2 eigenvalues not converged
     c_bands:  3 eigenvalues not converged
     c_bands:  3 eigenvalues not converged
     c_bands:  1 eigenvalues not converged
     c_bands:  2 eigenvalues not converged
     c_bands:  3 eigenvalues not converged
     c_bands:  1 eigenvalues not converged
     c_bands:  2 eigenvalues not converged
     c_bands:  3 eigenvalues not converged
     c_bands:  2 eigenvalues not converged
     c_bands:  2 eigenvalues not converged
     c_bands:  1 eigenvalues not converged
     c_bands:  3 eigenvalues not converged
     c_bands:  2 eigenvalues not converged
     c_bands:  1 eigenvalues not converged
     c_bands:  3 eigenvalues not converged
     c_bands:  2 eigenvalues not converged
     c_bands:  2 eigenvalues not converged
     c_bands:  2 eigenvalues not converged
     c_bands:  1 eigenvalues not converged
     c_bands:  3 eigenvalues not converged
     c_bands:  1 eigenvalues not converged
     c_bands:  1 eigenvalues not converged
     ethr =  2.35E-09,  avg # of iterations = 18.3

     total cpu time spent up to now is      599.3 secs

     total energy              =    -360.97836209 Ry
     estimated scf accuracy    <       0.00001772 Ry

     iteration # 73     ecut=    50.00 Ry     beta= 0.30
     Davidson diagonalization with overlap
     c_bands:  1 eigenvalues not converged
     c_bands:  1 eigenvalues not converged
     c_bands:  1 eigenvalues not converged
     ethr =  2.35E-09,  avg # of iterations =  4.4

     total cpu time spent up to now is      605.4 secs

     total energy              =    -360.97836160 Ry
     estimated scf accuracy    <       0.00003962 Ry

     iteration # 74     ecut=    50.00 Ry     beta= 0.30
     Davidson diagonalization with overlap
     c_bands:  1 eigenvalues not converged
     ethr =  2.35E-09,  avg # of iterations =  2.9

     total cpu time spent up to now is      611.2 secs

     total energy              =    -360.97835661 Ry
     estimated scf accuracy    <       0.00003151 Ry

     iteration # 75     ecut=    50.00 Ry     beta= 0.30
     Davidson diagonalization with overlap
     c_bands:  2 eigenvalues not converged
     c_bands:  3 eigenvalues not converged
     c_bands:  1 eigenvalues not converged
     c_bands:  1 eigenvalues not converged
     c_bands:  1 eigenvalues not converged
     c_bands:  2 eigenvalues not converged
     c_bands:  1 eigenvalues not converged
     c_bands:  1 eigenvalues not converged
     c_bands:  1 eigenvalues not converged
     c_bands:  1 eigenvalues not converged
     c_bands:  2 eigenvalues not converged
     c_bands:  2 eigenvalues not converged
     c_bands:  1 eigenvalues not converged
     c_bands:  1 eigenvalues not converged
     c_bands:  1 eigenvalues not converged
     c_bands:  3 eigenvalues not converged
     c_bands:  1 eigenvalues not converged
     c_bands:  1 eigenvalues not converged
     c_bands:  1 eigenvalues not converged
     c_bands:  1 eigenvalues not converged
     c_bands:  2 eigenvalues not converged
     c_bands:  1 eigenvalues not converged
     ethr =  2.35E-09,  avg # of iterations = 13.6

     total cpu time spent up to now is      623.3 secs

     total energy              =    -360.97836041 Ry
     estimated scf accuracy    <       0.00000096 Ry

     iteration # 76     ecut=    50.00 Ry     beta= 0.30
     Davidson diagonalization with overlap
     c_bands:  1 eigenvalues not converged
     c_bands:  1 eigenvalues not converged
     ethr =  2.35E-09,  avg # of iterations =  4.7

     total cpu time spent up to now is      629.4 secs

     total energy              =    -360.97836071 Ry
     estimated scf accuracy    <       0.00000473 Ry

     iteration # 77     ecut=    50.00 Ry     beta= 0.30
     Davidson diagonalization with overlap
     ethr =  2.35E-09,  avg # of iterations =  1.2

     total cpu time spent up to now is      634.3 secs

     total energy              =    -360.97836010 Ry
     estimated scf accuracy    <       0.00000465 Ry

     iteration # 78     ecut=    50.00 Ry     beta= 0.30
     Davidson diagonalization with overlap
     ethr =  2.35E-09,  avg # of iterations =  3.5

     total cpu time spent up to now is      640.0 secs

     total energy              =    -360.97836015 Ry
     estimated scf accuracy    <       0.00000174 Ry

     iteration # 79     ecut=    50.00 Ry     beta= 0.30
     Davidson diagonalization with overlap
     ethr =  2.35E-09,  avg # of iterations =  1.6

     total cpu time spent up to now is      645.0 secs

     total energy              =    -360.97836004 Ry
     estimated scf accuracy    <       0.00000145 Ry

     iteration # 80     ecut=    50.00 Ry     beta= 0.30
     Davidson diagonalization with overlap
     ethr =  2.35E-09,  avg # of iterations =  3.3

     total cpu time spent up to now is      650.5 secs

     total energy              =    -360.97836006 Ry
     estimated scf accuracy    <       0.00000053 Ry

     iteration # 81     ecut=    50.00 Ry     beta= 0.30
     Davidson diagonalization with overlap
     c_bands:  1 eigenvalues not converged
     c_bands:  1 eigenvalues not converged
     ethr =  1.47E-09,  avg # of iterations =  6.5

     total cpu time spent up to now is      657.2 secs

     total energy              =    -360.97836022 Ry
     estimated scf accuracy    <       0.00000006 Ry

     iteration # 82     ecut=    50.00 Ry     beta= 0.30
     Davidson diagonalization with overlap
     c_bands:  1 eigenvalues not converged
     c_bands:  1 eigenvalues not converged
     c_bands:  1 eigenvalues not converged
     c_bands:  1 eigenvalues not converged
     c_bands:  1 eigenvalues not converged
     c_bands:  1 eigenvalues not converged
     c_bands:  1 eigenvalues not converged
     c_bands:  1 eigenvalues not converged
     c_bands:  1 eigenvalues not converged
     c_bands:  1 eigenvalues not converged
     c_bands:  1 eigenvalues not converged
     ethr =  1.54E-10,  avg # of iterations =  8.6

     total cpu time spent up to now is      665.2 secs

     total energy              =    -360.97836029 Ry
     estimated scf accuracy    <       0.00000051 Ry

     iteration # 83     ecut=    50.00 Ry     beta= 0.30
     Davidson diagonalization with overlap
     c_bands:  1 eigenvalues not converged
     ethr =  1.54E-10,  avg # of iterations =  1.9

     total cpu time spent up to now is      670.3 secs

     total energy              =    -360.97836023 Ry
     estimated scf accuracy    <       0.00000070 Ry

     iteration # 84     ecut=    50.00 Ry     beta= 0.30
     Davidson diagonalization with overlap
     c_bands:  1 eigenvalues not converged
     ethr =  1.54E-10,  avg # of iterations =  3.4

     total cpu time spent up to now is      676.0 secs

     total energy              =    -360.97836029 Ry
     estimated scf accuracy    <       0.00000042 Ry

     iteration # 85     ecut=    50.00 Ry     beta= 0.30
     Davidson diagonalization with overlap
     ethr =  1.54E-10,  avg # of iterations =  1.5

     total cpu time spent up to now is      680.9 secs

     total energy              =    -360.97836039 Ry
     estimated scf accuracy    <       0.00000052 Ry

     iteration # 86     ecut=    50.00 Ry     beta= 0.30
     Davidson diagonalization with overlap
     c_bands:  1 eigenvalues not converged
     c_bands:  1 eigenvalues not converged
     c_bands:  1 eigenvalues not converged
     c_bands:  1 eigenvalues not converged
     c_bands:  1 eigenvalues not converged
     c_bands:  1 eigenvalues not converged
     c_bands:  1 eigenvalues not converged
     c_bands:  1 eigenvalues not converged
     c_bands:  1 eigenvalues not converged
     ethr =  1.54E-10,  avg # of iterations =  8.9

     total cpu time spent up to now is      689.8 secs

     total energy              =    -360.97836041 Ry
     estimated scf accuracy    <       0.00000253 Ry

     iteration # 87     ecut=    50.00 Ry     beta= 0.30
     Davidson diagonalization with overlap
     c_bands:  1 eigenvalues not converged
     c_bands:  1 eigenvalues not converged
     ethr =  1.54E-10,  avg # of iterations =  1.6

     total cpu time spent up to now is      694.7 secs

     total energy              =    -360.97836066 Ry
     estimated scf accuracy    <       0.00000265 Ry

     iteration # 88     ecut=    50.00 Ry     beta= 0.30
     Davidson diagonalization with overlap
     c_bands:  1 eigenvalues not converged
     c_bands:  1 eigenvalues not converged
     c_bands:  1 eigenvalues not converged
     c_bands:  1 eigenvalues not converged
     c_bands:  1 eigenvalues not converged
     c_bands:  1 eigenvalues not converged
     ethr =  1.54E-10,  avg # of iterations =  8.8

     total cpu time spent up to now is      703.3 secs

     total energy              =    -360.97836096 Ry
     estimated scf accuracy    <       0.00000574 Ry

     iteration # 89     ecut=    50.00 Ry     beta= 0.30
     Davidson diagonalization with overlap
     c_bands:  1 eigenvalues not converged
     c_bands:  1 eigenvalues not converged
     c_bands:  1 eigenvalues not converged
     c_bands:  1 eigenvalues not converged
     c_bands:  1 eigenvalues not converged
     c_bands:  1 eigenvalues not converged
     ethr =  1.54E-10,  avg # of iterations =  8.5

     total cpu time spent up to now is      711.2 secs

     total energy              =    -360.97836072 Ry
     estimated scf accuracy    <       0.00000935 Ry

     iteration # 90     ecut=    50.00 Ry     beta= 0.30
     Davidson diagonalization with overlap
     c_bands:  1 eigenvalues not converged
     ethr =  1.54E-10,  avg # of iterations =  5.7

     total cpu time spent up to now is      717.7 secs

     total energy              =    -360.97835944 Ry
     estimated scf accuracy    <       0.00000770 Ry

     iteration # 91     ecut=    50.00 Ry     beta= 0.30
     Davidson diagonalization with overlap
     c_bands:  4 eigenvalues not converged
     c_bands:  3 eigenvalues not converged
     c_bands:  3 eigenvalues not converged
     c_bands:  3 eigenvalues not converged
     c_bands:  1 eigenvalues not converged
     c_bands:  2 eigenvalues not converged
     c_bands:  3 eigenvalues not converged
     c_bands:  3 eigenvalues not converged
     c_bands:  2 eigenvalues not converged
     c_bands:  4 eigenvalues not converged
     c_bands:  1 eigenvalues not converged
     c_bands:  2 eigenvalues not converged
     c_bands:  3 eigenvalues not converged
     c_bands:  2 eigenvalues not converged
     c_bands:  2 eigenvalues not converged
     c_bands:  2 eigenvalues not converged
     c_bands:  1 eigenvalues not converged
     c_bands:  3 eigenvalues not converged
     c_bands:  2 eigenvalues not converged
     c_bands:  1 eigenvalues not converged
     c_bands:  1 eigenvalues not converged
     c_bands:  2 eigenvalues not converged
     c_bands:  2 eigenvalues not converged
     c_bands:  3 eigenvalues not converged
     c_bands:  3 eigenvalues not converged
     c_bands:  3 eigenvalues not converged
     c_bands:  2 eigenvalues not converged
     c_bands:  2 eigenvalues not converged
     c_bands:  2 eigenvalues not converged
     c_bands:  3 eigenvalues not converged
     c_bands:  3 eigenvalues not converged
     c_bands:  2 eigenvalues not converged
     c_bands:  3 eigenvalues not converged
     c_bands:  2 eigenvalues not converged
     c_bands:  3 eigenvalues not converged
     c_bands:  2 eigenvalues not converged
     c_bands:  3 eigenvalues not converged
     c_bands:  3 eigenvalues not converged
     c_bands:  3 eigenvalues not converged
     c_bands:  3 eigenvalues not converged
     c_bands:  2 eigenvalues not converged
     c_bands:  3 eigenvalues not converged
     c_bands:  1 eigenvalues not converged
     c_bands:  2 eigenvalues not converged
     c_bands:  1 eigenvalues not converged
     c_bands:  3 eigenvalues not converged
     c_bands:  2 eigenvalues not converged
     c_bands:  2 eigenvalues not converged
     c_bands:  1 eigenvalues not converged
     c_bands:  1 eigenvalues not converged
     c_bands:  2 eigenvalues not converged
     c_bands:  2 eigenvalues not converged
     c_bands:  2 eigenvalues not converged
     c_bands:  2 eigenvalues not converged
     c_bands:  1 eigenvalues not converged
     c_bands:  2 eigenvalues not converged
     c_bands:  3 eigenvalues not converged
     c_bands:  2 eigenvalues not converged
     c_bands:  1 eigenvalues not converged
     ethr =  1.54E-10,  avg # of iterations = 18.7

     total cpu time spent up to now is      735.0 secs

     total energy              =    -360.97836017 Ry
     estimated scf accuracy    <       0.00000003 Ry

     iteration # 92     ecut=    50.00 Ry     beta= 0.30
     Davidson diagonalization with overlap
     c_bands:  2 eigenvalues not converged
     c_bands:  1 eigenvalues not converged
     c_bands:  1 eigenvalues not converged
     c_bands:  1 eigenvalues not converged
     c_bands:  1 eigenvalues not converged
     c_bands:  1 eigenvalues not converged
     c_bands:  1 eigenvalues not converged
     c_bands:  1 eigenvalues not converged
     c_bands:  1 eigenvalues not converged
     ethr =  9.00E-11,  avg # of iterations = 11.5

     total cpu time spent up to now is      745.4 secs

     total energy              =    -360.97836022 Ry
     estimated scf accuracy    <       0.00000024 Ry

     iteration # 93     ecut=    50.00 Ry     beta= 0.30
     Davidson diagonalization with overlap
     c_bands:  1 eigenvalues not converged
     c_bands:  1 eigenvalues not converged
     c_bands:  1 eigenvalues not converged
     c_bands:  1 eigenvalues not converged
     ethr =  9.00E-11,  avg # of iterations =  2.6

     total cpu time spent up to now is      750.6 secs

     total energy              =    -360.97836021 Ry
     estimated scf accuracy    <       0.00000011 Ry

     iteration # 94     ecut=    50.00 Ry     beta= 0.30
     Davidson diagonalization with overlap
     c_bands:  1 eigenvalues not converged
     c_bands:  1 eigenvalues not converged
     c_bands:  1 eigenvalues not converged
     c_bands:  1 eigenvalues not converged
     c_bands:  1 eigenvalues not converged
     c_bands:  1 eigenvalues not converged
     c_bands:  1 eigenvalues not converged
     ethr =  9.00E-11,  avg # of iterations =  9.6

     total cpu time spent up to now is      759.7 secs

     total energy              =    -360.97836023 Ry
     estimated scf accuracy    <       0.00000010 Ry

     iteration # 95     ecut=    50.00 Ry     beta= 0.30
     Davidson diagonalization with overlap
     ethr =  9.00E-11,  avg # of iterations =  2.8

     total cpu time spent up to now is      765.2 secs

     total energy              =    -360.97836024 Ry
     estimated scf accuracy    <       0.00000006 Ry

     iteration # 96     ecut=    50.00 Ry     beta= 0.30
     Davidson diagonalization with overlap
     ethr =  9.00E-11,  avg # of iterations =  1.1

     total cpu time spent up to now is      770.0 secs

     total energy              =    -360.97836024 Ry
     estimated scf accuracy    <       0.00000006 Ry

     iteration # 97     ecut=    50.00 Ry     beta= 0.30
     Davidson diagonalization with overlap
     ethr =  9.00E-11,  avg # of iterations =  1.5

     total cpu time spent up to now is      775.0 secs

     total energy              =    -360.97836024 Ry
     estimated scf accuracy    <       0.00000005 Ry

     iteration # 98     ecut=    50.00 Ry     beta= 0.30
     Davidson diagonalization with overlap
     ethr =  9.00E-11,  avg # of iterations =  1.1

     total cpu time spent up to now is      779.8 secs

     total energy              =    -360.97836024 Ry
     estimated scf accuracy    <       0.00000004 Ry

     iteration # 99     ecut=    50.00 Ry     beta= 0.30
     Davidson diagonalization with overlap
     ethr =  9.00E-11,  avg # of iterations =  1.2

     total cpu time spent up to now is      784.6 secs

     total energy              =    -360.97836024 Ry
     estimated scf accuracy    <       0.00000004 Ry

     iteration #100     ecut=    50.00 Ry     beta= 0.30
     Davidson diagonalization with overlap
     ethr =  9.00E-11,  avg # of iterations =  1.2

     total cpu time spent up to now is      789.5 secs

     total energy              =    -360.97836024 Ry
     estimated scf accuracy    <       0.00000003 Ry

     End of self-consistent calculation

     convergence NOT achieved after 100 iterations: stopping

     Writing config to output data dir ./ZnO_ANN.save/

     init_run     :      3.63s CPU      3.71s WALL (       1 calls)
     electrons    :    772.99s CPU    785.30s WALL (       1 calls)

     Called by init_run:
     wfcinit      :      2.77s CPU      2.81s WALL (       1 calls)
     potinit      :      0.27s CPU      0.28s WALL (       1 calls)
     hinit0       :      0.51s CPU      0.52s WALL (       1 calls)

     Called by electrons:
     c_bands      :    687.54s CPU    698.10s WALL (     100 calls)
     sum_band     :     76.72s CPU     78.25s WALL (     100 calls)
     v_of_rho     :      1.93s CPU      2.06s WALL (     101 calls)
     newd         :      6.34s CPU      6.39s WALL (     101 calls)
     mix_rho      :      0.31s CPU      0.35s WALL (     100 calls)

     Called by c_bands:
     init_us_2    :      5.11s CPU      5.18s WALL (   22512 calls)
     init_us_2:cp :      5.04s CPU      5.12s WALL (   22512 calls)
     cegterg      :    669.21s CPU    679.54s WALL (   11200 calls)

     Called by *egterg:
     cdiaghg      :     80.05s CPU     80.72s WALL (   82685 calls)
     h_psi        :    374.33s CPU    381.77s WALL (   82797 calls)
     s_psi        :     37.33s CPU     37.71s WALL (   82797 calls)
     g_psi        :      1.34s CPU      1.36s WALL (   71485 calls)

     Called by h_psi:
     h_psi:calbec :     54.12s CPU     55.55s WALL (   82797 calls)
     vloc_psi     :    281.37s CPU    286.99s WALL (   82797 calls)
     add_vuspsi   :     37.59s CPU     37.99s WALL (   82797 calls)

     General routines
     calbec       :     71.20s CPU     73.06s WALL (   93997 calls)
     fft          :      1.92s CPU      2.11s WALL (    1313 calls)
     ffts         :      0.16s CPU      0.17s WALL (     201 calls)
     fftw         :    293.46s CPU    299.40s WALL ( 1417396 calls)
     interpolate  :      0.23s CPU      0.24s WALL (     101 calls)
     davcio       :      0.00s CPU      0.01s WALL (     130 calls)

     Parallel routines

     PWSCF        :  12m57.10s CPU  13m 9.52s WALL


   This run was terminated on:  16: 9:48  23Jun2025            

=------------------------------------------------------------------------------=
   JOB DONE.
=------------------------------------------------------------------------------=
STOP 2
STOP 2
STOP 2
STOP 2
STOP 2
STOP 2
STOP 2
STOP 2
--------------------------------------------------------------------------
Primary job  terminated normally, but 1 process returned
a non-zero exit code. Per user-direction, the job has been aborted.
--------------------------------------------------------------------------
--------------------------------------------------------------------------
mpirun detected that one or more processes exited with non-zero status, thus causing
the job to be terminated. The first process to do so was:

  Process name: [[34571,1],4]
  Exit code:    2
--------------------------------------------------------------------------
