
     Program PWSCF v.7.2 starts on 23Jun2025 at 17: 2:43 

     This program is part of the open-source Quantum ESPRESSO suite
     for quantum simulation of materials; please cite
         "P. Giannozzi et al., J. Phys.:Condens. Matter 21 395502 (2009);
         "P. Giannozzi et al., J. Phys.:Condens. Matter 29 465901 (2017);
         "P. Giannozzi et al., J. Chem. Phys. 152 154105 (2020);
          URL http://www.quantum-espresso.org", 
     in publications or presentations arising from this work. More details at
     http://www.quantum-espresso.org/quote

     Parallel version (MPI), running on     8 processors

     MPI processes distributed on     1 nodes
     90785 MiB available memory on the printing compute node when the environment starts

     Reading input from /home/jvc/QEspresso7.2/ZnO_DataBase/scfs_rnd025.in/scf-6.55-1.68-2.in

     Current dimensions of program PWSCF are:
     Max number of different atomic species (ntypx) = 10
     Max number of k-points (npk) =  40000
     Max angular momentum in pseudopotentials (lmaxx) =  4
     file Zn.upf: wavefunction(s)  3D renormalized

     R & G space division:  proc/nbgrp/npool/nimage =       8
     Subspace diagonalization in iterative solution of the eigenvalue problem:
     a serial algorithm will be used


     Parallelization info
     --------------------
     sticks:   dense  smooth     PW     G-vecs:    dense   smooth      PW
     Min         147      72     22                 6891     2432     401
     Max         148      73     25                 6893     2441     402
     Sum        1177     583    187                55139    19507    3213

     Using Slab Decomposition



     bravais-lattice index     =            4
     lattice parameter (alat)  =       6.5496  a.u.
     unit-cell volume          =     408.5060 (a.u.)^3
     number of atoms/cell      =            4
     number of atomic types    =            2
     number of electrons       =        36.00
     number of Kohn-Sham states=           18
     kinetic-energy cutoff     =      50.0000  Ry
     charge density cutoff     =     400.0000  Ry
     scf convergence threshold =      1.0E-08
     mixing beta               =       0.3000
     number of iterations used =            8  plain     mixing
     Exchange-correlation= PBE
                           (   1   4   3   4   0   0   0)

     celldm(1)=   6.549551  celldm(2)=   0.000000  celldm(3)=   1.678933
     celldm(4)=   0.000000  celldm(5)=   0.000000  celldm(6)=   0.000000

     crystal axes: (cart. coord. in units of alat)
               a(1) = (   1.000000   0.000000   0.000000 )  
               a(2) = (  -0.500000   0.866025   0.000000 )  
               a(3) = (   0.000000   0.000000   1.678933 )  

     reciprocal axes: (cart. coord. in units 2 pi/alat)
               b(1) = (  1.000000  0.577350 -0.000000 )  
               b(2) = (  0.000000  1.154701  0.000000 )  
               b(3) = (  0.000000 -0.000000  0.595616 )  


     PseudoPot. # 1 for Zn read from file:
     ./pseudos/Zn.upf
     MD5 check sum: 7f56cabf9682ed8c977c2f7d0c5985c5
     Pseudo is Ultrasoft + core correction, Zval = 12.0
     Generated using &quot;atomic&quot; code by A. Dal Corso  v.6.2.2
     Using radial grid of 1201 points,  6 beta functions with: 
                l(1) =   0
                l(2) =   0
                l(3) =   1
                l(4) =   1
                l(5) =   2
                l(6) =   2
     Q(r) pseudized with 0 coefficients 


     PseudoPot. # 2 for O  read from file:
     ./pseudos/O.upf
     MD5 check sum: 91400c9766925bcf19f520983a725ff0
     Pseudo is Ultrasoft + core correction, Zval =  6.0
     Generated using &quot;atomic&quot; code by A. Dal Corso  v.6.3MaX
     Using radial grid of 1095 points,  4 beta functions with: 
                l(1) =   0
                l(2) =   0
                l(3) =   1
                l(4) =   1
     Q(r) pseudized with 0 coefficients 


     atomic species   valence    mass     pseudopotential
        Zn            12.00    63.38000     Zn( 1.00)
        O              6.00    15.99900     O ( 1.00)

     No symmetry found



   Cartesian axes

     site n.     atom                  positions (alat units)
         1           Zn  tau(   1) = (   0.3508545   0.1239763   1.1106273  )
         2           Zn  tau(   2) = (  -0.0440759   0.4247960   0.0532135  )
         3           O   tau(   3) = (   0.4833716   0.2738709   1.4220705  )
         4           O   tau(   4) = (  -0.0767906   0.3691287   0.9179711  )

     number of k points=   112

     Number of k-points >= 100: set verbosity='high' to print them.

     Dense  grid:    55139 G-vectors     FFT dimensions: (  45,  45,  72)

     Smooth grid:    19507 G-vectors     FFT dimensions: (  30,  30,  50)

     Estimated max dynamical RAM per process >      37.23 MB

     Estimated total dynamical RAM >     297.80 MB

     Check: negative core charge=   -0.000002

     Initial potential from superposition of free atoms

     starting charge      35.9925, renormalised to      36.0000
     Starting wfcs are   26 randomized atomic wfcs

     total cpu time spent up to now is        4.6 secs

     Self-consistent Calculation

     iteration #  1     ecut=    50.00 Ry     beta= 0.30
     Davidson diagonalization with overlap
     ethr =  1.00E-02,  avg # of iterations =  2.0

     total cpu time spent up to now is       11.1 secs

     total energy              =    -360.35883528 Ry
     estimated scf accuracy    <       1.56049716 Ry

     iteration #  2     ecut=    50.00 Ry     beta= 0.30
     Davidson diagonalization with overlap
     ethr =  4.33E-03,  avg # of iterations =  3.7

     total cpu time spent up to now is       18.6 secs

     total energy              =    -360.62226545 Ry
     estimated scf accuracy    <       0.10873109 Ry

     iteration #  3     ecut=    50.00 Ry     beta= 0.30
     Davidson diagonalization with overlap
     ethr =  3.02E-04,  avg # of iterations = 11.1

     total cpu time spent up to now is       34.5 secs

     total energy              =    -360.71061810 Ry
     estimated scf accuracy    <       0.41837476 Ry

     iteration #  4     ecut=    50.00 Ry     beta= 0.30
     Davidson diagonalization with overlap
     ethr =  3.02E-04,  avg # of iterations =  6.6

     total cpu time spent up to now is       43.9 secs

     total energy              =    -360.74664925 Ry
     estimated scf accuracy    <       0.02489977 Ry

     iteration #  5     ecut=    50.00 Ry     beta= 0.30
     Davidson diagonalization with overlap
     ethr =  6.92E-05,  avg # of iterations =  9.3

     total cpu time spent up to now is       55.5 secs

     total energy              =    -360.74760181 Ry
     estimated scf accuracy    <       0.03487685 Ry

     iteration #  6     ecut=    50.00 Ry     beta= 0.30
     Davidson diagonalization with overlap
     ethr =  6.92E-05,  avg # of iterations =  7.7

     total cpu time spent up to now is       66.7 secs

     total energy              =    -360.75351972 Ry
     estimated scf accuracy    <       0.03395731 Ry

     iteration #  7     ecut=    50.00 Ry     beta= 0.30
     Davidson diagonalization with overlap
     ethr =  6.92E-05,  avg # of iterations =  4.9

     total cpu time spent up to now is       74.5 secs

     total energy              =    -360.75852577 Ry
     estimated scf accuracy    <       0.00064935 Ry

     iteration #  8     ecut=    50.00 Ry     beta= 0.30
     Davidson diagonalization with overlap
     c_bands:  2 eigenvalues not converged
     c_bands:  3 eigenvalues not converged
     c_bands:  1 eigenvalues not converged
     ethr =  1.80E-06,  avg # of iterations = 12.0

     total cpu time spent up to now is       91.6 secs

     total energy              =    -360.75958416 Ry
     estimated scf accuracy    <       0.00680395 Ry

     iteration #  9     ecut=    50.00 Ry     beta= 0.30
     Davidson diagonalization with overlap
     ethr =  1.80E-06,  avg # of iterations =  9.1

     total cpu time spent up to now is      104.9 secs

     total energy              =    -360.76046173 Ry
     estimated scf accuracy    <       0.00006265 Ry

     iteration # 10     ecut=    50.00 Ry     beta= 0.30
     Davidson diagonalization with overlap
     c_bands:  1 eigenvalues not converged
     c_bands:  3 eigenvalues not converged
     c_bands:  1 eigenvalues not converged
     c_bands:  2 eigenvalues not converged
     c_bands:  2 eigenvalues not converged
     c_bands:  2 eigenvalues not converged
     c_bands:  2 eigenvalues not converged
     c_bands:  1 eigenvalues not converged
     c_bands:  1 eigenvalues not converged
     c_bands:  1 eigenvalues not converged
     c_bands:  1 eigenvalues not converged
     ethr =  1.74E-07,  avg # of iterations = 13.0

     total cpu time spent up to now is      119.5 secs

     total energy              =    -360.76052422 Ry
     estimated scf accuracy    <       0.00039595 Ry

     iteration # 11     ecut=    50.00 Ry     beta= 0.30
     Davidson diagonalization with overlap
     ethr =  1.74E-07,  avg # of iterations =  6.6

     total cpu time spent up to now is      127.8 secs

     total energy              =    -360.76051419 Ry
     estimated scf accuracy    <       0.00009628 Ry

     iteration # 12     ecut=    50.00 Ry     beta= 0.30
     Davidson diagonalization with overlap
     ethr =  1.74E-07,  avg # of iterations =  6.1

     total cpu time spent up to now is      136.2 secs

     total energy              =    -360.76053554 Ry
     estimated scf accuracy    <       0.00000200 Ry

     iteration # 13     ecut=    50.00 Ry     beta= 0.30
     Davidson diagonalization with overlap
     c_bands:  1 eigenvalues not converged
     c_bands:  1 eigenvalues not converged
     c_bands:  3 eigenvalues not converged
     c_bands:  1 eigenvalues not converged
     c_bands:  1 eigenvalues not converged
     c_bands:  4 eigenvalues not converged
     c_bands:  3 eigenvalues not converged
     c_bands:  2 eigenvalues not converged
     c_bands:  1 eigenvalues not converged
     c_bands:  1 eigenvalues not converged
     c_bands:  1 eigenvalues not converged
     c_bands:  2 eigenvalues not converged
     c_bands:  2 eigenvalues not converged
     c_bands:  2 eigenvalues not converged
     ethr =  5.56E-09,  avg # of iterations = 12.5

     total cpu time spent up to now is      152.1 secs

     total energy              =    -360.76053992 Ry
     estimated scf accuracy    <       0.00003441 Ry

     iteration # 14     ecut=    50.00 Ry     beta= 0.30
     Davidson diagonalization with overlap
     ethr =  5.56E-09,  avg # of iterations =  7.4

     total cpu time spent up to now is      161.7 secs

     total energy              =    -360.76053705 Ry
     estimated scf accuracy    <       0.00001150 Ry

     iteration # 15     ecut=    50.00 Ry     beta= 0.30
     Davidson diagonalization with overlap
     c_bands:  2 eigenvalues not converged
     c_bands:  1 eigenvalues not converged
     ethr =  5.56E-09,  avg # of iterations = 10.8

     total cpu time spent up to now is      175.0 secs

     total energy              =    -360.76053955 Ry
     estimated scf accuracy    <       0.00000041 Ry

     iteration # 16     ecut=    50.00 Ry     beta= 0.30
     Davidson diagonalization with overlap
     ethr =  1.14E-09,  avg # of iterations =  4.4

     total cpu time spent up to now is      181.9 secs

     total energy              =    -360.76053953 Ry
     estimated scf accuracy    <       0.00000040 Ry

     iteration # 17     ecut=    50.00 Ry     beta= 0.30
     Davidson diagonalization with overlap
     ethr =  1.11E-09,  avg # of iterations =  2.4

     total cpu time spent up to now is      188.3 secs

     total energy              =    -360.76053953 Ry
     estimated scf accuracy    <       0.00000014 Ry

     iteration # 18     ecut=    50.00 Ry     beta= 0.30
     Davidson diagonalization with overlap
     ethr =  3.97E-10,  avg # of iterations =  7.3

     total cpu time spent up to now is      197.0 secs

     End of self-consistent calculation

     Number of k-points >= 100: set verbosity='high' to print the bands.

     highest occupied level (ev):     5.3097

!    total energy              =    -360.76053957 Ry
     estimated scf accuracy    <          7.4E-09 Ry

     The total energy is the sum of the following terms:
     one-electron contribution =    -239.16717329 Ry
     hartree contribution      =     156.36463989 Ry
     xc contribution           =    -109.57225049 Ry
     ewald contribution        =    -168.38575569 Ry

     convergence has been achieved in  18 iterations

     Forces acting on atoms (cartesian axes, Ry/au):

     atom    1 type  1   force =    -0.58181397   -0.76517445   -1.58215691
     atom    2 type  1   force =    -0.00214730   -0.00579119    0.01603505
     atom    3 type  2   force =     0.61951069    0.72601553    1.65191116
     atom    4 type  2   force =    -0.03554941    0.04495010   -0.08578929
     The non-local contrib.  to forces
     atom    1 type  1   force =    -0.03889563   -0.50955248   -0.42043077
     atom    2 type  1   force =     0.15199081    0.17211074    0.19657167
     atom    3 type  2   force =    -0.30109308   -0.36717175    0.14614588
     atom    4 type  2   force =     0.44642831   -0.11977584    0.21522817
     The ionic contribution  to forces
     atom    1 type  1   force =    -3.65739778   -9.45392300  -25.77356268
     atom    2 type  1   force =     0.49708863    1.39258608   22.39875994
     atom    3 type  2   force =     5.59783280    6.45258517   16.73775845
     atom    4 type  2   force =    -2.43752366    1.60875175  -13.36295571
     The local contribution  to forces
     atom    1 type  1   force =     3.06696884    9.09982102   24.45074471
     atom    2 type  1   force =    -0.64395252   -1.56035789  -22.55919237
     atom    3 type  2   force =    -4.67702047   -5.35954755  -15.22308335
     atom    4 type  2   force =     1.95934869   -1.44470004   13.06290120
     The core correction contribution to forces
     atom    1 type  1   force =     0.04753993    0.09854686    0.16108335
     atom    2 type  1   force =    -0.00731372   -0.01014308   -0.02022056
     atom    3 type  2   force =    -0.00019972    0.00013577   -0.00903000
     atom    4 type  2   force =    -0.00381151    0.00066678   -0.00087908
     The Hubbard contrib.    to forces
     atom    1 type  1   force =     0.00000000    0.00000000    0.00000000
     atom    2 type  1   force =     0.00000000    0.00000000    0.00000000
     atom    3 type  2   force =     0.00000000    0.00000000    0.00000000
     atom    4 type  2   force =     0.00000000    0.00000000    0.00000000
     The SCF correction term to forces
     atom    1 type  1   force =    -0.00002825   -0.00007599    0.00005134
     atom    2 type  1   force =     0.00004058    0.00000383    0.00015924
     atom    3 type  2   force =    -0.00000775    0.00000476    0.00016305
     atom    4 type  2   force =     0.00000984   -0.00000168   -0.00004100

     Total force =     2.660425     Total SCF correction =     0.000254

     Writing all to output data dir ./ZnO_ANN.save/

     init_run     :      3.98s CPU      4.10s WALL (       1 calls)
     electrons    :    189.75s CPU    192.43s WALL (       1 calls)
     forces       :      1.29s CPU      1.29s WALL (       1 calls)

     Called by init_run:
     wfcinit      :      3.09s CPU      3.16s WALL (       1 calls)
     potinit      :      0.30s CPU      0.30s WALL (       1 calls)
     hinit0       :      0.50s CPU      0.52s WALL (       1 calls)

     Called by electrons:
     c_bands      :    172.48s CPU    174.81s WALL (      18 calls)
     sum_band     :     15.58s CPU     15.87s WALL (      18 calls)
     v_of_rho     :      0.36s CPU      0.39s WALL (      19 calls)
     newd         :      1.32s CPU      1.35s WALL (      19 calls)
     mix_rho      :      0.05s CPU      0.06s WALL (      18 calls)

     Called by c_bands:
     init_us_2    :      1.07s CPU      1.09s WALL (    4256 calls)
     init_us_2:cp :      1.06s CPU      1.08s WALL (    4256 calls)
     cegterg      :    168.81s CPU    171.08s WALL (    2016 calls)

     Called by *egterg:
     cdiaghg      :     17.87s CPU     18.00s WALL (   17364 calls)
     h_psi        :     95.48s CPU     97.19s WALL (   17476 calls)
     s_psi        :      9.65s CPU      9.73s WALL (   17476 calls)
     g_psi        :      0.35s CPU      0.36s WALL (   15348 calls)

     Called by h_psi:
     h_psi:calbec :     13.68s CPU     14.04s WALL (   17476 calls)
     vloc_psi     :     71.89s CPU     73.17s WALL (   17476 calls)
     add_vuspsi   :      9.61s CPU      9.68s WALL (   17476 calls)

     General routines
     calbec       :     17.96s CPU     18.39s WALL (   19940 calls)
     fft          :      0.53s CPU      0.58s WALL (     256 calls)
     ffts         :      0.12s CPU      0.12s WALL (      37 calls)
     fftw         :     73.17s CPU     74.48s WALL (  309806 calls)
     interpolate  :      0.13s CPU      0.14s WALL (      19 calls)

     Parallel routines

     PWSCF        :   3m15.72s CPU   3m18.80s WALL


   This run was terminated on:  17: 6: 2  23Jun2025            

=------------------------------------------------------------------------------=
   JOB DONE.
=------------------------------------------------------------------------------=
Note: The following floating-point exceptions are signalling: IEEE_INVALID_FLAG
