
     Program PWSCF v.7.2 starts on 23Jun2025 at 15:54:15 

     This program is part of the open-source Quantum ESPRESSO suite
     for quantum simulation of materials; please cite
         "P. Giannozzi et al., J. Phys.:Condens. Matter 21 395502 (2009);
         "P. Giannozzi et al., J. Phys.:Condens. Matter 29 465901 (2017);
         "P. Giannozzi et al., J. Chem. Phys. 152 154105 (2020);
          URL http://www.quantum-espresso.org", 
     in publications or presentations arising from this work. More details at
     http://www.quantum-espresso.org/quote

     Parallel version (MPI), running on     8 processors

     MPI processes distributed on     1 nodes
     90959 MiB available memory on the printing compute node when the environment starts

     Reading input from /home/jvc/QEspresso7.2/ZnO_DataBase/scfs_rnd025.in/scf-6.43-1.55-5.in

     Current dimensions of program PWSCF are:
     Max number of different atomic species (ntypx) = 10
     Max number of k-points (npk) =  40000
     Max angular momentum in pseudopotentials (lmaxx) =  4
     file Zn.upf: wavefunction(s)  3D renormalized

     R & G space division:  proc/nbgrp/npool/nimage =       8
     Subspace diagonalization in iterative solution of the eigenvalue problem:
     a serial algorithm will be used


     Parallelization info
     --------------------
     sticks:   dense  smooth     PW     G-vecs:    dense   smooth      PW
     Min         143      71     20                 6027     2127     350
     Max         144      73     21                 6030     2130     357
     Sum        1147     571    163                48225    17031    2815

     Using Slab Decomposition



     bravais-lattice index     =            4
     lattice parameter (alat)  =       6.4260  a.u.
     unit-cell volume          =     356.1384 (a.u.)^3
     number of atoms/cell      =            4
     number of atomic types    =            2
     number of electrons       =        36.00
     number of Kohn-Sham states=           18
     kinetic-energy cutoff     =      50.0000  Ry
     charge density cutoff     =     400.0000  Ry
     scf convergence threshold =      1.0E-08
     mixing beta               =       0.3000
     number of iterations used =            8  plain     mixing
     Exchange-correlation= PBE
                           (   1   4   3   4   0   0   0)

     celldm(1)=   6.425974  celldm(2)=   0.000000  celldm(3)=   1.549784
     celldm(4)=   0.000000  celldm(5)=   0.000000  celldm(6)=   0.000000

     crystal axes: (cart. coord. in units of alat)
               a(1) = (   1.000000   0.000000   0.000000 )  
               a(2) = (  -0.500000   0.866025   0.000000 )  
               a(3) = (   0.000000   0.000000   1.549784 )  

     reciprocal axes: (cart. coord. in units 2 pi/alat)
               b(1) = (  1.000000  0.577350 -0.000000 )  
               b(2) = (  0.000000  1.154701  0.000000 )  
               b(3) = (  0.000000 -0.000000  0.645251 )  


     PseudoPot. # 1 for Zn read from file:
     ./pseudos/Zn.upf
     MD5 check sum: 7f56cabf9682ed8c977c2f7d0c5985c5
     Pseudo is Ultrasoft + core correction, Zval = 12.0
     Generated using &quot;atomic&quot; code by A. Dal Corso  v.6.2.2
     Using radial grid of 1201 points,  6 beta functions with: 
                l(1) =   0
                l(2) =   0
                l(3) =   1
                l(4) =   1
                l(5) =   2
                l(6) =   2
     Q(r) pseudized with 0 coefficients 


     PseudoPot. # 2 for O  read from file:
     ./pseudos/O.upf
     MD5 check sum: 91400c9766925bcf19f520983a725ff0
     Pseudo is Ultrasoft + core correction, Zval =  6.0
     Generated using &quot;atomic&quot; code by A. Dal Corso  v.6.3MaX
     Using radial grid of 1095 points,  4 beta functions with: 
                l(1) =   0
                l(2) =   0
                l(3) =   1
                l(4) =   1
     Q(r) pseudized with 0 coefficients 


     atomic species   valence    mass     pseudopotential
        Zn            12.00    63.38000     Zn( 1.00)
        O              6.00    15.99900     O ( 1.00)

     No symmetry found



   Cartesian axes

     site n.     atom                  positions (alat units)
         1           Zn  tau(   1) = (   0.3500188   0.4433284   0.9990703  )
         2           Zn  tau(   2) = (   0.0251697   0.5862200   0.0423380  )
         3           O   tau(   3) = (   0.6569965   0.2837497   1.2303819  )
         4           O   tau(   4) = (  -0.1329624   0.6718992   0.8834574  )

     number of k points=   112

     Number of k-points >= 100: set verbosity='high' to print them.

     Dense  grid:    48225 G-vectors     FFT dimensions: (  45,  45,  64)

     Smooth grid:    17031 G-vectors     FFT dimensions: (  30,  30,  45)

     Estimated max dynamical RAM per process >      32.95 MB

     Estimated total dynamical RAM >     263.62 MB

     Check: negative core charge=   -0.000002

     Initial potential from superposition of free atoms

     starting charge      35.9925, renormalised to      36.0000
     Starting wfcs are   26 randomized atomic wfcs

     total cpu time spent up to now is        4.1 secs

     Self-consistent Calculation

     iteration #  1     ecut=    50.00 Ry     beta= 0.30
     Davidson diagonalization with overlap
     ethr =  1.00E-02,  avg # of iterations =  2.0

     total cpu time spent up to now is        9.6 secs

     total energy              =    -360.48595292 Ry
     estimated scf accuracy    <       1.57833201 Ry

     iteration #  2     ecut=    50.00 Ry     beta= 0.30
     Davidson diagonalization with overlap
     ethr =  4.38E-03,  avg # of iterations =  5.2

     total cpu time spent up to now is       16.9 secs

     total energy              =    -360.88880681 Ry
     estimated scf accuracy    <       0.05535480 Ry

     iteration #  3     ecut=    50.00 Ry     beta= 0.30
     Davidson diagonalization with overlap
     c_bands:  2 eigenvalues not converged
     c_bands:  1 eigenvalues not converged
     c_bands:  1 eigenvalues not converged
     c_bands:  2 eigenvalues not converged
     c_bands:  1 eigenvalues not converged
     c_bands:  2 eigenvalues not converged
     c_bands:  1 eigenvalues not converged
     ethr =  1.54E-04,  avg # of iterations = 11.9

     total cpu time spent up to now is       30.6 secs

     total energy              =    -360.89173894 Ry
     estimated scf accuracy    <       0.22912699 Ry

     iteration #  4     ecut=    50.00 Ry     beta= 0.30
     Davidson diagonalization with overlap
     c_bands:  1 eigenvalues not converged
     ethr =  1.54E-04,  avg # of iterations = 11.9

     total cpu time spent up to now is       42.2 secs

     total energy              =    -360.94730417 Ry
     estimated scf accuracy    <       0.08367505 Ry

     iteration #  5     ecut=    50.00 Ry     beta= 0.30
     Davidson diagonalization with overlap
     ethr =  1.54E-04,  avg # of iterations =  2.8

     total cpu time spent up to now is       47.8 secs

     total energy              =    -360.93460722 Ry
     estimated scf accuracy    <       0.02821919 Ry

     iteration #  6     ecut=    50.00 Ry     beta= 0.30
     Davidson diagonalization with overlap
     c_bands:  1 eigenvalues not converged
     c_bands:  1 eigenvalues not converged
     c_bands:  1 eigenvalues not converged
     c_bands:  1 eigenvalues not converged
     ethr =  7.84E-05,  avg # of iterations = 12.2

     total cpu time spent up to now is       59.8 secs

     total energy              =    -360.94806218 Ry
     estimated scf accuracy    <       0.16719383 Ry

     iteration #  7     ecut=    50.00 Ry     beta= 0.30
     Davidson diagonalization with overlap
     ethr =  7.84E-05,  avg # of iterations =  6.3

     total cpu time spent up to now is       67.1 secs

     total energy              =    -360.94934086 Ry
     estimated scf accuracy    <       0.03494840 Ry

     iteration #  8     ecut=    50.00 Ry     beta= 0.30
     Davidson diagonalization with overlap
     ethr =  7.84E-05,  avg # of iterations =  3.6

     total cpu time spent up to now is       73.3 secs

     total energy              =    -360.95006998 Ry
     estimated scf accuracy    <       0.00954516 Ry

     iteration #  9     ecut=    50.00 Ry     beta= 0.30
     Davidson diagonalization with overlap
     ethr =  2.65E-05,  avg # of iterations =  9.6

     total cpu time spent up to now is       82.9 secs

     total energy              =    -360.95727249 Ry
     estimated scf accuracy    <       0.01063417 Ry

     iteration # 10     ecut=    50.00 Ry     beta= 0.30
     Davidson diagonalization with overlap
     ethr =  2.65E-05,  avg # of iterations =  1.1

     total cpu time spent up to now is       87.8 secs

     total energy              =    -360.95340241 Ry
     estimated scf accuracy    <       0.00851782 Ry

     iteration # 11     ecut=    50.00 Ry     beta= 0.30
     Davidson diagonalization with overlap
     ethr =  2.37E-05,  avg # of iterations =  7.4

     total cpu time spent up to now is       96.2 secs

     total energy              =    -360.95663330 Ry
     estimated scf accuracy    <       0.00391496 Ry

     iteration # 12     ecut=    50.00 Ry     beta= 0.30
     Davidson diagonalization with overlap
     ethr =  1.09E-05,  avg # of iterations =  1.6

     total cpu time spent up to now is      101.4 secs

     total energy              =    -360.95603518 Ry
     estimated scf accuracy    <       0.00328849 Ry

     iteration # 13     ecut=    50.00 Ry     beta= 0.30
     Davidson diagonalization with overlap
     ethr =  9.13E-06,  avg # of iterations =  2.6

     total cpu time spent up to now is      107.1 secs

     total energy              =    -360.95601402 Ry
     estimated scf accuracy    <       0.00087977 Ry

     iteration # 14     ecut=    50.00 Ry     beta= 0.30
     Davidson diagonalization with overlap
     c_bands:  1 eigenvalues not converged
     ethr =  2.44E-06,  avg # of iterations =  7.9

     total cpu time spent up to now is      115.9 secs

     total energy              =    -360.95647959 Ry
     estimated scf accuracy    <       0.00046773 Ry

     iteration # 15     ecut=    50.00 Ry     beta= 0.30
     Davidson diagonalization with overlap
     ethr =  1.30E-06,  avg # of iterations =  1.5

     total cpu time spent up to now is      121.0 secs

     total energy              =    -360.95642011 Ry
     estimated scf accuracy    <       0.00028790 Ry

     iteration # 16     ecut=    50.00 Ry     beta= 0.30
     Davidson diagonalization with overlap
     ethr =  8.00E-07,  avg # of iterations =  5.1

     total cpu time spent up to now is      127.7 secs

     total energy              =    -360.95648438 Ry
     estimated scf accuracy    <       0.00000275 Ry

     iteration # 17     ecut=    50.00 Ry     beta= 0.30
     Davidson diagonalization with overlap
     c_bands:  2 eigenvalues not converged
     c_bands:  1 eigenvalues not converged
     c_bands:  2 eigenvalues not converged
     c_bands:  2 eigenvalues not converged
     c_bands:  3 eigenvalues not converged
     c_bands:  1 eigenvalues not converged
     c_bands:  1 eigenvalues not converged
     c_bands:  1 eigenvalues not converged
     c_bands:  1 eigenvalues not converged
     c_bands:  1 eigenvalues not converged
     c_bands:  1 eigenvalues not converged
     c_bands:  1 eigenvalues not converged
     c_bands:  1 eigenvalues not converged
     c_bands:  1 eigenvalues not converged
     c_bands:  2 eigenvalues not converged
     c_bands:  1 eigenvalues not converged
     c_bands:  1 eigenvalues not converged
     c_bands:  1 eigenvalues not converged
     c_bands:  3 eigenvalues not converged
     ethr =  7.64E-09,  avg # of iterations = 14.6

     total cpu time spent up to now is      143.9 secs

     total energy              =    -360.95650097 Ry
     estimated scf accuracy    <       0.00002231 Ry

     iteration # 18     ecut=    50.00 Ry     beta= 0.30
     Davidson diagonalization with overlap
     c_bands:  1 eigenvalues not converged
     ethr =  7.64E-09,  avg # of iterations =  3.1

     total cpu time spent up to now is      149.4 secs

     total energy              =    -360.95649211 Ry
     estimated scf accuracy    <       0.00001954 Ry

     iteration # 19     ecut=    50.00 Ry     beta= 0.30
     Davidson diagonalization with overlap
     c_bands:  2 eigenvalues not converged
     c_bands:  1 eigenvalues not converged
     c_bands:  2 eigenvalues not converged
     c_bands:  1 eigenvalues not converged
     c_bands:  4 eigenvalues not converged
     c_bands:  1 eigenvalues not converged
     c_bands:  1 eigenvalues not converged
     c_bands:  1 eigenvalues not converged
     c_bands:  1 eigenvalues not converged
     c_bands:  1 eigenvalues not converged
     c_bands:  1 eigenvalues not converged
     ethr =  7.64E-09,  avg # of iterations = 14.3

     total cpu time spent up to now is      164.6 secs

     total energy              =    -360.95650073 Ry
     estimated scf accuracy    <       0.00001723 Ry

     iteration # 20     ecut=    50.00 Ry     beta= 0.30
     Davidson diagonalization with overlap
     ethr =  7.64E-09,  avg # of iterations =  1.4

     total cpu time spent up to now is      169.4 secs

     total energy              =    -360.95649791 Ry
     estimated scf accuracy    <       0.00001484 Ry

     iteration # 21     ecut=    50.00 Ry     beta= 0.30
     Davidson diagonalization with overlap
     ethr =  7.64E-09,  avg # of iterations =  6.1

     total cpu time spent up to now is      177.8 secs

     total energy              =    -360.95649841 Ry
     estimated scf accuracy    <       0.00000334 Ry

     iteration # 22     ecut=    50.00 Ry     beta= 0.30
     Davidson diagonalization with overlap
     ethr =  7.64E-09,  avg # of iterations =  3.3

     total cpu time spent up to now is      183.4 secs

     total energy              =    -360.95649818 Ry
     estimated scf accuracy    <       0.00000100 Ry

     iteration # 23     ecut=    50.00 Ry     beta= 0.30
     Davidson diagonalization with overlap
     c_bands:  1 eigenvalues not converged
     c_bands:  1 eigenvalues not converged
     c_bands:  1 eigenvalues not converged
     ethr =  2.79E-09,  avg # of iterations = 11.2

     total cpu time spent up to now is      194.1 secs

     total energy              =    -360.95649879 Ry
     estimated scf accuracy    <       0.00000279 Ry

     iteration # 24     ecut=    50.00 Ry     beta= 0.30
     Davidson diagonalization with overlap
     ethr =  2.79E-09,  avg # of iterations =  2.7

     total cpu time spent up to now is      199.6 secs

     total energy              =    -360.95649863 Ry
     estimated scf accuracy    <       0.00000138 Ry

     iteration # 25     ecut=    50.00 Ry     beta= 0.30
     Davidson diagonalization with overlap
     ethr =  2.79E-09,  avg # of iterations =  6.4

     total cpu time spent up to now is      206.7 secs

     total energy              =    -360.95649888 Ry
     estimated scf accuracy    <       0.00000004 Ry

     iteration # 26     ecut=    50.00 Ry     beta= 0.30
     Davidson diagonalization with overlap
     c_bands:  2 eigenvalues not converged
     c_bands:  1 eigenvalues not converged
     c_bands:  2 eigenvalues not converged
     c_bands:  1 eigenvalues not converged
     c_bands:  1 eigenvalues not converged
     c_bands:  1 eigenvalues not converged
     c_bands:  2 eigenvalues not converged
     c_bands:  1 eigenvalues not converged
     c_bands:  1 eigenvalues not converged
     c_bands:  1 eigenvalues not converged
     c_bands:  2 eigenvalues not converged
     c_bands:  2 eigenvalues not converged
     c_bands:  1 eigenvalues not converged
     c_bands:  1 eigenvalues not converged
     c_bands:  1 eigenvalues not converged
     c_bands:  2 eigenvalues not converged
     c_bands:  1 eigenvalues not converged
     c_bands:  1 eigenvalues not converged
     c_bands:  1 eigenvalues not converged
     c_bands:  1 eigenvalues not converged
     c_bands:  1 eigenvalues not converged
     c_bands:  1 eigenvalues not converged
     c_bands:  1 eigenvalues not converged
     c_bands:  1 eigenvalues not converged
     c_bands:  1 eigenvalues not converged
     c_bands:  1 eigenvalues not converged
     c_bands:  3 eigenvalues not converged
     ethr =  1.19E-10,  avg # of iterations = 16.3

     total cpu time spent up to now is      223.6 secs

     total energy              =    -360.95649885 Ry
     estimated scf accuracy    <       0.00000133 Ry

     iteration # 27     ecut=    50.00 Ry     beta= 0.30
     Davidson diagonalization with overlap
     c_bands:  1 eigenvalues not converged
     c_bands:  1 eigenvalues not converged
     c_bands:  1 eigenvalues not converged
     c_bands:  1 eigenvalues not converged
     c_bands:  1 eigenvalues not converged
     c_bands:  1 eigenvalues not converged
     ethr =  1.19E-10,  avg # of iterations = 14.3

     total cpu time spent up to now is      237.3 secs

     total energy              =    -360.95649895 Ry
     estimated scf accuracy    <       0.00000007 Ry

     iteration # 28     ecut=    50.00 Ry     beta= 0.30
     Davidson diagonalization with overlap
     ethr =  1.19E-10,  avg # of iterations =  1.1

     total cpu time spent up to now is      242.2 secs

     total energy              =    -360.95649894 Ry
     estimated scf accuracy    <       0.00000006 Ry

     iteration # 29     ecut=    50.00 Ry     beta= 0.30
     Davidson diagonalization with overlap
     ethr =  1.19E-10,  avg # of iterations =  2.8

     total cpu time spent up to now is      248.0 secs

     total energy              =    -360.95649894 Ry
     estimated scf accuracy    <       0.00000002 Ry

     iteration # 30     ecut=    50.00 Ry     beta= 0.30
     Davidson diagonalization with overlap
     ethr =  5.80E-11,  avg # of iterations =  4.0

     total cpu time spent up to now is      254.2 secs

     End of self-consistent calculation

     Number of k-points >= 100: set verbosity='high' to print the bands.

     highest occupied level (ev):     7.5670

!    total energy              =    -360.95649894 Ry
     estimated scf accuracy    <          5.5E-09 Ry

     The total energy is the sum of the following terms:
     one-electron contribution =    -215.53454249 Ry
     hartree contribution      =     146.76895095 Ry
     xc contribution           =    -109.56392382 Ry
     ewald contribution        =    -182.62698358 Ry

     convergence has been achieved in  30 iterations

     Forces acting on atoms (cartesian axes, Ry/au):

     atom    1 type  1   force =    -0.65528997    0.32011090   -0.56624564
     atom    2 type  1   force =    -0.03115160    0.03001285    0.05346540
     atom    3 type  2   force =     0.64602896   -0.41608144    0.70309540
     atom    4 type  2   force =     0.04041261    0.06595770   -0.19031516
     The non-local contrib.  to forces
     atom    1 type  1   force =    -0.38218316    0.19602904   -0.36127896
     atom    2 type  1   force =     0.15159699   -0.06887341    0.14547613
     atom    3 type  2   force =    -0.57502665    0.37857903    0.32142638
     atom    4 type  2   force =     0.28594426   -0.30373889   -0.10029059
     The ionic contribution  to forces
     atom    1 type  1   force =    -6.82224766    2.51155114  -19.63646492
     atom    2 type  1   force =     0.19444827    1.23396927   23.66284752
     atom    3 type  2   force =     7.65389958   -6.65045227    9.01393826
     atom    4 type  2   force =    -1.02610019    2.90493187  -13.04032086
     The local contribution  to forces
     atom    1 type  1   force =     6.46846467   -2.35160352   19.35457088
     atom    2 type  1   force =    -0.36808127   -1.13315439  -23.73280406
     atom    3 type  2   force =    -6.43477395    5.85685781   -8.62591938
     atom    4 type  2   force =     0.78333635   -2.53764334   12.94780609
     The core correction contribution to forces
     atom    1 type  1   force =     0.08071260   -0.03586566    0.07694124
     atom    2 type  1   force =    -0.00913747   -0.00193069   -0.02217459
     atom    3 type  2   force =     0.00193242   -0.00104382   -0.00643437
     atom    4 type  2   force =    -0.00278080    0.00240593    0.00254497
     The Hubbard contrib.    to forces
     atom    1 type  1   force =     0.00000000    0.00000000    0.00000000
     atom    2 type  1   force =     0.00000000    0.00000000    0.00000000
     atom    3 type  2   force =     0.00000000    0.00000000    0.00000000
     atom    4 type  2   force =     0.00000000    0.00000000    0.00000000
     The SCF correction term to forces
     atom    1 type  1   force =    -0.00004255    0.00000418    0.00000210
     atom    2 type  1   force =     0.00001575    0.00000634    0.00013639
     atom    3 type  2   force =    -0.00000857   -0.00001792    0.00010049
     atom    4 type  2   force =     0.00000686    0.00000640   -0.00003879

     Total force =     1.408639     Total SCF correction =     0.000181

     Writing all to output data dir ./ZnO_ANN.save/

     init_run     :      3.49s CPU      3.60s WALL (       1 calls)
     electrons    :    246.36s CPU    250.16s WALL (       1 calls)
     forces       :      1.11s CPU      1.13s WALL (       1 calls)

     Called by init_run:
     wfcinit      :      2.73s CPU      2.80s WALL (       1 calls)
     potinit      :      0.26s CPU      0.26s WALL (       1 calls)
     hinit0       :      0.42s CPU      0.43s WALL (       1 calls)

     Called by electrons:
     c_bands      :    220.80s CPU    224.11s WALL (      30 calls)
     sum_band     :     23.05s CPU     23.48s WALL (      30 calls)
     v_of_rho     :      0.52s CPU      0.56s WALL (      31 calls)
     newd         :      1.91s CPU      1.94s WALL (      31 calls)
     mix_rho      :      0.09s CPU      0.09s WALL (      30 calls)

     Called by c_bands:
     init_us_2    :      1.46s CPU      1.48s WALL (    6944 calls)
     init_us_2:cp :      1.44s CPU      1.46s WALL (    6944 calls)
     cegterg      :    215.55s CPU    218.78s WALL (    3360 calls)

     Called by *egterg:
     cdiaghg      :     24.20s CPU     24.40s WALL (   25124 calls)
     h_psi        :    120.67s CPU    123.02s WALL (   25236 calls)
     s_psi        :     10.97s CPU     11.07s WALL (   25236 calls)
     g_psi        :      0.43s CPU      0.43s WALL (   21764 calls)

     Called by h_psi:
     h_psi:calbec :     17.42s CPU     17.87s WALL (   25236 calls)
     vloc_psi     :     91.90s CPU     93.69s WALL (   25236 calls)
     add_vuspsi   :     10.97s CPU     11.09s WALL (   25236 calls)

     General routines
     calbec       :     23.14s CPU     23.74s WALL (   29044 calls)
     fft          :      0.75s CPU      0.81s WALL (     412 calls)
     ffts         :      0.12s CPU      0.12s WALL (      61 calls)
     fftw         :     96.33s CPU     98.19s WALL (  457086 calls)
     interpolate  :      0.14s CPU      0.14s WALL (      31 calls)

     Parallel routines

     PWSCF        :   4m11.70s CPU   4m15.89s WALL


   This run was terminated on:  15:58:31  23Jun2025            

=------------------------------------------------------------------------------=
   JOB DONE.
=------------------------------------------------------------------------------=
Note: The following floating-point exceptions are signalling: IEEE_INVALID_FLAG
