
     Program PWSCF v.7.2 starts on 23Jun2025 at 13:32: 3 

     This program is part of the open-source Quantum ESPRESSO suite
     for quantum simulation of materials; please cite
         "P. Giannozzi et al., J. Phys.:Condens. Matter 21 395502 (2009);
         "P. Giannozzi et al., J. Phys.:Condens. Matter 29 465901 (2017);
         "P. Giannozzi et al., J. Chem. Phys. 152 154105 (2020);
          URL http://www.quantum-espresso.org", 
     in publications or presentations arising from this work. More details at
     http://www.quantum-espresso.org/quote

     Parallel version (MPI), running on     8 processors

     MPI processes distributed on     1 nodes
     91119 MiB available memory on the printing compute node when the environment starts

     Reading input from /home/jvc/QEspresso7.2/ZnO_DataBase/scfs_rnd025.in/scf-5.93-1.74-3.in

     Current dimensions of program PWSCF are:
     Max number of different atomic species (ntypx) = 10
     Max number of k-points (npk) =  40000
     Max angular momentum in pseudopotentials (lmaxx) =  4
     file Zn.upf: wavefunction(s)  3D renormalized

     R & G space division:  proc/nbgrp/npool/nimage =       8
     Subspace diagonalization in iterative solution of the eigenvalue problem:
     a serial algorithm will be used


     Parallelization info
     --------------------
     sticks:   dense  smooth     PW     G-vecs:    dense   smooth      PW
     Min         119      61     18                 5311     1889     322
     Max         120      63     19                 5322     1892     327
     Sum         955     499    151                42527    15125    2599

     Using Slab Decomposition



     bravais-lattice index     =            4
     lattice parameter (alat)  =       5.9317  a.u.
     unit-cell volume          =     315.1265 (a.u.)^3
     number of atoms/cell      =            4
     number of atomic types    =            2
     number of electrons       =        36.00
     number of Kohn-Sham states=           18
     kinetic-energy cutoff     =      50.0000  Ry
     charge density cutoff     =     400.0000  Ry
     scf convergence threshold =      1.0E-08
     mixing beta               =       0.3000
     number of iterations used =            8  plain     mixing
     Exchange-correlation= PBE
                           (   1   4   3   4   0   0   0)

     celldm(1)=   5.931669  celldm(2)=   0.000000  celldm(3)=   1.743507
     celldm(4)=   0.000000  celldm(5)=   0.000000  celldm(6)=   0.000000

     crystal axes: (cart. coord. in units of alat)
               a(1) = (   1.000000   0.000000   0.000000 )  
               a(2) = (  -0.500000   0.866025   0.000000 )  
               a(3) = (   0.000000   0.000000   1.743507 )  

     reciprocal axes: (cart. coord. in units 2 pi/alat)
               b(1) = (  1.000000  0.577350 -0.000000 )  
               b(2) = (  0.000000  1.154701  0.000000 )  
               b(3) = (  0.000000 -0.000000  0.573557 )  


     PseudoPot. # 1 for Zn read from file:
     ./pseudos/Zn.upf
     MD5 check sum: 7f56cabf9682ed8c977c2f7d0c5985c5
     Pseudo is Ultrasoft + core correction, Zval = 12.0
     Generated using &quot;atomic&quot; code by A. Dal Corso  v.6.2.2
     Using radial grid of 1201 points,  6 beta functions with: 
                l(1) =   0
                l(2) =   0
                l(3) =   1
                l(4) =   1
                l(5) =   2
                l(6) =   2
     Q(r) pseudized with 0 coefficients 


     PseudoPot. # 2 for O  read from file:
     ./pseudos/O.upf
     MD5 check sum: 91400c9766925bcf19f520983a725ff0
     Pseudo is Ultrasoft + core correction, Zval =  6.0
     Generated using &quot;atomic&quot; code by A. Dal Corso  v.6.3MaX
     Using radial grid of 1095 points,  4 beta functions with: 
                l(1) =   0
                l(2) =   0
                l(3) =   1
                l(4) =   1
     Q(r) pseudized with 0 coefficients 


     atomic species   valence    mass     pseudopotential
        Zn            12.00    63.38000     Zn( 1.00)
        O              6.00    15.99900     O ( 1.00)

     No symmetry found



   Cartesian axes

     site n.     atom                  positions (alat units)
         1           Zn  tau(   1) = (   0.3512601   0.3088110   0.5680511  )
         2           Zn  tau(   2) = (   0.1885998   0.3958120  -0.0894885  )
         3           O   tau(   3) = (   0.4652286   0.2620101   1.8060286  )
         4           O   tau(   4) = (  -0.1348223   0.5536804   0.4071519  )

     number of k points=   112

     Number of k-points >= 100: set verbosity='high' to print them.

     Dense  grid:    42527 G-vectors     FFT dimensions: (  40,  40,  72)

     Smooth grid:    15125 G-vectors     FFT dimensions: (  27,  27,  48)

     Estimated max dynamical RAM per process >      29.48 MB

     Estimated total dynamical RAM >     235.81 MB

     Check: negative core charge=   -0.000002

     Initial potential from superposition of free atoms

     starting charge      35.9925, renormalised to      36.0000
     Starting wfcs are   26 randomized atomic wfcs

     total cpu time spent up to now is        3.9 secs

     Self-consistent Calculation

     iteration #  1     ecut=    50.00 Ry     beta= 0.30
     Davidson diagonalization with overlap
     ethr =  1.00E-02,  avg # of iterations =  2.6

     total cpu time spent up to now is        9.7 secs

     total energy              =    -358.76203881 Ry
     estimated scf accuracy    <       1.87520498 Ry

     iteration #  2     ecut=    50.00 Ry     beta= 0.30
     Davidson diagonalization with overlap
     ethr =  5.21E-03,  avg # of iterations =  3.1

     total cpu time spent up to now is       15.5 secs

     total energy              =    -358.93893597 Ry
     estimated scf accuracy    <       0.21390969 Ry

     iteration #  3     ecut=    50.00 Ry     beta= 0.30
     Davidson diagonalization with overlap
     ethr =  5.94E-04,  avg # of iterations = 10.3

     total cpu time spent up to now is       28.4 secs

     total energy              =    -359.23045928 Ry
     estimated scf accuracy    <       0.78162098 Ry

     iteration #  4     ecut=    50.00 Ry     beta= 0.30
     Davidson diagonalization with overlap
     ethr =  5.94E-04,  avg # of iterations =  1.5

     total cpu time spent up to now is       33.2 secs

     total energy              =    -358.78800909 Ry
     estimated scf accuracy    <       0.54846770 Ry

     iteration #  5     ecut=    50.00 Ry     beta= 0.30
     Davidson diagonalization with overlap
     ethr =  5.94E-04,  avg # of iterations = 10.2

     total cpu time spent up to now is       50.6 secs

     total energy              =    -359.22663381 Ry
     estimated scf accuracy    <       2.44500995 Ry

     iteration #  6     ecut=    50.00 Ry     beta= 0.30
     Davidson diagonalization with overlap
     ethr =  5.94E-04,  avg # of iterations =  5.3

     total cpu time spent up to now is       59.0 secs

     total energy              =    -359.25311203 Ry
     estimated scf accuracy    <       0.86705139 Ry

     iteration #  7     ecut=    50.00 Ry     beta= 0.30
     Davidson diagonalization with overlap
     ethr =  5.94E-04,  avg # of iterations =  1.8

     total cpu time spent up to now is       64.0 secs

     total energy              =    -359.11501719 Ry
     estimated scf accuracy    <       0.66549063 Ry

     iteration #  8     ecut=    50.00 Ry     beta= 0.30
     Davidson diagonalization with overlap
     ethr =  5.94E-04,  avg # of iterations =  5.2

     total cpu time spent up to now is       70.9 secs

     total energy              =    -359.15648061 Ry
     estimated scf accuracy    <       0.09987023 Ry

     iteration #  9     ecut=    50.00 Ry     beta= 0.30
     Davidson diagonalization with overlap
     ethr =  2.77E-04,  avg # of iterations =  3.4

     total cpu time spent up to now is       76.8 secs

     total energy              =    -359.16562799 Ry
     estimated scf accuracy    <       0.01892973 Ry

     iteration # 10     ecut=    50.00 Ry     beta= 0.30
     Davidson diagonalization with overlap
     ethr =  5.26E-05,  avg # of iterations =  8.8

     total cpu time spent up to now is       88.1 secs

     total energy              =    -359.18457728 Ry
     estimated scf accuracy    <       0.02026605 Ry

     iteration # 11     ecut=    50.00 Ry     beta= 0.30
     Davidson diagonalization with overlap
     ethr =  5.26E-05,  avg # of iterations =  1.0

     total cpu time spent up to now is       92.6 secs

     total energy              =    -359.18021430 Ry
     estimated scf accuracy    <       0.01682127 Ry

     iteration # 12     ecut=    50.00 Ry     beta= 0.30
     Davidson diagonalization with overlap
     ethr =  4.67E-05,  avg # of iterations =  2.2

     total cpu time spent up to now is       97.9 secs

     total energy              =    -359.18078861 Ry
     estimated scf accuracy    <       0.00488609 Ry

     iteration # 13     ecut=    50.00 Ry     beta= 0.30
     Davidson diagonalization with overlap
     ethr =  1.36E-05,  avg # of iterations =  4.7

     total cpu time spent up to now is      104.0 secs

     total energy              =    -359.18109702 Ry
     estimated scf accuracy    <       0.00131111 Ry

     iteration # 14     ecut=    50.00 Ry     beta= 0.30
     Davidson diagonalization with overlap
     c_bands:  1 eigenvalues not converged
     ethr =  3.64E-06,  avg # of iterations =  7.7

     total cpu time spent up to now is      114.2 secs

     total energy              =    -359.18206245 Ry
     estimated scf accuracy    <       0.00101724 Ry

     iteration # 15     ecut=    50.00 Ry     beta= 0.30
     Davidson diagonalization with overlap
     ethr =  2.83E-06,  avg # of iterations =  1.1

     total cpu time spent up to now is      118.8 secs

     total energy              =    -359.18234615 Ry
     estimated scf accuracy    <       0.00069495 Ry

     iteration # 16     ecut=    50.00 Ry     beta= 0.30
     Davidson diagonalization with overlap
     ethr =  1.93E-06,  avg # of iterations =  2.7

     total cpu time spent up to now is      124.2 secs

     total energy              =    -359.18195928 Ry
     estimated scf accuracy    <       0.00153081 Ry

     iteration # 17     ecut=    50.00 Ry     beta= 0.30
     Davidson diagonalization with overlap
     ethr =  1.93E-06,  avg # of iterations =  2.1

     total cpu time spent up to now is      129.2 secs

     total energy              =    -359.18216919 Ry
     estimated scf accuracy    <       0.00069060 Ry

     iteration # 18     ecut=    50.00 Ry     beta= 0.30
     Davidson diagonalization with overlap
     ethr =  1.92E-06,  avg # of iterations =  1.0

     total cpu time spent up to now is      133.7 secs

     total energy              =    -359.18263821 Ry
     estimated scf accuracy    <       0.00098064 Ry

     iteration # 19     ecut=    50.00 Ry     beta= 0.30
     Davidson diagonalization with overlap
     ethr =  1.92E-06,  avg # of iterations =  5.5

     total cpu time spent up to now is      140.2 secs

     total energy              =    -359.18256921 Ry
     estimated scf accuracy    <       0.00338111 Ry

     iteration # 20     ecut=    50.00 Ry     beta= 0.30
     Davidson diagonalization with overlap
     ethr =  1.92E-06,  avg # of iterations =  1.1

     total cpu time spent up to now is      144.7 secs

     total energy              =    -359.18200438 Ry
     estimated scf accuracy    <       0.00310146 Ry

     iteration # 21     ecut=    50.00 Ry     beta= 0.30
     Davidson diagonalization with overlap
     ethr =  1.92E-06,  avg # of iterations =  4.4

     total cpu time spent up to now is      150.4 secs

     total energy              =    -359.18214195 Ry
     estimated scf accuracy    <       0.00138286 Ry

     iteration # 22     ecut=    50.00 Ry     beta= 0.30
     Davidson diagonalization with overlap
     ethr =  1.92E-06,  avg # of iterations =  1.4

     total cpu time spent up to now is      155.0 secs

     total energy              =    -359.18187339 Ry
     estimated scf accuracy    <       0.00128410 Ry

     iteration # 23     ecut=    50.00 Ry     beta= 0.30
     Davidson diagonalization with overlap
     ethr =  1.92E-06,  avg # of iterations =  2.5

     total cpu time spent up to now is      160.3 secs

     total energy              =    -359.18195802 Ry
     estimated scf accuracy    <       0.00055451 Ry

     iteration # 24     ecut=    50.00 Ry     beta= 0.30
     Davidson diagonalization with overlap
     ethr =  1.54E-06,  avg # of iterations =  3.7

     total cpu time spent up to now is      166.0 secs

     total energy              =    -359.18198836 Ry
     estimated scf accuracy    <       0.00047279 Ry

     iteration # 25     ecut=    50.00 Ry     beta= 0.30
     Davidson diagonalization with overlap
     ethr =  1.31E-06,  avg # of iterations =  1.5

     total cpu time spent up to now is      170.6 secs

     total energy              =    -359.18189447 Ry
     estimated scf accuracy    <       0.00034897 Ry

     iteration # 26     ecut=    50.00 Ry     beta= 0.30
     Davidson diagonalization with overlap
     ethr =  9.69E-07,  avg # of iterations =  5.6

     total cpu time spent up to now is      177.2 secs

     total energy              =    -359.18195645 Ry
     estimated scf accuracy    <       0.00004390 Ry

     iteration # 27     ecut=    50.00 Ry     beta= 0.30
     Davidson diagonalization with overlap
     ethr =  1.22E-07,  avg # of iterations =  6.8

     total cpu time spent up to now is      185.8 secs

     total energy              =    -359.18198197 Ry
     estimated scf accuracy    <       0.00000703 Ry

     iteration # 28     ecut=    50.00 Ry     beta= 0.30
     Davidson diagonalization with overlap
     ethr =  1.95E-08,  avg # of iterations =  5.0

     total cpu time spent up to now is      192.5 secs

     total energy              =    -359.18198330 Ry
     estimated scf accuracy    <       0.00000093 Ry

     iteration # 29     ecut=    50.00 Ry     beta= 0.30
     Davidson diagonalization with overlap
     ethr =  2.57E-09,  avg # of iterations = 11.3

     total cpu time spent up to now is      207.4 secs

     total energy              =    -359.18198254 Ry
     estimated scf accuracy    <       0.00001418 Ry

     iteration # 30     ecut=    50.00 Ry     beta= 0.30
     Davidson diagonalization with overlap
     c_bands:  1 eigenvalues not converged
     ethr =  2.57E-09,  avg # of iterations =  9.1

     total cpu time spent up to now is      219.2 secs

     total energy              =    -359.18198384 Ry
     estimated scf accuracy    <       0.00000077 Ry

     iteration # 31     ecut=    50.00 Ry     beta= 0.30
     Davidson diagonalization with overlap
     ethr =  2.15E-09,  avg # of iterations =  5.2

     total cpu time spent up to now is      225.2 secs

     total energy              =    -359.18198401 Ry
     estimated scf accuracy    <       0.00000001 Ry

     iteration # 32     ecut=    50.00 Ry     beta= 0.30
     Davidson diagonalization with overlap
     c_bands:  1 eigenvalues not converged
     c_bands:  1 eigenvalues not converged
     c_bands:  1 eigenvalues not converged
     ethr =  4.10E-11,  avg # of iterations = 13.2

     total cpu time spent up to now is      241.0 secs

     total energy              =    -359.18198401 Ry
     estimated scf accuracy    <       0.00000021 Ry

     iteration # 33     ecut=    50.00 Ry     beta= 0.30
     Davidson diagonalization with overlap
     c_bands:  1 eigenvalues not converged
     ethr =  4.10E-11,  avg # of iterations = 10.3

     total cpu time spent up to now is      255.1 secs

     total energy              =    -359.18198406 Ry
     estimated scf accuracy    <       0.00000002 Ry

     iteration # 34     ecut=    50.00 Ry     beta= 0.30
     Davidson diagonalization with overlap
     ethr =  4.10E-11,  avg # of iterations =  3.6

     total cpu time spent up to now is      260.5 secs

     End of self-consistent calculation

     Number of k-points >= 100: set verbosity='high' to print the bands.

     highest occupied level (ev):     9.0351

!    total energy              =    -359.18198405 Ry
     estimated scf accuracy    <          7.6E-09 Ry

     The total energy is the sum of the following terms:
     one-electron contribution =    -266.79875195 Ry
     hartree contribution      =     173.67944720 Ry
     xc contribution           =    -110.66750191 Ry
     ewald contribution        =    -155.39517739 Ry

     convergence has been achieved in  34 iterations

     Forces acting on atoms (cartesian axes, Ry/au):

     atom    1 type  1   force =     0.01453643   -0.05728959    0.50229536
     atom    2 type  1   force =    -4.27426083    2.05518499   -2.54913682
     atom    3 type  2   force =     4.25557515   -2.11127539    1.75438469
     atom    4 type  2   force =     0.00414926    0.11337998    0.29245677
     The non-local contrib.  to forces
     atom    1 type  1   force =     0.01012890   -0.12334955    0.54352153
     atom    2 type  1   force =    -0.23609586    0.09831053   -0.06950594
     atom    3 type  2   force =    -0.85781991    0.30665261   -0.47816926
     atom    4 type  2   force =     0.34597061   -0.15741175    0.90417549
     The ionic contribution  to forces
     atom    1 type  1   force =     0.28975911   -1.39437998   41.37141310
     atom    2 type  1   force =   -21.55222562   10.53198370  -46.36703902
     atom    3 type  2   force =    23.12395307  -11.81123134   -4.78102123
     atom    4 type  2   force =    -1.86148656    2.67362762    9.77664715
     The local contribution  to forces
     atom    1 type  1   force =    -0.28385834    1.44786988  -41.31050409
     atom    2 type  1   force =    17.21625548   -8.43215486   43.68393759
     atom    3 type  2   force =   -18.00318062    9.38854233    7.01448904
     atom    4 type  2   force =     1.52237421   -2.40339261  -10.37830370
     The core correction contribution to forces
     atom    1 type  1   force =    -0.00149512    0.01259689   -0.10247701
     atom    2 type  1   force =     0.29782593   -0.14298051    0.20382010
     atom    3 type  2   force =    -0.00736176    0.00476415   -0.00076771
     atom    4 type  2   force =    -0.00272381    0.00055533   -0.01013656
     The Hubbard contrib.    to forces
     atom    1 type  1   force =     0.00000000    0.00000000    0.00000000
     atom    2 type  1   force =     0.00000000    0.00000000    0.00000000
     atom    3 type  2   force =     0.00000000    0.00000000    0.00000000
     atom    4 type  2   force =     0.00000000    0.00000000    0.00000000
     The SCF correction term to forces
     atom    1 type  1   force =    -0.00000495   -0.00002416    0.00035254
     atom    2 type  1   force =    -0.00002761    0.00002880   -0.00033885
     atom    3 type  2   force =    -0.00002248   -0.00000047   -0.00013542
     atom    4 type  2   force =     0.00000798    0.00000407    0.00008511

     Total force =     7.415568     Total SCF correction =     0.000517

     Writing all to output data dir ./ZnO_ANN.save/

     init_run     :      3.38s CPU      3.48s WALL (       1 calls)
     electrons    :    252.05s CPU    256.58s WALL (       1 calls)
     forces       :      0.94s CPU      0.95s WALL (       1 calls)

     Called by init_run:
     wfcinit      :      2.50s CPU      2.56s WALL (       1 calls)
     potinit      :      0.24s CPU      0.24s WALL (       1 calls)
     hinit0       :      0.57s CPU      0.58s WALL (       1 calls)

     Called by electrons:
     c_bands      :    225.53s CPU    229.49s WALL (      34 calls)
     sum_band     :     23.99s CPU     24.50s WALL (      34 calls)
     v_of_rho     :      0.53s CPU      0.57s WALL (      35 calls)
     newd         :      1.91s CPU      1.94s WALL (      35 calls)
     mix_rho      :      0.09s CPU      0.10s WALL (      34 calls)

     Called by c_bands:
     init_us_2    :      1.55s CPU      1.57s WALL (    7840 calls)
     init_us_2:cp :      1.52s CPU      1.55s WALL (    7840 calls)
     cegterg      :    220.22s CPU    224.09s WALL (    3808 calls)

     Called by *egterg:
     cdiaghg      :     23.59s CPU     23.78s WALL (   22329 calls)
     h_psi        :    129.33s CPU    132.18s WALL (   22441 calls)
     s_psi        :     13.34s CPU     13.46s WALL (   22441 calls)
     g_psi        :      0.43s CPU      0.44s WALL (   18521 calls)

     Called by h_psi:
     h_psi:calbec :     16.99s CPU     17.55s WALL (   22441 calls)
     vloc_psi     :     98.59s CPU    100.77s WALL (   22441 calls)
     add_vuspsi   :     13.37s CPU     13.50s WALL (   22441 calls)

     General routines
     calbec       :     22.58s CPU     23.28s WALL (   26697 calls)
     fft          :      0.75s CPU      0.81s WALL (     464 calls)
     ffts         :      0.12s CPU      0.13s WALL (      69 calls)
     fftw         :    102.74s CPU    105.01s WALL (  519786 calls)
     interpolate  :      0.13s CPU      0.14s WALL (      35 calls)

     Parallel routines

     PWSCF        :   4m17.09s CPU   4m21.87s WALL


   This run was terminated on:  13:36:24  23Jun2025            

=------------------------------------------------------------------------------=
   JOB DONE.
=------------------------------------------------------------------------------=
Note: The following floating-point exceptions are signalling: IEEE_INVALID_FLAG
