
     Program PWSCF v.7.2 starts on 23Jun2025 at 15:22:45 

     This program is part of the open-source Quantum ESPRESSO suite
     for quantum simulation of materials; please cite
         "P. Giannozzi et al., J. Phys.:Condens. Matter 21 395502 (2009);
         "P. Giannozzi et al., J. Phys.:Condens. Matter 29 465901 (2017);
         "P. Giannozzi et al., J. Chem. Phys. 152 154105 (2020);
          URL http://www.quantum-espresso.org", 
     in publications or presentations arising from this work. More details at
     http://www.quantum-espresso.org/quote

     Parallel version (MPI), running on     8 processors

     MPI processes distributed on     1 nodes
     90947 MiB available memory on the printing compute node when the environment starts

     Reading input from /home/jvc/QEspresso7.2/ZnO_DataBase/scfs_rnd025.in/scf-6.30-1.65-5.in

     Current dimensions of program PWSCF are:
     Max number of different atomic species (ntypx) = 10
     Max number of k-points (npk) =  40000
     Max angular momentum in pseudopotentials (lmaxx) =  4
     file Zn.upf: wavefunction(s)  3D renormalized

     R & G space division:  proc/nbgrp/npool/nimage =       8
     Subspace diagonalization in iterative solution of the eigenvalue problem:
     a serial algorithm will be used


     Parallelization info
     --------------------
     sticks:   dense  smooth     PW     G-vecs:    dense   smooth      PW
     Min         137      68     20                 6020     2132     356
     Max         138      69     21                 6022     2139     361
     Sum        1099     547    163                48169    17081    2863

     Using Slab Decomposition



     bravais-lattice index     =            4
     lattice parameter (alat)  =       6.3024  a.u.
     unit-cell volume          =     356.9835 (a.u.)^3
     number of atoms/cell      =            4
     number of atomic types    =            2
     number of electrons       =        36.00
     number of Kohn-Sham states=           18
     kinetic-energy cutoff     =      50.0000  Ry
     charge density cutoff     =     400.0000  Ry
     scf convergence threshold =      1.0E-08
     mixing beta               =       0.3000
     number of iterations used =            8  plain     mixing
     Exchange-correlation= PBE
                           (   1   4   3   4   0   0   0)

     celldm(1)=   6.302398  celldm(2)=   0.000000  celldm(3)=   1.646646
     celldm(4)=   0.000000  celldm(5)=   0.000000  celldm(6)=   0.000000

     crystal axes: (cart. coord. in units of alat)
               a(1) = (   1.000000   0.000000   0.000000 )  
               a(2) = (  -0.500000   0.866025   0.000000 )  
               a(3) = (   0.000000   0.000000   1.646646 )  

     reciprocal axes: (cart. coord. in units 2 pi/alat)
               b(1) = (  1.000000  0.577350 -0.000000 )  
               b(2) = (  0.000000  1.154701  0.000000 )  
               b(3) = (  0.000000 -0.000000  0.607295 )  


     PseudoPot. # 1 for Zn read from file:
     ./pseudos/Zn.upf
     MD5 check sum: 7f56cabf9682ed8c977c2f7d0c5985c5
     Pseudo is Ultrasoft + core correction, Zval = 12.0
     Generated using &quot;atomic&quot; code by A. Dal Corso  v.6.2.2
     Using radial grid of 1201 points,  6 beta functions with: 
                l(1) =   0
                l(2) =   0
                l(3) =   1
                l(4) =   1
                l(5) =   2
                l(6) =   2
     Q(r) pseudized with 0 coefficients 


     PseudoPot. # 2 for O  read from file:
     ./pseudos/O.upf
     MD5 check sum: 91400c9766925bcf19f520983a725ff0
     Pseudo is Ultrasoft + core correction, Zval =  6.0
     Generated using &quot;atomic&quot; code by A. Dal Corso  v.6.3MaX
     Using radial grid of 1095 points,  4 beta functions with: 
                l(1) =   0
                l(2) =   0
                l(3) =   1
                l(4) =   1
     Q(r) pseudized with 0 coefficients 


     atomic species   valence    mass     pseudopotential
        Zn            12.00    63.38000     Zn( 1.00)
        O              6.00    15.99900     O ( 1.00)

     No symmetry found



   Cartesian axes

     site n.     atom                  positions (alat units)
         1           Zn  tau(   1) = (   0.6710541   0.4089519   1.2037699  )
         2           Zn  tau(   2) = (  -0.0954954   0.6757617   0.2858896  )
         3           O   tau(   3) = (   0.5464418   0.2165315   1.7373892  )
         4           O   tau(   4) = (  -0.0071970   0.7159834   0.9649588  )

     number of k points=   112

     Number of k-points >= 100: set verbosity='high' to print them.

     Dense  grid:    48169 G-vectors     FFT dimensions: (  45,  45,  72)

     Smooth grid:    17081 G-vectors     FFT dimensions: (  30,  30,  48)

     Estimated max dynamical RAM per process >      33.10 MB

     Estimated total dynamical RAM >     264.80 MB

     Check: negative core charge=   -0.000002

     Initial potential from superposition of free atoms

     starting charge      35.9925, renormalised to      36.0000
     Starting wfcs are   26 randomized atomic wfcs

     total cpu time spent up to now is        4.2 secs

     Self-consistent Calculation

     iteration #  1     ecut=    50.00 Ry     beta= 0.30
     Davidson diagonalization with overlap
     ethr =  1.00E-02,  avg # of iterations =  2.0

     total cpu time spent up to now is        9.9 secs

     total energy              =    -361.23549930 Ry
     estimated scf accuracy    <       0.89566637 Ry

     iteration #  2     ecut=    50.00 Ry     beta= 0.30
     Davidson diagonalization with overlap
     ethr =  2.49E-03,  avg # of iterations =  2.0

     total cpu time spent up to now is       16.4 secs

     total energy              =    -361.34039179 Ry
     estimated scf accuracy    <       0.12059399 Ry

     iteration #  3     ecut=    50.00 Ry     beta= 0.30
     Davidson diagonalization with overlap
     ethr =  3.35E-04,  avg # of iterations =  6.5

     total cpu time spent up to now is       27.8 secs

     total energy              =    -361.39917016 Ry
     estimated scf accuracy    <       0.12716408 Ry

     iteration #  4     ecut=    50.00 Ry     beta= 0.30
     Davidson diagonalization with overlap
     ethr =  3.35E-04,  avg # of iterations =  4.8

     total cpu time spent up to now is       35.4 secs

     total energy              =    -361.43339008 Ry
     estimated scf accuracy    <       0.00879091 Ry

     iteration #  5     ecut=    50.00 Ry     beta= 0.30
     Davidson diagonalization with overlap
     ethr =  2.44E-05,  avg # of iterations =  7.5

     total cpu time spent up to now is       48.1 secs

     total energy              =    -361.43504793 Ry
     estimated scf accuracy    <       0.05624383 Ry

     iteration #  6     ecut=    50.00 Ry     beta= 0.30
     Davidson diagonalization with overlap
     ethr =  2.44E-05,  avg # of iterations =  4.3

     total cpu time spent up to now is       55.1 secs

     total energy              =    -361.42314509 Ry
     estimated scf accuracy    <       0.02123306 Ry

     iteration #  7     ecut=    50.00 Ry     beta= 0.30
     Davidson diagonalization with overlap
     ethr =  2.44E-05,  avg # of iterations =  7.8

     total cpu time spent up to now is       68.7 secs

     total energy              =    -361.43138473 Ry
     estimated scf accuracy    <       0.02139528 Ry

     iteration #  8     ecut=    50.00 Ry     beta= 0.30
     Davidson diagonalization with overlap
     ethr =  2.44E-05,  avg # of iterations =  4.5

     total cpu time spent up to now is       76.5 secs

     total energy              =    -361.43438057 Ry
     estimated scf accuracy    <       0.00064947 Ry

     iteration #  9     ecut=    50.00 Ry     beta= 0.30
     Davidson diagonalization with overlap
     ethr =  1.80E-06,  avg # of iterations =  5.6

     total cpu time spent up to now is       85.2 secs

     total energy              =    -361.43468043 Ry
     estimated scf accuracy    <       0.00012268 Ry

     iteration # 10     ecut=    50.00 Ry     beta= 0.30
     Davidson diagonalization with overlap
     ethr =  3.41E-07,  avg # of iterations =  8.3

     total cpu time spent up to now is       99.5 secs

     total energy              =    -361.43483504 Ry
     estimated scf accuracy    <       0.00059386 Ry

     iteration # 11     ecut=    50.00 Ry     beta= 0.30
     Davidson diagonalization with overlap
     ethr =  3.41E-07,  avg # of iterations =  1.3

     total cpu time spent up to now is      104.6 secs

     total energy              =    -361.43471409 Ry
     estimated scf accuracy    <       0.00039292 Ry

     iteration # 12     ecut=    50.00 Ry     beta= 0.30
     Davidson diagonalization with overlap
     ethr =  3.41E-07,  avg # of iterations =  5.2

     total cpu time spent up to now is      113.8 secs

     total energy              =    -361.43477453 Ry
     estimated scf accuracy    <       0.00001275 Ry

     iteration # 13     ecut=    50.00 Ry     beta= 0.30
     Davidson diagonalization with overlap
     ethr =  3.54E-08,  avg # of iterations =  5.8

     total cpu time spent up to now is      123.4 secs

     total energy              =    -361.43478394 Ry
     estimated scf accuracy    <       0.00000626 Ry

     iteration # 14     ecut=    50.00 Ry     beta= 0.30
     Davidson diagonalization with overlap
     ethr =  1.74E-08,  avg # of iterations =  1.3

     total cpu time spent up to now is      128.4 secs

     total energy              =    -361.43478282 Ry
     estimated scf accuracy    <       0.00000611 Ry

     iteration # 15     ecut=    50.00 Ry     beta= 0.30
     Davidson diagonalization with overlap
     ethr =  1.70E-08,  avg # of iterations =  1.2

     total cpu time spent up to now is      133.3 secs

     total energy              =    -361.43478260 Ry
     estimated scf accuracy    <       0.00000359 Ry

     iteration # 16     ecut=    50.00 Ry     beta= 0.30
     Davidson diagonalization with overlap
     ethr =  9.96E-09,  avg # of iterations =  1.9

     total cpu time spent up to now is      138.6 secs

     total energy              =    -361.43478271 Ry
     estimated scf accuracy    <       0.00000232 Ry

     iteration # 17     ecut=    50.00 Ry     beta= 0.30
     Davidson diagonalization with overlap
     ethr =  6.46E-09,  avg # of iterations =  1.1

     total cpu time spent up to now is      143.5 secs

     total energy              =    -361.43478256 Ry
     estimated scf accuracy    <       0.00000211 Ry

     iteration # 18     ecut=    50.00 Ry     beta= 0.30
     Davidson diagonalization with overlap
     ethr =  5.87E-09,  avg # of iterations =  1.1

     total cpu time spent up to now is      148.4 secs

     total energy              =    -361.43478248 Ry
     estimated scf accuracy    <       0.00000151 Ry

     iteration # 19     ecut=    50.00 Ry     beta= 0.30
     Davidson diagonalization with overlap
     ethr =  4.20E-09,  avg # of iterations =  1.4

     total cpu time spent up to now is      153.4 secs

     total energy              =    -361.43478213 Ry
     estimated scf accuracy    <       0.00000102 Ry

     iteration # 20     ecut=    50.00 Ry     beta= 0.30
     Davidson diagonalization with overlap
     ethr =  2.84E-09,  avg # of iterations =  4.0

     total cpu time spent up to now is      160.0 secs

     total energy              =    -361.43478229 Ry
     estimated scf accuracy    <       0.00000008 Ry

     iteration # 21     ecut=    50.00 Ry     beta= 0.30
     Davidson diagonalization with overlap
     ethr =  2.21E-10,  avg # of iterations =  7.5

     total cpu time spent up to now is      173.1 secs

     total energy              =    -361.43478242 Ry
     estimated scf accuracy    <       0.00000010 Ry

     iteration # 22     ecut=    50.00 Ry     beta= 0.30
     Davidson diagonalization with overlap
     ethr =  2.21E-10,  avg # of iterations =  2.0

     total cpu time spent up to now is      178.5 secs

     total energy              =    -361.43478241 Ry
     estimated scf accuracy    <       0.00000003 Ry

     iteration # 23     ecut=    50.00 Ry     beta= 0.30
     Davidson diagonalization with overlap
     ethr =  9.11E-11,  avg # of iterations =  5.8

     total cpu time spent up to now is      188.7 secs

     total energy              =    -361.43478243 Ry
     estimated scf accuracy    <       0.00000002 Ry

     iteration # 24     ecut=    50.00 Ry     beta= 0.30
     Davidson diagonalization with overlap
     ethr =  6.43E-11,  avg # of iterations =  1.2

     total cpu time spent up to now is      193.5 secs

     total energy              =    -361.43478244 Ry
     estimated scf accuracy    <       0.00000001 Ry

     iteration # 25     ecut=    50.00 Ry     beta= 0.30
     Davidson diagonalization with overlap
     ethr =  3.28E-11,  avg # of iterations =  2.1

     total cpu time spent up to now is      198.9 secs

     total energy              =    -361.43478243 Ry
     estimated scf accuracy    <       0.00000002 Ry

     iteration # 26     ecut=    50.00 Ry     beta= 0.30
     Davidson diagonalization with overlap
     ethr =  3.28E-11,  avg # of iterations =  2.1

     total cpu time spent up to now is      204.8 secs

     End of self-consistent calculation

     Number of k-points >= 100: set verbosity='high' to print the bands.

     highest occupied level (ev):     6.3343

!    total energy              =    -361.43478242 Ry
     estimated scf accuracy    <          7.2E-09 Ry

     The total energy is the sum of the following terms:
     one-electron contribution =    -176.82425346 Ry
     hartree contribution      =     127.64438744 Ry
     xc contribution           =    -109.51098626 Ry
     ewald contribution        =    -202.74393014 Ry

     convergence has been achieved in  26 iterations

     Forces acting on atoms (cartesian axes, Ry/au):

     atom    1 type  1   force =    -0.11748668   -0.12168181    0.01804318
     atom    2 type  1   force =    -0.10458689   -0.31012013    0.19079733
     atom    3 type  2   force =     0.11908622    0.33792200   -0.10638179
     atom    4 type  2   force =     0.10298735    0.09387994   -0.10245873
     The non-local contrib.  to forces
     atom    1 type  1   force =    -0.40174825   -0.21543382    0.30261841
     atom    2 type  1   force =    -0.20304968   -0.68830985    0.29695893
     atom    3 type  2   force =     0.15105762   -0.13167992    0.14031351
     atom    4 type  2   force =    -0.52282673   -0.33056624    0.28790425
     The ionic contribution  to forces
     atom    1 type  1   force =    -3.24590988   -1.55623566   -5.64396584
     atom    2 type  1   force =    -1.12510170   -5.33596922   10.69827089
     atom    3 type  2   force =     0.29292928    4.34565422    1.05468276
     atom    4 type  2   force =     4.07808230    2.54655067   -6.10898781
     The local contribution  to forces
     atom    1 type  1   force =     3.49449249    1.63035202    5.37322302
     atom    2 type  1   force =     1.20628290    5.64819837  -10.76582776
     atom    3 type  2   force =    -0.32285648   -3.87522850   -1.30061650
     atom    4 type  2   force =    -3.45635129   -2.12452659    5.72035360
     The core correction contribution to forces
     atom    1 type  1   force =     0.03564299    0.01962741   -0.01378104
     atom    2 type  1   force =     0.01726427    0.06589170   -0.03858066
     atom    3 type  2   force =    -0.00203313   -0.00080813   -0.00074948
     atom    4 type  2   force =     0.00408862    0.00242984   -0.00174640
     The Hubbard contrib.    to forces
     atom    1 type  1   force =     0.00000000    0.00000000    0.00000000
     atom    2 type  1   force =     0.00000000    0.00000000    0.00000000
     atom    3 type  2   force =     0.00000000    0.00000000    0.00000000
     atom    4 type  2   force =     0.00000000    0.00000000    0.00000000
     The SCF correction term to forces
     atom    1 type  1   force =     0.00004279    0.00001843   -0.00005901
     atom    2 type  1   force =     0.00002412    0.00007907   -0.00003172
     atom    3 type  2   force =    -0.00000427   -0.00000547   -0.00001973
     atom    4 type  2   force =     0.00000125    0.00000247    0.00000999

     Total force =     0.584858     Total SCF correction =     0.000118

     Writing all to output data dir ./ZnO_ANN.save/

     init_run     :      3.70s CPU      3.80s WALL (       1 calls)
     electrons    :    197.45s CPU    200.58s WALL (       1 calls)
     forces       :      1.12s CPU      1.14s WALL (       1 calls)

     Called by init_run:
     wfcinit      :      2.76s CPU      2.82s WALL (       1 calls)
     potinit      :      0.31s CPU      0.31s WALL (       1 calls)
     hinit0       :      0.53s CPU      0.55s WALL (       1 calls)

     Called by electrons:
     c_bands      :    175.02s CPU    177.73s WALL (      26 calls)
     sum_band     :     20.18s CPU     20.53s WALL (      26 calls)
     v_of_rho     :      0.52s CPU      0.55s WALL (      27 calls)
     newd         :      1.68s CPU      1.71s WALL (      27 calls)
     mix_rho      :      0.07s CPU      0.08s WALL (      26 calls)

     Called by c_bands:
     init_us_2    :      1.35s CPU      1.36s WALL (    6048 calls)
     init_us_2:cp :      1.33s CPU      1.35s WALL (    6048 calls)
     cegterg      :    170.41s CPU    173.05s WALL (    2912 calls)

     Called by *egterg:
     cdiaghg      :     14.36s CPU     14.44s WALL (   13947 calls)
     h_psi        :    102.58s CPU    104.57s WALL (   14059 calls)
     s_psi        :     10.29s CPU     10.35s WALL (   14059 calls)
     g_psi        :      0.34s CPU      0.34s WALL (   11035 calls)

     Called by h_psi:
     h_psi:calbec :     13.94s CPU     14.32s WALL (   14059 calls)
     vloc_psi     :     78.06s CPU     79.61s WALL (   14059 calls)
     add_vuspsi   :     10.30s CPU     10.38s WALL (   14059 calls)

     General routines
     calbec       :     19.00s CPU     19.49s WALL (   17419 calls)
     fft          :      0.69s CPU      0.74s WALL (     360 calls)
     ffts         :      0.16s CPU      0.16s WALL (      53 calls)
     fftw         :     80.92s CPU     82.50s WALL (  381416 calls)
     interpolate  :      0.17s CPU      0.18s WALL (      27 calls)

     Parallel routines

     PWSCF        :   3m22.98s CPU   3m26.45s WALL


   This run was terminated on:  15:26:11  23Jun2025            

=------------------------------------------------------------------------------=
   JOB DONE.
=------------------------------------------------------------------------------=
Note: The following floating-point exceptions are signalling: IEEE_INVALID_FLAG
