
     Program PWSCF v.7.2 starts on 23Jun2025 at 17:52:20 

     This program is part of the open-source Quantum ESPRESSO suite
     for quantum simulation of materials; please cite
         "P. Giannozzi et al., J. Phys.:Condens. Matter 21 395502 (2009);
         "P. Giannozzi et al., J. Phys.:Condens. Matter 29 465901 (2017);
         "P. Giannozzi et al., J. Chem. Phys. 152 154105 (2020);
          URL http://www.quantum-espresso.org", 
     in publications or presentations arising from this work. More details at
     http://www.quantum-espresso.org/quote

     Parallel version (MPI), running on     8 processors

     MPI processes distributed on     1 nodes
     90701 MiB available memory on the printing compute node when the environment starts

     Reading input from /home/jvc/QEspresso7.2/ZnO_DataBase/scfs_rnd025.in/scf-6.67-1.68-4.in

     Current dimensions of program PWSCF are:
     Max number of different atomic species (ntypx) = 10
     Max number of k-points (npk) =  40000
     Max angular momentum in pseudopotentials (lmaxx) =  4
     file Zn.upf: wavefunction(s)  3D renormalized

     R & G space division:  proc/nbgrp/npool/nimage =       8
     Subspace diagonalization in iterative solution of the eigenvalue problem:
     a serial algorithm will be used


     Parallelization info
     --------------------
     sticks:   dense  smooth     PW     G-vecs:    dense   smooth      PW
     Min         154      75     23                 7304     2569     419
     Max         155      78     24                 7309     2575     424
     Sum        1237     613    187                58451    20571    3381

     Using Slab Decomposition



     bravais-lattice index     =            4
     lattice parameter (alat)  =       6.6731  a.u.
     unit-cell volume          =     432.0680 (a.u.)^3
     number of atoms/cell      =            4
     number of atomic types    =            2
     number of electrons       =        36.00
     number of Kohn-Sham states=           18
     kinetic-energy cutoff     =      50.0000  Ry
     charge density cutoff     =     400.0000  Ry
     scf convergence threshold =      1.0E-08
     mixing beta               =       0.3000
     number of iterations used =            8  plain     mixing
     Exchange-correlation= PBE
                           (   1   4   3   4   0   0   0)

     celldm(1)=   6.673127  celldm(2)=   0.000000  celldm(3)=   1.678933
     celldm(4)=   0.000000  celldm(5)=   0.000000  celldm(6)=   0.000000

     crystal axes: (cart. coord. in units of alat)
               a(1) = (   1.000000   0.000000   0.000000 )  
               a(2) = (  -0.500000   0.866025   0.000000 )  
               a(3) = (   0.000000   0.000000   1.678933 )  

     reciprocal axes: (cart. coord. in units 2 pi/alat)
               b(1) = (  1.000000  0.577350 -0.000000 )  
               b(2) = (  0.000000  1.154701  0.000000 )  
               b(3) = (  0.000000 -0.000000  0.595616 )  


     PseudoPot. # 1 for Zn read from file:
     ./pseudos/Zn.upf
     MD5 check sum: 7f56cabf9682ed8c977c2f7d0c5985c5
     Pseudo is Ultrasoft + core correction, Zval = 12.0
     Generated using &quot;atomic&quot; code by A. Dal Corso  v.6.2.2
     Using radial grid of 1201 points,  6 beta functions with: 
                l(1) =   0
                l(2) =   0
                l(3) =   1
                l(4) =   1
                l(5) =   2
                l(6) =   2
     Q(r) pseudized with 0 coefficients 


     PseudoPot. # 2 for O  read from file:
     ./pseudos/O.upf
     MD5 check sum: 91400c9766925bcf19f520983a725ff0
     Pseudo is Ultrasoft + core correction, Zval =  6.0
     Generated using &quot;atomic&quot; code by A. Dal Corso  v.6.3MaX
     Using radial grid of 1095 points,  4 beta functions with: 
                l(1) =   0
                l(2) =   0
                l(3) =   1
                l(4) =   1
     Q(r) pseudized with 0 coefficients 


     atomic species   valence    mass     pseudopotential
        Zn            12.00    63.38000     Zn( 1.00)
        O              6.00    15.99900     O ( 1.00)

     No symmetry found



   Cartesian axes

     site n.     atom                  positions (alat units)
         1           Zn  tau(   1) = (   0.3442141   0.4100979   0.5536394  )
         2           Zn  tau(   2) = (  -0.1103967   0.6115757  -0.0594364  )
         3           O   tau(   3) = (   0.5910502   0.1415910   1.8353867  )
         4           O   tau(   4) = (  -0.1298395   0.7723593   0.5528274  )

     number of k points=   112

     Number of k-points >= 100: set verbosity='high' to print them.

     Dense  grid:    58451 G-vectors     FFT dimensions: (  45,  45,  72)

     Smooth grid:    20571 G-vectors     FFT dimensions: (  32,  32,  54)

     Estimated max dynamical RAM per process >      39.18 MB

     Estimated total dynamical RAM >     313.47 MB

     Check: negative core charge=   -0.000002

     Initial potential from superposition of free atoms

     starting charge      35.9925, renormalised to      36.0000
     Starting wfcs are   26 randomized atomic wfcs

     total cpu time spent up to now is        4.5 secs

     Self-consistent Calculation

     iteration #  1     ecut=    50.00 Ry     beta= 0.30
     Davidson diagonalization with overlap
     ethr =  1.00E-02,  avg # of iterations =  2.0

     total cpu time spent up to now is       10.6 secs

     total energy              =    -360.86222693 Ry
     estimated scf accuracy    <       1.34333458 Ry

     iteration #  2     ecut=    50.00 Ry     beta= 0.30
     Davidson diagonalization with overlap
     ethr =  3.73E-03,  avg # of iterations =  5.1

     total cpu time spent up to now is       18.2 secs

     total energy              =    -361.19515350 Ry
     estimated scf accuracy    <       0.04660683 Ry

     iteration #  3     ecut=    50.00 Ry     beta= 0.30
     Davidson diagonalization with overlap
     ethr =  1.29E-04,  avg # of iterations = 10.5

     total cpu time spent up to now is       32.4 secs

     total energy              =    -361.18433942 Ry
     estimated scf accuracy    <       0.14396963 Ry

     iteration #  4     ecut=    50.00 Ry     beta= 0.30
     Davidson diagonalization with overlap
     c_bands:  1 eigenvalues not converged
     ethr =  1.29E-04,  avg # of iterations = 14.4

     total cpu time spent up to now is       49.1 secs

     total energy              =    -361.23942202 Ry
     estimated scf accuracy    <       0.24730022 Ry

     iteration #  5     ecut=    50.00 Ry     beta= 0.30
     Davidson diagonalization with overlap
     ethr =  1.29E-04,  avg # of iterations =  6.6

     total cpu time spent up to now is       56.5 secs

     total energy              =    -361.20754800 Ry
     estimated scf accuracy    <       0.08203841 Ry

     iteration #  6     ecut=    50.00 Ry     beta= 0.30
     Davidson diagonalization with overlap
     ethr =  1.29E-04,  avg # of iterations = 10.9

     total cpu time spent up to now is       69.4 secs

     total energy              =    -361.23379423 Ry
     estimated scf accuracy    <       0.10168182 Ry

     iteration #  7     ecut=    50.00 Ry     beta= 0.30
     Davidson diagonalization with overlap
     ethr =  1.29E-04,  avg # of iterations =  6.5

     total cpu time spent up to now is       76.6 secs

     total energy              =    -361.24066178 Ry
     estimated scf accuracy    <       0.01406692 Ry

     iteration #  8     ecut=    50.00 Ry     beta= 0.30
     Davidson diagonalization with overlap
     ethr =  3.91E-05,  avg # of iterations =  5.7

     total cpu time spent up to now is       85.0 secs

     total energy              =    -361.24519548 Ry
     estimated scf accuracy    <       0.00091424 Ry

     iteration #  9     ecut=    50.00 Ry     beta= 0.30
     Davidson diagonalization with overlap
     ethr =  2.54E-06,  avg # of iterations =  5.9

     total cpu time spent up to now is       94.6 secs

     total energy              =    -361.24596969 Ry
     estimated scf accuracy    <       0.00086092 Ry

     iteration # 10     ecut=    50.00 Ry     beta= 0.30
     Davidson diagonalization with overlap
     ethr =  2.39E-06,  avg # of iterations =  4.3

     total cpu time spent up to now is      101.5 secs

     total energy              =    -361.24552176 Ry
     estimated scf accuracy    <       0.00211982 Ry

     iteration # 11     ecut=    50.00 Ry     beta= 0.30
     Davidson diagonalization with overlap
     ethr =  2.39E-06,  avg # of iterations =  2.9

     total cpu time spent up to now is      107.7 secs

     total energy              =    -361.24547936 Ry
     estimated scf accuracy    <       0.00098763 Ry

     iteration # 12     ecut=    50.00 Ry     beta= 0.30
     Davidson diagonalization with overlap
     ethr =  2.39E-06,  avg # of iterations =  2.5

     total cpu time spent up to now is      114.0 secs

     total energy              =    -361.24556331 Ry
     estimated scf accuracy    <       0.00046790 Ry

     iteration # 13     ecut=    50.00 Ry     beta= 0.30
     Davidson diagonalization with overlap
     ethr =  1.30E-06,  avg # of iterations =  2.2

     total cpu time spent up to now is      120.0 secs

     total energy              =    -361.24549939 Ry
     estimated scf accuracy    <       0.00040441 Ry

     iteration # 14     ecut=    50.00 Ry     beta= 0.30
     Davidson diagonalization with overlap
     ethr =  1.12E-06,  avg # of iterations =  6.0

     total cpu time spent up to now is      127.3 secs

     total energy              =    -361.24554732 Ry
     estimated scf accuracy    <       0.00003161 Ry

     iteration # 15     ecut=    50.00 Ry     beta= 0.30
     Davidson diagonalization with overlap
     c_bands:  1 eigenvalues not converged
     c_bands:  1 eigenvalues not converged
     c_bands:  1 eigenvalues not converged
     ethr =  8.78E-08,  avg # of iterations = 14.6

     total cpu time spent up to now is      144.5 secs

     total energy              =    -361.24567296 Ry
     estimated scf accuracy    <       0.00037310 Ry

     iteration # 16     ecut=    50.00 Ry     beta= 0.30
     Davidson diagonalization with overlap
     ethr =  8.78E-08,  avg # of iterations =  2.0

     total cpu time spent up to now is      150.2 secs

     total energy              =    -361.24574322 Ry
     estimated scf accuracy    <       0.00042813 Ry

     iteration # 17     ecut=    50.00 Ry     beta= 0.30
     Davidson diagonalization with overlap
     ethr =  8.78E-08,  avg # of iterations =  8.6

     total cpu time spent up to now is      160.0 secs

     total energy              =    -361.24566671 Ry
     estimated scf accuracy    <       0.00102601 Ry

     iteration # 18     ecut=    50.00 Ry     beta= 0.30
     Davidson diagonalization with overlap
     ethr =  8.78E-08,  avg # of iterations =  7.4

     total cpu time spent up to now is      167.9 secs

     total energy              =    -361.24555015 Ry
     estimated scf accuracy    <       0.00063195 Ry

     iteration # 19     ecut=    50.00 Ry     beta= 0.30
     Davidson diagonalization with overlap
     ethr =  8.78E-08,  avg # of iterations = 13.6

     total cpu time spent up to now is      182.7 secs

     total energy              =    -361.24559893 Ry
     estimated scf accuracy    <       0.00006896 Ry

     iteration # 20     ecut=    50.00 Ry     beta= 0.30
     Davidson diagonalization with overlap
     ethr =  8.78E-08,  avg # of iterations =  1.7

     total cpu time spent up to now is      188.4 secs

     total energy              =    -361.24559248 Ry
     estimated scf accuracy    <       0.00005422 Ry

     iteration # 21     ecut=    50.00 Ry     beta= 0.30
     Davidson diagonalization with overlap
     ethr =  8.78E-08,  avg # of iterations =  2.2

     total cpu time spent up to now is      194.3 secs

     total energy              =    -361.24558509 Ry
     estimated scf accuracy    <       0.00003232 Ry

     iteration # 22     ecut=    50.00 Ry     beta= 0.30
     Davidson diagonalization with overlap
     ethr =  8.78E-08,  avg # of iterations = 10.8

     total cpu time spent up to now is      205.5 secs

     total energy              =    -361.24558421 Ry
     estimated scf accuracy    <       0.00010502 Ry

     iteration # 23     ecut=    50.00 Ry     beta= 0.30
     Davidson diagonalization with overlap
     ethr =  8.78E-08,  avg # of iterations =  8.0

     total cpu time spent up to now is      214.5 secs

     total energy              =    -361.24559721 Ry
     estimated scf accuracy    <       0.00002439 Ry

     iteration # 24     ecut=    50.00 Ry     beta= 0.30
     Davidson diagonalization with overlap
     ethr =  6.77E-08,  avg # of iterations =  3.6

     total cpu time spent up to now is      220.8 secs

     total energy              =    -361.24560021 Ry
     estimated scf accuracy    <       0.00002568 Ry

     iteration # 25     ecut=    50.00 Ry     beta= 0.30
     Davidson diagonalization with overlap
     ethr =  6.77E-08,  avg # of iterations =  2.9

     total cpu time spent up to now is      227.0 secs

     total energy              =    -361.24560200 Ry
     estimated scf accuracy    <       0.00003292 Ry

     iteration # 26     ecut=    50.00 Ry     beta= 0.30
     Davidson diagonalization with overlap
     ethr =  6.77E-08,  avg # of iterations =  1.7

     total cpu time spent up to now is      232.6 secs

     total energy              =    -361.24559692 Ry
     estimated scf accuracy    <       0.00003636 Ry

     iteration # 27     ecut=    50.00 Ry     beta= 0.30
     Davidson diagonalization with overlap
     ethr =  6.77E-08,  avg # of iterations =  1.4

     total cpu time spent up to now is      238.1 secs

     total energy              =    -361.24559832 Ry
     estimated scf accuracy    <       0.00002648 Ry

     iteration # 28     ecut=    50.00 Ry     beta= 0.30
     Davidson diagonalization with overlap
     ethr =  6.77E-08,  avg # of iterations =  3.5

     total cpu time spent up to now is      244.7 secs

     total energy              =    -361.24562441 Ry
     estimated scf accuracy    <       0.00003639 Ry

     iteration # 29     ecut=    50.00 Ry     beta= 0.30
     Davidson diagonalization with overlap
     ethr =  6.77E-08,  avg # of iterations = 11.1

     total cpu time spent up to now is      257.5 secs

     total energy              =    -361.24560871 Ry
     estimated scf accuracy    <       0.00034890 Ry

     iteration # 30     ecut=    50.00 Ry     beta= 0.30
     Davidson diagonalization with overlap
     ethr =  6.77E-08,  avg # of iterations =  5.9

     total cpu time spent up to now is      264.6 secs

     total energy              =    -361.24560829 Ry
     estimated scf accuracy    <       0.00020007 Ry

     iteration # 31     ecut=    50.00 Ry     beta= 0.30
     Davidson diagonalization with overlap
     ethr =  6.77E-08,  avg # of iterations =  2.2

     total cpu time spent up to now is      270.7 secs

     total energy              =    -361.24564309 Ry
     estimated scf accuracy    <       0.00016514 Ry

     iteration # 32     ecut=    50.00 Ry     beta= 0.30
     Davidson diagonalization with overlap
     ethr =  6.77E-08,  avg # of iterations =  3.9

     total cpu time spent up to now is      276.9 secs

     total energy              =    -361.24554230 Ry
     estimated scf accuracy    <       0.00025104 Ry

     iteration # 33     ecut=    50.00 Ry     beta= 0.30
     Davidson diagonalization with overlap
     c_bands:  1 eigenvalues not converged
     c_bands:  1 eigenvalues not converged
     c_bands:  1 eigenvalues not converged
     ethr =  6.77E-08,  avg # of iterations = 14.7

     total cpu time spent up to now is      292.1 secs

     total energy              =    -361.24559673 Ry
     estimated scf accuracy    <       0.00002939 Ry

     iteration # 34     ecut=    50.00 Ry     beta= 0.30
     Davidson diagonalization with overlap
     ethr =  6.77E-08,  avg # of iterations =  1.9

     total cpu time spent up to now is      297.8 secs

     total energy              =    -361.24558802 Ry
     estimated scf accuracy    <       0.00002611 Ry

     iteration # 35     ecut=    50.00 Ry     beta= 0.30
     Davidson diagonalization with overlap
     ethr =  6.77E-08,  avg # of iterations =  7.5

     total cpu time spent up to now is      305.3 secs

     total energy              =    -361.24559429 Ry
     estimated scf accuracy    <       0.00000224 Ry

     iteration # 36     ecut=    50.00 Ry     beta= 0.30
     Davidson diagonalization with overlap
     ethr =  6.23E-09,  avg # of iterations =  6.8

     total cpu time spent up to now is      314.5 secs

     total energy              =    -361.24559447 Ry
     estimated scf accuracy    <       0.00000585 Ry

     iteration # 37     ecut=    50.00 Ry     beta= 0.30
     Davidson diagonalization with overlap
     ethr =  6.23E-09,  avg # of iterations =  1.4

     total cpu time spent up to now is      319.9 secs

     total energy              =    -361.24559378 Ry
     estimated scf accuracy    <       0.00000411 Ry

     iteration # 38     ecut=    50.00 Ry     beta= 0.30
     Davidson diagonalization with overlap
     ethr =  6.23E-09,  avg # of iterations =  3.4

     total cpu time spent up to now is      326.5 secs

     total energy              =    -361.24559396 Ry
     estimated scf accuracy    <       0.00000146 Ry

     iteration # 39     ecut=    50.00 Ry     beta= 0.30
     Davidson diagonalization with overlap
     ethr =  4.06E-09,  avg # of iterations =  2.1

     total cpu time spent up to now is      332.4 secs

     total energy              =    -361.24559392 Ry
     estimated scf accuracy    <       0.00000094 Ry

     iteration # 40     ecut=    50.00 Ry     beta= 0.30
     Davidson diagonalization with overlap
     ethr =  2.62E-09,  avg # of iterations =  3.0

     total cpu time spent up to now is      338.8 secs

     total energy              =    -361.24559396 Ry
     estimated scf accuracy    <       0.00000036 Ry

     iteration # 41     ecut=    50.00 Ry     beta= 0.30
     Davidson diagonalization with overlap
     ethr =  1.01E-09,  avg # of iterations =  8.1

     total cpu time spent up to now is      348.7 secs

     total energy              =    -361.24559432 Ry
     estimated scf accuracy    <       0.00000060 Ry

     iteration # 42     ecut=    50.00 Ry     beta= 0.30
     Davidson diagonalization with overlap
     ethr =  1.01E-09,  avg # of iterations =  3.4

     total cpu time spent up to now is      354.8 secs

     total energy              =    -361.24559428 Ry
     estimated scf accuracy    <       0.00000104 Ry

     iteration # 43     ecut=    50.00 Ry     beta= 0.30
     Davidson diagonalization with overlap
     ethr =  1.01E-09,  avg # of iterations =  1.4

     total cpu time spent up to now is      360.2 secs

     total energy              =    -361.24559392 Ry
     estimated scf accuracy    <       0.00000097 Ry

     iteration # 44     ecut=    50.00 Ry     beta= 0.30
     Davidson diagonalization with overlap
     ethr =  1.01E-09,  avg # of iterations = 10.3

     total cpu time spent up to now is      370.7 secs

     total energy              =    -361.24559411 Ry
     estimated scf accuracy    <       0.00000054 Ry

     iteration # 45     ecut=    50.00 Ry     beta= 0.30
     Davidson diagonalization with overlap
     ethr =  1.01E-09,  avg # of iterations =  1.7

     total cpu time spent up to now is      376.2 secs

     total energy              =    -361.24559411 Ry
     estimated scf accuracy    <       0.00000033 Ry

     iteration # 46     ecut=    50.00 Ry     beta= 0.30
     Davidson diagonalization with overlap
     ethr =  9.04E-10,  avg # of iterations =  1.0

     total cpu time spent up to now is      381.4 secs

     total energy              =    -361.24559410 Ry
     estimated scf accuracy    <       0.00000027 Ry

     iteration # 47     ecut=    50.00 Ry     beta= 0.30
     Davidson diagonalization with overlap
     ethr =  7.52E-10,  avg # of iterations =  1.6

     total cpu time spent up to now is      386.9 secs

     total energy              =    -361.24559410 Ry
     estimated scf accuracy    <       0.00000020 Ry

     iteration # 48     ecut=    50.00 Ry     beta= 0.30
     Davidson diagonalization with overlap
     ethr =  5.54E-10,  avg # of iterations =  4.0

     total cpu time spent up to now is      393.2 secs

     total energy              =    -361.24559412 Ry
     estimated scf accuracy    <       0.00000012 Ry

     iteration # 49     ecut=    50.00 Ry     beta= 0.30
     Davidson diagonalization with overlap
     ethr =  3.24E-10,  avg # of iterations =  3.8

     total cpu time spent up to now is      399.1 secs

     total energy              =    -361.24559408 Ry
     estimated scf accuracy    <       0.00000009 Ry

     iteration # 50     ecut=    50.00 Ry     beta= 0.30
     Davidson diagonalization with overlap
     ethr =  2.45E-10,  avg # of iterations =  5.2

     total cpu time spent up to now is      408.3 secs

     total energy              =    -361.24559411 Ry
     estimated scf accuracy    <       0.00000003 Ry

     iteration # 51     ecut=    50.00 Ry     beta= 0.30
     Davidson diagonalization with overlap
     ethr =  8.10E-11,  avg # of iterations =  2.0

     total cpu time spent up to now is      414.2 secs

     total energy              =    -361.24559411 Ry
     estimated scf accuracy    <       0.00000001 Ry

     iteration # 52     ecut=    50.00 Ry     beta= 0.30
     Davidson diagonalization with overlap
     ethr =  3.36E-11,  avg # of iterations =  6.9

     total cpu time spent up to now is      423.7 secs

     End of self-consistent calculation

     Number of k-points >= 100: set verbosity='high' to print the bands.

     highest occupied level (ev):     5.5114

!    total energy              =    -361.24559411 Ry
     estimated scf accuracy    <          3.2E-09 Ry

     The total energy is the sum of the following terms:
     one-electron contribution =    -261.63725473 Ry
     hartree contribution      =     167.58272230 Ry
     xc contribution           =    -109.35972838 Ry
     ewald contribution        =    -157.83133330 Ry

     convergence has been achieved in  52 iterations

     Forces acting on atoms (cartesian axes, Ry/au):

     atom    1 type  1   force =    -0.02677870    0.14123217    0.06349515
     atom    2 type  1   force =    -0.06737941   -0.11034546   -0.05359534
     atom    3 type  2   force =     0.18175926    0.20513664   -0.22018732
     atom    4 type  2   force =    -0.08760114   -0.23602336    0.21028752
     The non-local contrib.  to forces
     atom    1 type  1   force =    -0.10641941    0.48186648    0.13687663
     atom    2 type  1   force =    -0.05113579   -0.19260230   -0.29089431
     atom    3 type  2   force =    -0.12868005    0.14781480   -0.65432784
     atom    4 type  2   force =     0.02201886    0.09193712    0.21038863
     The ionic contribution  to forces
     atom    1 type  1   force =    -1.48708337    5.46365486   22.53022602
     atom    2 type  1   force =    -1.73888695   -3.88030459  -28.36150808
     atom    3 type  2   force =     5.10029281    2.50418088   -7.67451974
     atom    4 type  2   force =    -1.87432249   -4.08753115   13.50580179
     The local contribution  to forces
     atom    1 type  1   force =     1.55904842   -5.76199006  -22.58309508
     atom    2 type  1   force =     1.71194392    3.93536686   28.56153532
     atom    3 type  2   force =    -4.78950195   -2.44433286    8.10121603
     atom    4 type  2   force =     1.76463666    3.75912180  -13.50243753
     The core correction contribution to forces
     atom    1 type  1   force =     0.00769369   -0.04233603   -0.02060449
     atom    2 type  1   force =     0.01070782    0.02723368    0.03735627
     atom    3 type  2   force =    -0.00034985   -0.00253322    0.00746320
     atom    4 type  2   force =     0.00007604    0.00046463   -0.00351355
     The Hubbard contrib.    to forces
     atom    1 type  1   force =     0.00000000    0.00000000    0.00000000
     atom    2 type  1   force =     0.00000000    0.00000000    0.00000000
     atom    3 type  2   force =     0.00000000    0.00000000    0.00000000
     atom    4 type  2   force =     0.00000000    0.00000000    0.00000000
     The SCF correction term to forces
     atom    1 type  1   force =    -0.00002340    0.00003621    0.00009588
     atom    2 type  1   force =    -0.00001378   -0.00003983   -0.00008074
     atom    3 type  2   force =    -0.00000706    0.00000633   -0.00001517
     atom    4 type  2   force =    -0.00001557   -0.00001647    0.00005198

     Total force =     0.524867     Total SCF correction =     0.000151

     Writing all to output data dir ./ZnO_ANN.save/

     init_run     :      3.98s CPU      4.08s WALL (       1 calls)
     electrons    :    412.95s CPU    419.15s WALL (       1 calls)
     forces       :      1.33s CPU      1.35s WALL (       1 calls)

     Called by init_run:
     wfcinit      :      2.98s CPU      3.03s WALL (       1 calls)
     potinit      :      0.33s CPU      0.34s WALL (       1 calls)
     hinit0       :      0.57s CPU      0.58s WALL (       1 calls)

     Called by electrons:
     c_bands      :    364.08s CPU    369.36s WALL (      52 calls)
     sum_band     :     43.68s CPU     44.46s WALL (      52 calls)
     v_of_rho     :      1.04s CPU      1.11s WALL (      53 calls)
     newd         :      3.94s CPU      3.99s WALL (      53 calls)
     mix_rho      :      0.18s CPU      0.20s WALL (      52 calls)

     Called by c_bands:
     init_us_2    :      3.25s CPU      3.30s WALL (   11872 calls)
     init_us_2:cp :      3.22s CPU      3.27s WALL (   11872 calls)
     cegterg      :    353.03s CPU    358.17s WALL (    5824 calls)

     Called by *egterg:
     cdiaghg      :     37.42s CPU     37.75s WALL (   37268 calls)
     h_psi        :    196.90s CPU    200.59s WALL (   37380 calls)
     s_psi        :     23.82s CPU     24.00s WALL (   37380 calls)
     g_psi        :      0.74s CPU      0.74s WALL (   31444 calls)

     Called by h_psi:
     h_psi:calbec :     30.75s CPU     31.54s WALL (   37380 calls)
     vloc_psi     :    141.55s CPU    144.28s WALL (   37380 calls)
     add_vuspsi   :     23.92s CPU     24.10s WALL (   37380 calls)

     General routines
     calbec       :     41.93s CPU     42.97s WALL (   43652 calls)
     fft          :      1.28s CPU      1.39s WALL (     698 calls)
     ffts         :      0.16s CPU      0.17s WALL (     105 calls)
     fftw         :    146.11s CPU    148.91s WALL (  703916 calls)
     interpolate  :      0.20s CPU      0.21s WALL (      53 calls)

     Parallel routines

     PWSCF        :   6m59.00s CPU   7m 5.56s WALL


   This run was terminated on:  17:59:25  23Jun2025            

=------------------------------------------------------------------------------=
   JOB DONE.
=------------------------------------------------------------------------------=
Note: The following floating-point exceptions are signalling: IEEE_INVALID_FLAG
