
     Program PWSCF v.7.2 starts on 23Jun2025 at 14:16: 9 

     This program is part of the open-source Quantum ESPRESSO suite
     for quantum simulation of materials; please cite
         "P. Giannozzi et al., J. Phys.:Condens. Matter 21 395502 (2009);
         "P. Giannozzi et al., J. Phys.:Condens. Matter 29 465901 (2017);
         "P. Giannozzi et al., J. Chem. Phys. 152 154105 (2020);
          URL http://www.quantum-espresso.org", 
     in publications or presentations arising from this work. More details at
     http://www.quantum-espresso.org/quote

     Parallel version (MPI), running on     8 processors

     MPI processes distributed on     1 nodes
     91144 MiB available memory on the printing compute node when the environment starts

     Reading input from /home/jvc/QEspresso7.2/ZnO_DataBase/scfs_rnd025.in/scf-6.18-1.45-3.in

     Current dimensions of program PWSCF are:
     Max number of different atomic species (ntypx) = 10
     Max number of k-points (npk) =  40000
     Max angular momentum in pseudopotentials (lmaxx) =  4
     file Zn.upf: wavefunction(s)  3D renormalized

     R & G space division:  proc/nbgrp/npool/nimage =       8
     Subspace diagonalization in iterative solution of the eigenvalue problem:
     a serial algorithm will be used


     Parallelization info
     --------------------
     sticks:   dense  smooth     PW     G-vecs:    dense   smooth      PW
     Min         130      64     20                 5028     1766     302
     Max         132      66     21                 5031     1769     307
     Sum        1045     517    163                40233    14141    2429

     Using Slab Decomposition



     bravais-lattice index     =            4
     lattice parameter (alat)  =       6.1788  a.u.
     unit-cell volume          =     296.8179 (a.u.)^3
     number of atoms/cell      =            4
     number of atomic types    =            2
     number of electrons       =        36.00
     number of Kohn-Sham states=           18
     kinetic-energy cutoff     =      50.0000  Ry
     charge density cutoff     =     400.0000  Ry
     scf convergence threshold =      1.0E-08
     mixing beta               =       0.3000
     number of iterations used =            8  plain     mixing
     Exchange-correlation= PBE
                           (   1   4   3   4   0   0   0)

     celldm(1)=   6.178821  celldm(2)=   0.000000  celldm(3)=   1.452923
     celldm(4)=   0.000000  celldm(5)=   0.000000  celldm(6)=   0.000000

     crystal axes: (cart. coord. in units of alat)
               a(1) = (   1.000000   0.000000   0.000000 )  
               a(2) = (  -0.500000   0.866025   0.000000 )  
               a(3) = (   0.000000   0.000000   1.452923 )  

     reciprocal axes: (cart. coord. in units 2 pi/alat)
               b(1) = (  1.000000  0.577350 -0.000000 )  
               b(2) = (  0.000000  1.154701  0.000000 )  
               b(3) = (  0.000000 -0.000000  0.688268 )  


     PseudoPot. # 1 for Zn read from file:
     ./pseudos/Zn.upf
     MD5 check sum: 7f56cabf9682ed8c977c2f7d0c5985c5
     Pseudo is Ultrasoft + core correction, Zval = 12.0
     Generated using &quot;atomic&quot; code by A. Dal Corso  v.6.2.2
     Using radial grid of 1201 points,  6 beta functions with: 
                l(1) =   0
                l(2) =   0
                l(3) =   1
                l(4) =   1
                l(5) =   2
                l(6) =   2
     Q(r) pseudized with 0 coefficients 


     PseudoPot. # 2 for O  read from file:
     ./pseudos/O.upf
     MD5 check sum: 91400c9766925bcf19f520983a725ff0
     Pseudo is Ultrasoft + core correction, Zval =  6.0
     Generated using &quot;atomic&quot; code by A. Dal Corso  v.6.3MaX
     Using radial grid of 1095 points,  4 beta functions with: 
                l(1) =   0
                l(2) =   0
                l(3) =   1
                l(4) =   1
     Q(r) pseudized with 0 coefficients 


     atomic species   valence    mass     pseudopotential
        Zn            12.00    63.38000     Zn( 1.00)
        O              6.00    15.99900     O ( 1.00)

     No symmetry found



   Cartesian axes

     site n.     atom                  positions (alat units)
         1           Zn  tau(   1) = (   0.7246142   0.2894001   0.8203295  )
         2           Zn  tau(   2) = (  -0.2594687   0.7151171  -0.1663240  )
         3           O   tau(   3) = (   0.6107703   0.3777575   1.2411001  )
         4           O   tau(   4) = (   0.2630544   0.5494889   0.2216972  )

     number of k points=   112

     Number of k-points >= 100: set verbosity='high' to print them.

     Dense  grid:    40233 G-vectors     FFT dimensions: (  40,  40,  60)

     Smooth grid:    14141 G-vectors     FFT dimensions: (  27,  27,  45)

     Estimated max dynamical RAM per process >      27.98 MB

     Estimated total dynamical RAM >     223.81 MB

     Check: negative core charge=   -0.000002

     Initial potential from superposition of free atoms

     starting charge      35.9925, renormalised to      36.0000
     Starting wfcs are   26 randomized atomic wfcs

     total cpu time spent up to now is        3.8 secs

     Self-consistent Calculation

     iteration #  1     ecut=    50.00 Ry     beta= 0.30
     Davidson diagonalization with overlap
     ethr =  1.00E-02,  avg # of iterations =  2.6

     total cpu time spent up to now is        9.0 secs

     total energy              =    -359.51402620 Ry
     estimated scf accuracy    <       1.59631322 Ry

     iteration #  2     ecut=    50.00 Ry     beta= 0.30
     Davidson diagonalization with overlap
     ethr =  4.43E-03,  avg # of iterations =  5.4

     total cpu time spent up to now is       15.5 secs

     total energy              =    -359.81326500 Ry
     estimated scf accuracy    <       0.15804119 Ry

     iteration #  3     ecut=    50.00 Ry     beta= 0.30
     Davidson diagonalization with overlap
     c_bands:  2 eigenvalues not converged
     ethr =  4.39E-04,  avg # of iterations =  6.4

     total cpu time spent up to now is       24.9 secs

     total energy              =    -359.89715652 Ry
     estimated scf accuracy    <       0.09113986 Ry

     iteration #  4     ecut=    50.00 Ry     beta= 0.30
     Davidson diagonalization with overlap
     ethr =  2.53E-04,  avg # of iterations =  4.1

     total cpu time spent up to now is       30.5 secs

     total energy              =    -359.90380688 Ry
     estimated scf accuracy    <       0.01266952 Ry

     iteration #  5     ecut=    50.00 Ry     beta= 0.30
     Davidson diagonalization with overlap
     c_bands:  1 eigenvalues not converged
     c_bands:  2 eigenvalues not converged
     ethr =  3.52E-05,  avg # of iterations =  9.7

     total cpu time spent up to now is       42.0 secs

     total energy              =    -359.89397004 Ry
     estimated scf accuracy    <       0.04932994 Ry

     iteration #  6     ecut=    50.00 Ry     beta= 0.30
     Davidson diagonalization with overlap
     c_bands:  1 eigenvalues not converged
     c_bands:  1 eigenvalues not converged
     c_bands:  1 eigenvalues not converged
     c_bands:  1 eigenvalues not converged
     ethr =  3.52E-05,  avg # of iterations = 12.3

     total cpu time spent up to now is       56.2 secs

     total energy              =    -359.89886984 Ry
     estimated scf accuracy    <       0.06837727 Ry

     iteration #  7     ecut=    50.00 Ry     beta= 0.30
     Davidson diagonalization with overlap
     ethr =  3.52E-05,  avg # of iterations =  9.1

     total cpu time spent up to now is       67.5 secs

     total energy              =    -359.91562197 Ry
     estimated scf accuracy    <       0.00298430 Ry

     iteration #  8     ecut=    50.00 Ry     beta= 0.30
     Davidson diagonalization with overlap
     ethr =  8.29E-06,  avg # of iterations =  7.1

     total cpu time spent up to now is       74.4 secs

     total energy              =    -359.91416038 Ry
     estimated scf accuracy    <       0.00873200 Ry

     iteration #  9     ecut=    50.00 Ry     beta= 0.30
     Davidson diagonalization with overlap
     ethr =  8.29E-06,  avg # of iterations =  4.0

     total cpu time spent up to now is       80.2 secs

     total energy              =    -359.91379599 Ry
     estimated scf accuracy    <       0.00269005 Ry

     iteration # 10     ecut=    50.00 Ry     beta= 0.30
     Davidson diagonalization with overlap
     ethr =  7.47E-06,  avg # of iterations =  5.8

     total cpu time spent up to now is       87.3 secs

     total energy              =    -359.91470900 Ry
     estimated scf accuracy    <       0.00006331 Ry

     iteration # 11     ecut=    50.00 Ry     beta= 0.30
     Davidson diagonalization with overlap
     c_bands:  1 eigenvalues not converged
     ethr =  1.76E-07,  avg # of iterations = 10.0

     total cpu time spent up to now is       98.6 secs

     total energy              =    -359.91482597 Ry
     estimated scf accuracy    <       0.00006147 Ry

     iteration # 12     ecut=    50.00 Ry     beta= 0.30
     Davidson diagonalization with overlap
     ethr =  1.71E-07,  avg # of iterations =  1.2

     total cpu time spent up to now is      103.0 secs

     total energy              =    -359.91481617 Ry
     estimated scf accuracy    <       0.00005323 Ry

     iteration # 13     ecut=    50.00 Ry     beta= 0.30
     Davidson diagonalization with overlap
     ethr =  1.48E-07,  avg # of iterations =  2.1

     total cpu time spent up to now is      108.0 secs

     total energy              =    -359.91481578 Ry
     estimated scf accuracy    <       0.00002359 Ry

     iteration # 14     ecut=    50.00 Ry     beta= 0.30
     Davidson diagonalization with overlap
     ethr =  6.55E-08,  avg # of iterations =  3.3

     total cpu time spent up to now is      113.4 secs

     total energy              =    -359.91481767 Ry
     estimated scf accuracy    <       0.00000860 Ry

     iteration # 15     ecut=    50.00 Ry     beta= 0.30
     Davidson diagonalization with overlap
     ethr =  2.39E-08,  avg # of iterations =  5.9

     total cpu time spent up to now is      120.0 secs

     total energy              =    -359.91482008 Ry
     estimated scf accuracy    <       0.00000123 Ry

     iteration # 16     ecut=    50.00 Ry     beta= 0.30
     Davidson diagonalization with overlap
     ethr =  3.41E-09,  avg # of iterations =  4.5

     total cpu time spent up to now is      126.1 secs

     total energy              =    -359.91482083 Ry
     estimated scf accuracy    <       0.00000140 Ry

     iteration # 17     ecut=    50.00 Ry     beta= 0.30
     Davidson diagonalization with overlap
     ethr =  3.41E-09,  avg # of iterations =  7.0

     total cpu time spent up to now is      133.9 secs

     total energy              =    -359.91481865 Ry
     estimated scf accuracy    <       0.00000800 Ry

     iteration # 18     ecut=    50.00 Ry     beta= 0.30
     Davidson diagonalization with overlap
     c_bands:  1 eigenvalues not converged
     ethr =  3.41E-09,  avg # of iterations =  9.6

     total cpu time spent up to now is      143.9 secs

     total energy              =    -359.91482011 Ry
     estimated scf accuracy    <       0.00000024 Ry

     iteration # 19     ecut=    50.00 Ry     beta= 0.30
     Davidson diagonalization with overlap
     ethr =  6.76E-10,  avg # of iterations =  5.9

     total cpu time spent up to now is      150.3 secs

     total energy              =    -359.91482016 Ry
     estimated scf accuracy    <       0.00000032 Ry

     iteration # 20     ecut=    50.00 Ry     beta= 0.30
     Davidson diagonalization with overlap
     ethr =  6.76E-10,  avg # of iterations =  1.7

     total cpu time spent up to now is      155.1 secs

     total energy              =    -359.91482009 Ry
     estimated scf accuracy    <       0.00000028 Ry

     iteration # 21     ecut=    50.00 Ry     beta= 0.30
     Davidson diagonalization with overlap
     ethr =  6.76E-10,  avg # of iterations =  2.4

     total cpu time spent up to now is      160.1 secs

     total energy              =    -359.91482010 Ry
     estimated scf accuracy    <       0.00000011 Ry

     iteration # 22     ecut=    50.00 Ry     beta= 0.30
     Davidson diagonalization with overlap
     ethr =  2.93E-10,  avg # of iterations =  4.8

     total cpu time spent up to now is      165.7 secs

     total energy              =    -359.91482010 Ry
     estimated scf accuracy    <       0.00000003 Ry

     iteration # 23     ecut=    50.00 Ry     beta= 0.30
     Davidson diagonalization with overlap
     c_bands:  1 eigenvalues not converged
     c_bands:  1 eigenvalues not converged
     ethr =  6.97E-11,  avg # of iterations =  7.2

     total cpu time spent up to now is      173.3 secs

     End of self-consistent calculation

     Number of k-points >= 100: set verbosity='high' to print the bands.

     highest occupied level (ev):    10.0999

!    total energy              =    -359.91482012 Ry
     estimated scf accuracy    <          5.4E-09 Ry

     The total energy is the sum of the following terms:
     one-electron contribution =    -188.75429149 Ry
     hartree contribution      =     135.05154995 Ry
     xc contribution           =    -110.12398020 Ry
     ewald contribution        =    -196.08809839 Ry

     convergence has been achieved in  23 iterations

     Forces acting on atoms (cartesian axes, Ry/au):

     atom    1 type  1   force =     0.18425542   -0.25353298   -0.95459981
     atom    2 type  1   force =     1.08595114    2.84800107    0.59852893
     atom    3 type  2   force =    -1.16326369   -2.64122576    0.14880985
     atom    4 type  2   force =    -0.10694287    0.04675767    0.20726103
     The non-local contrib.  to forces
     atom    1 type  1   force =     0.17839278    0.04394576   -0.48780075
     atom    2 type  1   force =     0.18188164    0.66910386   -0.26523166
     atom    3 type  2   force =     0.44468763    0.33888573   -1.33576236
     atom    4 type  2   force =    -0.23637405    0.22470043    0.18825489
     The ionic contribution  to forces
     atom    1 type  1   force =     3.54701313   -6.22580428  -29.85422066
     atom    2 type  1   force =     7.34905796   22.84029053   11.32121960
     atom    3 type  2   force =    -8.97633746  -16.52435366    8.61726299
     atom    4 type  2   force =    -1.91973363   -0.09013260    9.91573807
     The local contribution  to forces
     atom    1 type  1   force =    -3.50807125    5.89787560   29.25843358
     atom    2 type  1   force =    -6.35620480  -20.40052197  -10.41617949
     atom    3 type  2   force =     7.36731640   13.53724499   -7.14238503
     atom    4 type  2   force =     2.04595787   -0.08549063   -9.89310750
     The core correction contribution to forces
     atom    1 type  1   force =    -0.03308338    0.03042783    0.12907152
     atom    2 type  1   force =    -0.08877272   -0.26083196   -0.04136038
     atom    3 type  2   force =     0.00108793    0.00699252    0.00964904
     atom    4 type  2   force =     0.00320108   -0.00232200   -0.00365956
     The Hubbard contrib.    to forces
     atom    1 type  1   force =     0.00000000    0.00000000    0.00000000
     atom    2 type  1   force =     0.00000000    0.00000000    0.00000000
     atom    3 type  2   force =     0.00000000    0.00000000    0.00000000
     atom    4 type  2   force =     0.00000000    0.00000000    0.00000000
     The SCF correction term to forces
     atom    1 type  1   force =     0.00000249    0.00002198   -0.00008094
     atom    2 type  1   force =    -0.00001259   -0.00003953    0.00008343
     atom    3 type  2   force =    -0.00001983    0.00000453    0.00004778
     atom    4 type  2   force =     0.00000422    0.00000234    0.00003770

     Total force =     4.366475     Total SCF correction =     0.000141

     Writing all to output data dir ./ZnO_ANN.save/

     init_run     :      3.23s CPU      3.33s WALL (       1 calls)
     electrons    :    166.24s CPU    169.52s WALL (       1 calls)
     forces       :      0.94s CPU      0.95s WALL (       1 calls)

     Called by init_run:
     wfcinit      :      2.43s CPU      2.49s WALL (       1 calls)
     potinit      :      0.19s CPU      0.20s WALL (       1 calls)
     hinit0       :      0.53s CPU      0.55s WALL (       1 calls)

     Called by electrons:
     c_bands      :    148.63s CPU    151.49s WALL (      23 calls)
     sum_band     :     16.00s CPU     16.37s WALL (      23 calls)
     v_of_rho     :      0.33s CPU      0.36s WALL (      24 calls)
     newd         :      1.25s CPU      1.28s WALL (      24 calls)
     mix_rho      :      0.05s CPU      0.06s WALL (      23 calls)

     Called by c_bands:
     init_us_2    :      1.09s CPU      1.12s WALL (    5376 calls)
     init_us_2:cp :      1.08s CPU      1.10s WALL (    5376 calls)
     cegterg      :    145.26s CPU    148.05s WALL (    2576 calls)

     Called by *egterg:
     cdiaghg      :     19.23s CPU     19.41s WALL (   17382 calls)
     h_psi        :     86.00s CPU     88.10s WALL (   17494 calls)
     s_psi        :     10.20s CPU     10.31s WALL (   17494 calls)
     g_psi        :      0.27s CPU      0.27s WALL (   14806 calls)

     Called by h_psi:
     h_psi:calbec :     10.73s CPU     11.12s WALL (   17494 calls)
     vloc_psi     :     64.78s CPU     66.35s WALL (   17494 calls)
     add_vuspsi   :     10.18s CPU     10.31s WALL (   17494 calls)

     General routines
     calbec       :     14.46s CPU     14.97s WALL (   20518 calls)
     fft          :      0.57s CPU      0.61s WALL (     321 calls)
     ffts         :      0.08s CPU      0.08s WALL (      47 calls)
     fftw         :     66.90s CPU     68.53s WALL (  342272 calls)
     interpolate  :      0.09s CPU      0.09s WALL (      24 calls)

     Parallel routines

     PWSCF        :   2m51.12s CPU   2m54.70s WALL


   This run was terminated on:  14:19: 3  23Jun2025            

=------------------------------------------------------------------------------=
   JOB DONE.
=------------------------------------------------------------------------------=
Note: The following floating-point exceptions are signalling: IEEE_INVALID_FLAG
