
     Program PWSCF v.7.2 starts on 23Jun2025 at 15:16:47 

     This program is part of the open-source Quantum ESPRESSO suite
     for quantum simulation of materials; please cite
         "P. Giannozzi et al., J. Phys.:Condens. Matter 21 395502 (2009);
         "P. Giannozzi et al., J. Phys.:Condens. Matter 29 465901 (2017);
         "P. Giannozzi et al., J. Chem. Phys. 152 154105 (2020);
          URL http://www.quantum-espresso.org", 
     in publications or presentations arising from this work. More details at
     http://www.quantum-espresso.org/quote

     Parallel version (MPI), running on     8 processors

     MPI processes distributed on     1 nodes
     90973 MiB available memory on the printing compute node when the environment starts

     Reading input from /home/jvc/QEspresso7.2/ZnO_DataBase/scfs_rnd025.in/scf-6.30-1.61-1.in

     Current dimensions of program PWSCF are:
     Max number of different atomic species (ntypx) = 10
     Max number of k-points (npk) =  40000
     Max angular momentum in pseudopotentials (lmaxx) =  4
     file Zn.upf: wavefunction(s)  3D renormalized

     R & G space division:  proc/nbgrp/npool/nimage =       8
     Subspace diagonalization in iterative solution of the eigenvalue problem:
     a serial algorithm will be used


     Parallelization info
     --------------------
     sticks:   dense  smooth     PW     G-vecs:    dense   smooth      PW
     Min         137      68     20                 5907     2080     348
     Max         138      69     21                 5910     2087     355
     Sum        1099     547    163                47267    16659    2803

     Using Slab Decomposition



     bravais-lattice index     =            4
     lattice parameter (alat)  =       6.3024  a.u.
     unit-cell volume          =     349.9839 (a.u.)^3
     number of atoms/cell      =            4
     number of atomic types    =            2
     number of electrons       =        36.00
     number of Kohn-Sham states=           18
     kinetic-energy cutoff     =      50.0000  Ry
     charge density cutoff     =     400.0000  Ry
     scf convergence threshold =      1.0E-08
     mixing beta               =       0.3000
     number of iterations used =            8  plain     mixing
     Exchange-correlation= PBE
                           (   1   4   3   4   0   0   0)

     celldm(1)=   6.302398  celldm(2)=   0.000000  celldm(3)=   1.614358
     celldm(4)=   0.000000  celldm(5)=   0.000000  celldm(6)=   0.000000

     crystal axes: (cart. coord. in units of alat)
               a(1) = (   1.000000   0.000000   0.000000 )  
               a(2) = (  -0.500000   0.866025   0.000000 )  
               a(3) = (   0.000000   0.000000   1.614358 )  

     reciprocal axes: (cart. coord. in units 2 pi/alat)
               b(1) = (  1.000000  0.577350 -0.000000 )  
               b(2) = (  0.000000  1.154701  0.000000 )  
               b(3) = (  0.000000 -0.000000  0.619441 )  


     PseudoPot. # 1 for Zn read from file:
     ./pseudos/Zn.upf
     MD5 check sum: 7f56cabf9682ed8c977c2f7d0c5985c5
     Pseudo is Ultrasoft + core correction, Zval = 12.0
     Generated using &quot;atomic&quot; code by A. Dal Corso  v.6.2.2
     Using radial grid of 1201 points,  6 beta functions with: 
                l(1) =   0
                l(2) =   0
                l(3) =   1
                l(4) =   1
                l(5) =   2
                l(6) =   2
     Q(r) pseudized with 0 coefficients 


     PseudoPot. # 2 for O  read from file:
     ./pseudos/O.upf
     MD5 check sum: 91400c9766925bcf19f520983a725ff0
     Pseudo is Ultrasoft + core correction, Zval =  6.0
     Generated using &quot;atomic&quot; code by A. Dal Corso  v.6.3MaX
     Using radial grid of 1095 points,  4 beta functions with: 
                l(1) =   0
                l(2) =   0
                l(3) =   1
                l(4) =   1
     Q(r) pseudized with 0 coefficients 


     atomic species   valence    mass     pseudopotential
        Zn            12.00    63.38000     Zn( 1.00)
        O              6.00    15.99900     O ( 1.00)

     No symmetry found



   Cartesian axes

     site n.     atom                  positions (alat units)
         1           Zn  tau(   1) = (   0.6665318   0.1432362   0.4852368  )
         2           Zn  tau(   2) = (  -0.0020293   0.6053568  -0.1957078  )
         3           O   tau(   3) = (   0.5482341   0.4139251   1.3092829  )
         4           O   tau(   4) = (   0.0205645   0.5250973   0.8299026  )

     number of k points=   112

     Number of k-points >= 100: set verbosity='high' to print them.

     Dense  grid:    47267 G-vectors     FFT dimensions: (  45,  45,  72)

     Smooth grid:    16659 G-vectors     FFT dimensions: (  30,  30,  45)

     Estimated max dynamical RAM per process >      32.57 MB

     Estimated total dynamical RAM >     260.52 MB

     Check: negative core charge=   -0.000002

     Initial potential from superposition of free atoms

     starting charge      35.9925, renormalised to      36.0000
     Starting wfcs are   26 randomized atomic wfcs

     total cpu time spent up to now is        4.1 secs

     Self-consistent Calculation

     iteration #  1     ecut=    50.00 Ry     beta= 0.30
     Davidson diagonalization with overlap
     ethr =  1.00E-02,  avg # of iterations =  2.0

     total cpu time spent up to now is        9.5 secs

     total energy              =    -360.99159527 Ry
     estimated scf accuracy    <       1.19394956 Ry

     iteration #  2     ecut=    50.00 Ry     beta= 0.30
     Davidson diagonalization with overlap
     ethr =  3.32E-03,  avg # of iterations =  3.9

     total cpu time spent up to now is       16.1 secs

     total energy              =    -361.28379528 Ry
     estimated scf accuracy    <       0.03510532 Ry

     iteration #  3     ecut=    50.00 Ry     beta= 0.30
     Davidson diagonalization with overlap
     c_bands:  1 eigenvalues not converged
     ethr =  9.75E-05,  avg # of iterations = 11.0

     total cpu time spent up to now is       31.5 secs

     total energy              =    -361.23812557 Ry
     estimated scf accuracy    <       0.22302225 Ry

     iteration #  4     ecut=    50.00 Ry     beta= 0.30
     Davidson diagonalization with overlap
     ethr =  9.75E-05,  avg # of iterations = 13.1

     total cpu time spent up to now is       52.6 secs

     total energy              =    -361.36165776 Ry
     estimated scf accuracy    <       0.45827726 Ry

     iteration #  5     ecut=    50.00 Ry     beta= 0.30
     Davidson diagonalization with overlap
     ethr =  9.75E-05,  avg # of iterations =  4.8

     total cpu time spent up to now is       59.6 secs

     total energy              =    -361.27831575 Ry
     estimated scf accuracy    <       0.23034472 Ry

     iteration #  6     ecut=    50.00 Ry     beta= 0.30
     Davidson diagonalization with overlap
     ethr =  9.75E-05,  avg # of iterations =  9.4

     total cpu time spent up to now is       72.6 secs

     total energy              =    -361.34354060 Ry
     estimated scf accuracy    <       0.02406699 Ry

     iteration #  7     ecut=    50.00 Ry     beta= 0.30
     Davidson diagonalization with overlap
     ethr =  6.69E-05,  avg # of iterations =  1.5

     total cpu time spent up to now is       77.5 secs

     total energy              =    -361.33609463 Ry
     estimated scf accuracy    <       0.01429528 Ry

     iteration #  8     ecut=    50.00 Ry     beta= 0.30
     Davidson diagonalization with overlap
     ethr =  3.97E-05,  avg # of iterations =  6.2

     total cpu time spent up to now is       87.0 secs

     total energy              =    -361.34309563 Ry
     estimated scf accuracy    <       0.01188817 Ry

     iteration #  9     ecut=    50.00 Ry     beta= 0.30
     Davidson diagonalization with overlap
     ethr =  3.30E-05,  avg # of iterations =  1.2

     total cpu time spent up to now is       91.7 secs

     total energy              =    -361.34230923 Ry
     estimated scf accuracy    <       0.00563843 Ry

     iteration # 10     ecut=    50.00 Ry     beta= 0.30
     Davidson diagonalization with overlap
     ethr =  1.57E-05,  avg # of iterations =  3.4

     total cpu time spent up to now is       97.8 secs

     total energy              =    -361.34316005 Ry
     estimated scf accuracy    <       0.00073098 Ry

     iteration # 11     ecut=    50.00 Ry     beta= 0.30
     Davidson diagonalization with overlap
     c_bands:  3 eigenvalues not converged
     c_bands:  1 eigenvalues not converged
     ethr =  2.03E-06,  avg # of iterations =  6.8

     total cpu time spent up to now is      106.3 secs

     total energy              =    -361.34371251 Ry
     estimated scf accuracy    <       0.00004681 Ry

     iteration # 12     ecut=    50.00 Ry     beta= 0.30
     Davidson diagonalization with overlap
     c_bands:  1 eigenvalues not converged
     c_bands:  1 eigenvalues not converged
     c_bands:  1 eigenvalues not converged
     c_bands:  1 eigenvalues not converged
     c_bands:  1 eigenvalues not converged
     ethr =  1.30E-07,  avg # of iterations = 12.4

     total cpu time spent up to now is      120.8 secs

     total energy              =    -361.34388708 Ry
     estimated scf accuracy    <       0.00116573 Ry

     iteration # 13     ecut=    50.00 Ry     beta= 0.30
     Davidson diagonalization with overlap
     ethr =  1.30E-07,  avg # of iterations =  2.6

     total cpu time spent up to now is      126.3 secs

     total energy              =    -361.34402091 Ry
     estimated scf accuracy    <       0.00100525 Ry

     iteration # 14     ecut=    50.00 Ry     beta= 0.30
     Davidson diagonalization with overlap
     ethr =  1.30E-07,  avg # of iterations =  2.8

     total cpu time spent up to now is      132.1 secs

     total energy              =    -361.34397728 Ry
     estimated scf accuracy    <       0.00128809 Ry

     iteration # 15     ecut=    50.00 Ry     beta= 0.30
     Davidson diagonalization with overlap
     ethr =  1.30E-07,  avg # of iterations =  1.5

     total cpu time spent up to now is      137.0 secs

     total energy              =    -361.34391164 Ry
     estimated scf accuracy    <       0.00123210 Ry

     iteration # 16     ecut=    50.00 Ry     beta= 0.30
     Davidson diagonalization with overlap
     ethr =  1.30E-07,  avg # of iterations =  6.2

     total cpu time spent up to now is      145.5 secs

     total energy              =    -361.34380356 Ry
     estimated scf accuracy    <       0.00097445 Ry

     iteration # 17     ecut=    50.00 Ry     beta= 0.30
     Davidson diagonalization with overlap
     c_bands:  1 eigenvalues not converged
     ethr =  1.30E-07,  avg # of iterations =  5.7

     total cpu time spent up to now is      154.2 secs

     total energy              =    -361.34373069 Ry
     estimated scf accuracy    <       0.00043185 Ry

     iteration # 18     ecut=    50.00 Ry     beta= 0.30
     Davidson diagonalization with overlap
     ethr =  1.30E-07,  avg # of iterations =  6.9

     total cpu time spent up to now is      164.0 secs

     total energy              =    -361.34377791 Ry
     estimated scf accuracy    <       0.00005382 Ry

     iteration # 19     ecut=    50.00 Ry     beta= 0.30
     Davidson diagonalization with overlap
     ethr =  1.30E-07,  avg # of iterations =  1.1

     total cpu time spent up to now is      168.8 secs

     total energy              =    -361.34375598 Ry
     estimated scf accuracy    <       0.00006374 Ry

     iteration # 20     ecut=    50.00 Ry     beta= 0.30
     Davidson diagonalization with overlap
     ethr =  1.30E-07,  avg # of iterations =  6.6

     total cpu time spent up to now is      177.0 secs

     total energy              =    -361.34380184 Ry
     estimated scf accuracy    <       0.00003043 Ry

     iteration # 21     ecut=    50.00 Ry     beta= 0.30
     Davidson diagonalization with overlap
     c_bands:  1 eigenvalues not converged
     c_bands:  1 eigenvalues not converged
     c_bands:  1 eigenvalues not converged
     ethr =  8.45E-08,  avg # of iterations =  9.5

     total cpu time spent up to now is      188.6 secs

     total energy              =    -361.34389251 Ry
     estimated scf accuracy    <       0.00039640 Ry

     iteration # 22     ecut=    50.00 Ry     beta= 0.30
     Davidson diagonalization with overlap
     c_bands:  1 eigenvalues not converged
     ethr =  8.45E-08,  avg # of iterations =  6.8

     total cpu time spent up to now is      197.0 secs

     total energy              =    -361.34366409 Ry
     estimated scf accuracy    <       0.00076076 Ry

     iteration # 23     ecut=    50.00 Ry     beta= 0.30
     Davidson diagonalization with overlap
     c_bands:  1 eigenvalues not converged
     ethr =  8.45E-08,  avg # of iterations = 11.8

     total cpu time spent up to now is      213.6 secs

     total energy              =    -361.34374201 Ry
     estimated scf accuracy    <       0.00012176 Ry

     iteration # 24     ecut=    50.00 Ry     beta= 0.30
     Davidson diagonalization with overlap
     c_bands:  1 eigenvalues not converged
     ethr =  8.45E-08,  avg # of iterations =  7.8

     total cpu time spent up to now is      223.5 secs

     total energy              =    -361.34376843 Ry
     estimated scf accuracy    <       0.00000341 Ry

     iteration # 25     ecut=    50.00 Ry     beta= 0.30
     Davidson diagonalization with overlap
     ethr =  9.47E-09,  avg # of iterations =  7.0

     total cpu time spent up to now is      231.6 secs

     total energy              =    -361.34376931 Ry
     estimated scf accuracy    <       0.00000516 Ry

     iteration # 26     ecut=    50.00 Ry     beta= 0.30
     Davidson diagonalization with overlap
     ethr =  9.47E-09,  avg # of iterations =  2.7

     total cpu time spent up to now is      237.3 secs

     total energy              =    -361.34376878 Ry
     estimated scf accuracy    <       0.00000335 Ry

     iteration # 27     ecut=    50.00 Ry     beta= 0.30
     Davidson diagonalization with overlap
     c_bands:  1 eigenvalues not converged
     ethr =  9.31E-09,  avg # of iterations =  6.3

     total cpu time spent up to now is      245.3 secs

     total energy              =    -361.34376893 Ry
     estimated scf accuracy    <       0.00000426 Ry

     iteration # 28     ecut=    50.00 Ry     beta= 0.30
     Davidson diagonalization with overlap
     ethr =  9.31E-09,  avg # of iterations =  2.1

     total cpu time spent up to now is      250.7 secs

     total energy              =    -361.34376870 Ry
     estimated scf accuracy    <       0.00000188 Ry

     iteration # 29     ecut=    50.00 Ry     beta= 0.30
     Davidson diagonalization with overlap
     ethr =  5.23E-09,  avg # of iterations =  6.7

     total cpu time spent up to now is      259.1 secs

     total energy              =    -361.34376942 Ry
     estimated scf accuracy    <       0.00000062 Ry

     iteration # 30     ecut=    50.00 Ry     beta= 0.30
     Davidson diagonalization with overlap
     ethr =  1.71E-09,  avg # of iterations =  2.6

     total cpu time spent up to now is      264.6 secs

     total energy              =    -361.34376932 Ry
     estimated scf accuracy    <       0.00000043 Ry

     iteration # 31     ecut=    50.00 Ry     beta= 0.30
     Davidson diagonalization with overlap
     ethr =  1.19E-09,  avg # of iterations =  4.4

     total cpu time spent up to now is      271.2 secs

     total energy              =    -361.34376940 Ry
     estimated scf accuracy    <       0.00000005 Ry

     iteration # 32     ecut=    50.00 Ry     beta= 0.30
     Davidson diagonalization with overlap
     c_bands:  1 eigenvalues not converged
     ethr =  1.26E-10,  avg # of iterations =  6.4

     total cpu time spent up to now is      280.2 secs

     total energy              =    -361.34376943 Ry
     estimated scf accuracy    <       0.00000006 Ry

     iteration # 33     ecut=    50.00 Ry     beta= 0.30
     Davidson diagonalization with overlap
     ethr =  1.26E-10,  avg # of iterations =  1.3

     total cpu time spent up to now is      285.1 secs

     total energy              =    -361.34376943 Ry
     estimated scf accuracy    <       0.00000004 Ry

     iteration # 34     ecut=    50.00 Ry     beta= 0.30
     Davidson diagonalization with overlap
     ethr =  1.17E-10,  avg # of iterations =  1.3

     total cpu time spent up to now is      290.1 secs

     total energy              =    -361.34376942 Ry
     estimated scf accuracy    <       0.00000005 Ry

     iteration # 35     ecut=    50.00 Ry     beta= 0.30
     Davidson diagonalization with overlap
     c_bands:  1 eigenvalues not converged
     ethr =  1.17E-10,  avg # of iterations =  5.5

     total cpu time spent up to now is      297.6 secs

     total energy              =    -361.34376943 Ry
     estimated scf accuracy    <       0.00000002 Ry

     iteration # 36     ecut=    50.00 Ry     beta= 0.30
     Davidson diagonalization with overlap
     ethr =  6.42E-11,  avg # of iterations =  2.0

     total cpu time spent up to now is      302.9 secs

     total energy              =    -361.34376942 Ry
     estimated scf accuracy    <       0.00000002 Ry

     iteration # 37     ecut=    50.00 Ry     beta= 0.30
     Davidson diagonalization with overlap
     ethr =  5.87E-11,  avg # of iterations =  2.5

     total cpu time spent up to now is      308.5 secs

     total energy              =    -361.34376942 Ry
     estimated scf accuracy    <       0.00000001 Ry

     iteration # 38     ecut=    50.00 Ry     beta= 0.30
     Davidson diagonalization with overlap
     ethr =  3.08E-11,  avg # of iterations =  6.6

     total cpu time spent up to now is      317.6 secs

     End of self-consistent calculation

     Number of k-points >= 100: set verbosity='high' to print the bands.

     highest occupied level (ev):     6.4470

!    total energy              =    -361.34376942 Ry
     estimated scf accuracy    <          8.0E-09 Ry

     The total energy is the sum of the following terms:
     one-electron contribution =    -161.61708812 Ry
     hartree contribution      =     120.29886188 Ry
     xc contribution           =    -109.22328381 Ry
     ewald contribution        =    -210.80225937 Ry

     convergence has been achieved in  38 iterations

     Forces acting on atoms (cartesian axes, Ry/au):

     atom    1 type  1   force =    -0.00055541    0.01058178    0.08974926
     atom    2 type  1   force =     0.18501338    0.08539609    0.00407545
     atom    3 type  2   force =    -0.19460684   -0.10447629    0.09725457
     atom    4 type  2   force =     0.01014887    0.00849842   -0.19107928
     The non-local contrib.  to forces
     atom    1 type  1   force =    -0.07639456    0.13497439   -0.53333268
     atom    2 type  1   force =     0.38596913    0.32586149    0.48641483
     atom    3 type  2   force =     0.21314493    0.22119740    1.00616134
     atom    4 type  2   force =    -0.07615038    0.21336598   -0.65275974
     The ionic contribution  to forces
     atom    1 type  1   force =    -0.31526207    0.79280831   -2.45620780
     atom    2 type  1   force =     3.09458906    2.73426265    7.20127602
     atom    3 type  2   force =    -3.83293013   -2.37212486   -1.81664429
     atom    4 type  2   force =     1.05360314   -1.15494611   -2.92842393
     The local contribution  to forces
     atom    1 type  1   force =     0.38615931   -0.91093366    3.05218909
     atom    2 type  1   force =    -3.25833205   -2.94456452   -7.64487247
     atom    3 type  2   force =     3.42581328    2.04772888    0.91750106
     atom    4 type  2   force =    -0.96780737    0.95201673    3.38270477
     The core correction contribution to forces
     atom    1 type  1   force =     0.00493831   -0.00628050    0.02698734
     atom    2 type  1   force =    -0.03716807   -0.03012635   -0.03853119
     atom    3 type  2   force =    -0.00063881   -0.00128978   -0.00971410
     atom    4 type  2   force =     0.00049972   -0.00193459    0.00726783
     The Hubbard contrib.    to forces
     atom    1 type  1   force =     0.00000000    0.00000000    0.00000000
     atom    2 type  1   force =     0.00000000    0.00000000    0.00000000
     atom    3 type  2   force =     0.00000000    0.00000000    0.00000000
     atom    4 type  2   force =     0.00000000    0.00000000    0.00000000
     The SCF correction term to forces
     atom    1 type  1   force =    -0.00000279    0.00000999    0.00010422
     atom    2 type  1   force =    -0.00005107   -0.00004043   -0.00022082
     atom    3 type  2   force =    -0.00000249    0.00000883   -0.00005851
     atom    4 type  2   force =    -0.00000262   -0.00000683    0.00012271

     Total force =     0.380313     Total SCF correction =     0.000287

     Writing all to output data dir ./ZnO_ANN.save/

     init_run     :      3.56s CPU      3.66s WALL (       1 calls)
     electrons    :    307.87s CPU    313.49s WALL (       1 calls)
     forces       :      1.07s CPU      1.09s WALL (       1 calls)

     Called by init_run:
     wfcinit      :      2.69s CPU      2.76s WALL (       1 calls)
     potinit      :      0.26s CPU      0.27s WALL (       1 calls)
     hinit0       :      0.50s CPU      0.51s WALL (       1 calls)

     Called by electrons:
     c_bands      :    276.13s CPU    281.00s WALL (      38 calls)
     sum_band     :     28.59s CPU     29.27s WALL (      38 calls)
     v_of_rho     :      0.75s CPU      0.80s WALL (      39 calls)
     newd         :      2.29s CPU      2.32s WALL (      39 calls)
     mix_rho      :      0.12s CPU      0.13s WALL (      38 calls)

     Called by c_bands:
     init_us_2    :      2.09s CPU      2.12s WALL (    8736 calls)
     init_us_2:cp :      2.06s CPU      2.10s WALL (    8736 calls)
     cegterg      :    269.51s CPU    274.27s WALL (    4256 calls)

     Called by *egterg:
     cdiaghg      :     29.59s CPU     29.81s WALL (   26921 calls)
     h_psi        :    156.69s CPU    160.34s WALL (   27033 calls)
     s_psi        :     19.22s CPU     19.39s WALL (   27033 calls)
     g_psi        :      0.55s CPU      0.56s WALL (   22665 calls)

     Called by h_psi:
     h_psi:calbec :     21.17s CPU     21.92s WALL (   27033 calls)
     vloc_psi     :    115.74s CPU    118.45s WALL (   27033 calls)
     add_vuspsi   :     19.26s CPU     19.46s WALL (   27033 calls)

     General routines
     calbec       :     27.93s CPU     28.87s WALL (   31737 calls)
     fft          :      0.83s CPU      0.90s WALL (     516 calls)
     ffts         :      0.13s CPU      0.13s WALL (      77 calls)
     fftw         :    116.12s CPU    118.86s WALL (  586226 calls)
     interpolate  :      0.15s CPU      0.16s WALL (      39 calls)

     Parallel routines

     PWSCF        :   5m13.25s CPU   5m19.24s WALL


   This run was terminated on:  15:22: 7  23Jun2025            

=------------------------------------------------------------------------------=
   JOB DONE.
=------------------------------------------------------------------------------=
Note: The following floating-point exceptions are signalling: IEEE_INVALID_FLAG
