
     Program PWSCF v.7.2 starts on 23Jun2025 at 11:49:36 

     This program is part of the open-source Quantum ESPRESSO suite
     for quantum simulation of materials; please cite
         "P. Giannozzi et al., J. Phys.:Condens. Matter 21 395502 (2009);
         "P. Giannozzi et al., J. Phys.:Condens. Matter 29 465901 (2017);
         "P. Giannozzi et al., J. Chem. Phys. 152 154105 (2020);
          URL http://www.quantum-espresso.org", 
     in publications or presentations arising from this work. More details at
     http://www.quantum-espresso.org/quote

     Parallel version (MPI), running on     8 processors

     MPI processes distributed on     1 nodes
     91452 MiB available memory on the printing compute node when the environment starts

     Reading input from /home/jvc/QEspresso7.2/ZnO_DataBase/scfs_rnd025.in/scf-5.56-1.52-1.in

     Current dimensions of program PWSCF are:
     Max number of different atomic species (ntypx) = 10
     Max number of k-points (npk) =  40000
     Max angular momentum in pseudopotentials (lmaxx) =  4
     file Zn.upf: wavefunction(s)  3D renormalized

     R & G space division:  proc/nbgrp/npool/nimage =       8
     Subspace diagonalization in iterative solution of the eigenvalue problem:
     a serial algorithm will be used


     Parallelization info
     --------------------
     sticks:   dense  smooth     PW     G-vecs:    dense   smooth      PW
     Min         105      53     15                 3819     1353     231
     Max         106      55     16                 3826     1356     240
     Sum         847     433    127                30599    10837    1875

     Using Slab Decomposition



     bravais-lattice index     =            4
     lattice parameter (alat)  =       5.5609  a.u.
     unit-cell volume          =     225.9971 (a.u.)^3
     number of atoms/cell      =            4
     number of atomic types    =            2
     number of electrons       =        36.00
     number of Kohn-Sham states=           18
     kinetic-energy cutoff     =      50.0000  Ry
     charge density cutoff     =     400.0000  Ry
     scf convergence threshold =      1.0E-08
     mixing beta               =       0.3000
     number of iterations used =            8  plain     mixing
     Exchange-correlation= PBE
                           (   1   4   3   4   0   0   0)

     celldm(1)=   5.560939  celldm(2)=   0.000000  celldm(3)=   1.517497
     celldm(4)=   0.000000  celldm(5)=   0.000000  celldm(6)=   0.000000

     crystal axes: (cart. coord. in units of alat)
               a(1) = (   1.000000   0.000000   0.000000 )  
               a(2) = (  -0.500000   0.866025   0.000000 )  
               a(3) = (   0.000000   0.000000   1.517497 )  

     reciprocal axes: (cart. coord. in units 2 pi/alat)
               b(1) = (  1.000000  0.577350 -0.000000 )  
               b(2) = (  0.000000  1.154701  0.000000 )  
               b(3) = (  0.000000 -0.000000  0.658980 )  


     PseudoPot. # 1 for Zn read from file:
     ./pseudos/Zn.upf
     MD5 check sum: 7f56cabf9682ed8c977c2f7d0c5985c5
     Pseudo is Ultrasoft + core correction, Zval = 12.0
     Generated using &quot;atomic&quot; code by A. Dal Corso  v.6.2.2
     Using radial grid of 1201 points,  6 beta functions with: 
                l(1) =   0
                l(2) =   0
                l(3) =   1
                l(4) =   1
                l(5) =   2
                l(6) =   2
     Q(r) pseudized with 0 coefficients 


     PseudoPot. # 2 for O  read from file:
     ./pseudos/O.upf
     MD5 check sum: 91400c9766925bcf19f520983a725ff0
     Pseudo is Ultrasoft + core correction, Zval =  6.0
     Generated using &quot;atomic&quot; code by A. Dal Corso  v.6.3MaX
     Using radial grid of 1095 points,  4 beta functions with: 
                l(1) =   0
                l(2) =   0
                l(3) =   1
                l(4) =   1
     Q(r) pseudized with 0 coefficients 


     atomic species   valence    mass     pseudopotential
        Zn            12.00    63.38000     Zn( 1.00)
        O              6.00    15.99900     O ( 1.00)

     No symmetry found



   Cartesian axes

     site n.     atom                  positions (alat units)
         1           Zn  tau(   1) = (   0.4459557   0.2032638   0.6257557  )
         2           Zn  tau(   2) = (  -0.1155646   0.6606970  -0.0418541  )
         3           O   tau(   3) = (   0.2931943   0.4302692   1.1087223  )
         4           O   tau(   4) = (   0.1289273   0.5453550   0.7124175  )

     number of k points=   112

     Number of k-points >= 100: set verbosity='high' to print them.

     Dense  grid:    30599 G-vectors     FFT dimensions: (  36,  36,  54)

     Smooth grid:    10837 G-vectors     FFT dimensions: (  25,  25,  40)

     Estimated max dynamical RAM per process >      21.98 MB

     Estimated total dynamical RAM >     175.81 MB

     Check: negative core charge=   -0.000001

     Initial potential from superposition of free atoms

     starting charge      35.9925, renormalised to      36.0000
     Starting wfcs are   26 randomized atomic wfcs

     total cpu time spent up to now is        2.9 secs

     Self-consistent Calculation

     iteration #  1     ecut=    50.00 Ry     beta= 0.30
     Davidson diagonalization with overlap
     ethr =  1.00E-02,  avg # of iterations =  2.2

     total cpu time spent up to now is        6.7 secs

     total energy              =    -360.31308098 Ry
     estimated scf accuracy    <       0.45316170 Ry

     iteration #  2     ecut=    50.00 Ry     beta= 0.30
     Davidson diagonalization with overlap
     ethr =  1.26E-03,  avg # of iterations =  4.0

     total cpu time spent up to now is       11.5 secs

     total energy              =    -360.37728400 Ry
     estimated scf accuracy    <       0.10223291 Ry

     iteration #  3     ecut=    50.00 Ry     beta= 0.30
     Davidson diagonalization with overlap
     ethr =  2.84E-04,  avg # of iterations =  5.4

     total cpu time spent up to now is       17.7 secs

     total energy              =    -360.42196289 Ry
     estimated scf accuracy    <       0.02022847 Ry

     iteration #  4     ecut=    50.00 Ry     beta= 0.30
     Davidson diagonalization with overlap
     ethr =  5.62E-05,  avg # of iterations =  3.5

     total cpu time spent up to now is       22.1 secs

     total energy              =    -360.42395464 Ry
     estimated scf accuracy    <       0.00531144 Ry

     iteration #  5     ecut=    50.00 Ry     beta= 0.30
     Davidson diagonalization with overlap
     ethr =  1.48E-05,  avg # of iterations =  8.3

     total cpu time spent up to now is       30.6 secs

     total energy              =    -360.42290580 Ry
     estimated scf accuracy    <       0.01600125 Ry

     iteration #  6     ecut=    50.00 Ry     beta= 0.30
     Davidson diagonalization with overlap
     ethr =  1.48E-05,  avg # of iterations =  6.5

     total cpu time spent up to now is       37.1 secs

     total energy              =    -360.42703598 Ry
     estimated scf accuracy    <       0.00054256 Ry

     iteration #  7     ecut=    50.00 Ry     beta= 0.30
     Davidson diagonalization with overlap
     c_bands:  1 eigenvalues not converged
     ethr =  1.51E-06,  avg # of iterations = 11.0

     total cpu time spent up to now is       47.1 secs

     total energy              =    -360.42519021 Ry
     estimated scf accuracy    <       0.00641449 Ry

     iteration #  8     ecut=    50.00 Ry     beta= 0.30
     Davidson diagonalization with overlap
     ethr =  1.51E-06,  avg # of iterations =  9.8

     total cpu time spent up to now is       56.7 secs

     total energy              =    -360.42651767 Ry
     estimated scf accuracy    <       0.00001714 Ry

     iteration #  9     ecut=    50.00 Ry     beta= 0.30
     Davidson diagonalization with overlap
     ethr =  4.76E-08,  avg # of iterations =  9.0

     total cpu time spent up to now is       65.9 secs

     total energy              =    -360.42652360 Ry
     estimated scf accuracy    <       0.00007817 Ry

     iteration # 10     ecut=    50.00 Ry     beta= 0.30
     Davidson diagonalization with overlap
     ethr =  4.76E-08,  avg # of iterations =  6.5

     total cpu time spent up to now is       72.3 secs

     total energy              =    -360.42653322 Ry
     estimated scf accuracy    <       0.00000278 Ry

     iteration # 11     ecut=    50.00 Ry     beta= 0.30
     Davidson diagonalization with overlap
     ethr =  7.72E-09,  avg # of iterations =  6.9

     total cpu time spent up to now is       78.2 secs

     total energy              =    -360.42653464 Ry
     estimated scf accuracy    <       0.00000010 Ry

     iteration # 12     ecut=    50.00 Ry     beta= 0.30
     Davidson diagonalization with overlap
     ethr =  2.73E-10,  avg # of iterations =  8.5

     total cpu time spent up to now is       85.8 secs

     total energy              =    -360.42653460 Ry
     estimated scf accuracy    <       0.00000034 Ry

     iteration # 13     ecut=    50.00 Ry     beta= 0.30
     Davidson diagonalization with overlap
     ethr =  2.73E-10,  avg # of iterations =  7.7

     total cpu time spent up to now is       93.0 secs

     total energy              =    -360.42653469 Ry
     estimated scf accuracy    <       0.00000001 Ry

     iteration # 14     ecut=    50.00 Ry     beta= 0.30
     Davidson diagonalization with overlap
     ethr =  2.79E-11,  avg # of iterations =  7.1

     total cpu time spent up to now is       98.7 secs

     total energy              =    -360.42653468 Ry
     estimated scf accuracy    <       0.00000002 Ry

     iteration # 15     ecut=    50.00 Ry     beta= 0.30
     Davidson diagonalization with overlap
     ethr =  2.79E-11,  avg # of iterations =  3.3

     total cpu time spent up to now is      102.6 secs

     End of self-consistent calculation

     Number of k-points >= 100: set verbosity='high' to print the bands.

     highest occupied level (ev):    17.1701

!    total energy              =    -360.42653468 Ry
     estimated scf accuracy    <          5.9E-09 Ry

     The total energy is the sum of the following terms:
     one-electron contribution =    -119.01214788 Ry
     hartree contribution      =     106.97497490 Ry
     xc contribution           =    -110.54510238 Ry
     ewald contribution        =    -237.84425932 Ry

     convergence has been achieved in  15 iterations

     Forces acting on atoms (cartesian axes, Ry/au):

     atom    1 type  1   force =     0.74901756   -0.69166088   -0.61785704
     atom    2 type  1   force =    -0.10131140    0.02476938    0.12524473
     atom    3 type  2   force =     0.17963375   -0.02352191    0.62853286
     atom    4 type  2   force =    -0.82733990    0.69041341   -0.13592055
     The non-local contrib.  to forces
     atom    1 type  1   force =     0.33850321   -0.06010025    0.36392860
     atom    2 type  1   force =    -0.06252092   -0.00278729   -0.53711441
     atom    3 type  2   force =    -0.54007217    0.26122941   -1.36360479
     atom    4 type  2   force =     0.67283825   -0.26248558    1.20371183
     The ionic contribution  to forces
     atom    1 type  1   force =     7.57049520   -4.95738952  -12.17297462
     atom    2 type  1   force =    -3.18625186    0.29054470    4.83271845
     atom    3 type  2   force =     3.16929680   -0.38863689   11.86317631
     atom    4 type  2   force =    -7.55354014    5.05548171   -4.52292013
     The local contribution  to forces
     atom    1 type  1   force =    -7.07001428    4.26401998   11.13511791
     atom    2 type  1   force =     3.12415363   -0.25382935   -4.16460879
     atom    3 type  2   force =    -2.45399394    0.10646220   -9.88134197
     atom    4 type  2   force =     6.05655386   -4.10273517    3.19442579
     The core correction contribution to forces
     atom    1 type  1   force =    -0.08988714    0.06176083    0.05590876
     atom    2 type  1   force =     0.02325175   -0.00915497   -0.00564180
     atom    3 type  2   force =     0.00445900   -0.00261184    0.01050567
     atom    4 type  2   force =    -0.00322491    0.00016962   -0.01122407
     The Hubbard contrib.    to forces
     atom    1 type  1   force =     0.00000000    0.00000000    0.00000000
     atom    2 type  1   force =     0.00000000    0.00000000    0.00000000
     atom    3 type  2   force =     0.00000000    0.00000000    0.00000000
     atom    4 type  2   force =     0.00000000    0.00000000    0.00000000
     The SCF correction term to forces
     atom    1 type  1   force =    -0.00007887    0.00005414    0.00017636
     atom    2 type  1   force =     0.00005655    0.00000237   -0.00009468
     atom    3 type  2   force =    -0.00005538    0.00004127   -0.00018831
     atom    4 type  2   force =     0.00003359   -0.00001110    0.00010007

     Total force =     1.747926     Total SCF correction =     0.000322

     Writing all to output data dir ./ZnO_ANN.save/

     init_run     :      2.39s CPU      2.47s WALL (       1 calls)
     electrons    :     97.20s CPU     99.69s WALL (       1 calls)
     forces       :      0.76s CPU      0.78s WALL (       1 calls)

     Called by init_run:
     wfcinit      :      1.71s CPU      1.76s WALL (       1 calls)
     potinit      :      0.17s CPU      0.18s WALL (       1 calls)
     hinit0       :      0.46s CPU      0.47s WALL (       1 calls)

     Called by electrons:
     c_bands      :     89.54s CPU     91.78s WALL (      15 calls)
     sum_band     :      6.90s CPU      7.12s WALL (      15 calls)
     v_of_rho     :      0.16s CPU      0.17s WALL (      16 calls)
     newd         :      0.60s CPU      0.62s WALL (      16 calls)
     mix_rho      :      0.02s CPU      0.03s WALL (      15 calls)

     Called by c_bands:
     init_us_2    :      0.56s CPU      0.57s WALL (    3584 calls)
     init_us_2:cp :      0.55s CPU      0.56s WALL (    3584 calls)
     cegterg      :     87.80s CPU     90.01s WALL (    1680 calls)

     Called by *egterg:
     cdiaghg      :     14.94s CPU     15.11s WALL (   12858 calls)
     h_psi        :     45.62s CPU     47.22s WALL (   12970 calls)
     s_psi        :      6.30s CPU      6.39s WALL (   12970 calls)
     g_psi        :      0.19s CPU      0.19s WALL (   11178 calls)

     Called by h_psi:
     h_psi:calbec :      6.84s CPU      7.17s WALL (   12970 calls)
     vloc_psi     :     32.27s CPU     33.43s WALL (   12970 calls)
     add_vuspsi   :      6.30s CPU      6.42s WALL (   12970 calls)

     General routines
     calbec       :      8.88s CPU      9.29s WALL (   15098 calls)
     fft          :      0.31s CPU      0.33s WALL (     217 calls)
     ffts         :      0.08s CPU      0.08s WALL (      31 calls)
     fftw         :     31.63s CPU     32.76s WALL (  273014 calls)
     interpolate  :      0.08s CPU      0.09s WALL (      16 calls)

     Parallel routines

     PWSCF        :   1m41.05s CPU   1m43.78s WALL


   This run was terminated on:  11:51:19  23Jun2025            

=------------------------------------------------------------------------------=
   JOB DONE.
=------------------------------------------------------------------------------=
Note: The following floating-point exceptions are signalling: IEEE_INVALID_FLAG
