
     Program PWSCF v.7.2 starts on 23Jun2025 at 16:37:38 

     This program is part of the open-source Quantum ESPRESSO suite
     for quantum simulation of materials; please cite
         "P. Giannozzi et al., J. Phys.:Condens. Matter 21 395502 (2009);
         "P. Giannozzi et al., J. Phys.:Condens. Matter 29 465901 (2017);
         "P. Giannozzi et al., J. Chem. Phys. 152 154105 (2020);
          URL http://www.quantum-espresso.org", 
     in publications or presentations arising from this work. More details at
     http://www.quantum-espresso.org/quote

     Parallel version (MPI), running on     8 processors

     MPI processes distributed on     1 nodes
     90955 MiB available memory on the printing compute node when the environment starts

     Reading input from /home/jvc/QEspresso7.2/ZnO_DataBase/scfs_rnd025.in/scf-6.55-1.49-5.in

     Current dimensions of program PWSCF are:
     Max number of different atomic species (ntypx) = 10
     Max number of k-points (npk) =  40000
     Max angular momentum in pseudopotentials (lmaxx) =  4
     file Zn.upf: wavefunction(s)  3D renormalized

     R & G space division:  proc/nbgrp/npool/nimage =       8
     Subspace diagonalization in iterative solution of the eigenvalue problem:
     a serial algorithm will be used


     Parallelization info
     --------------------
     sticks:   dense  smooth     PW     G-vecs:    dense   smooth      PW
     Min         147      72     22                 6101     2150     362
     Max         148      73     24                 6103     2159     365
     Sum        1177     583    187                48817    17257    2911

     Using Slab Decomposition



     bravais-lattice index     =            4
     lattice parameter (alat)  =       6.5496  a.u.
     unit-cell volume          =     361.3707 (a.u.)^3
     number of atoms/cell      =            4
     number of atomic types    =            2
     number of electrons       =        36.00
     number of Kohn-Sham states=           18
     kinetic-energy cutoff     =      50.0000  Ry
     charge density cutoff     =     400.0000  Ry
     scf convergence threshold =      1.0E-08
     mixing beta               =       0.3000
     number of iterations used =            8  plain     mixing
     Exchange-correlation= PBE
                           (   1   4   3   4   0   0   0)

     celldm(1)=   6.549551  celldm(2)=   0.000000  celldm(3)=   1.485210
     celldm(4)=   0.000000  celldm(5)=   0.000000  celldm(6)=   0.000000

     crystal axes: (cart. coord. in units of alat)
               a(1) = (   1.000000   0.000000   0.000000 )  
               a(2) = (  -0.500000   0.866025   0.000000 )  
               a(3) = (   0.000000   0.000000   1.485210 )  

     reciprocal axes: (cart. coord. in units 2 pi/alat)
               b(1) = (  1.000000  0.577350 -0.000000 )  
               b(2) = (  0.000000  1.154701  0.000000 )  
               b(3) = (  0.000000 -0.000000  0.673306 )  


     PseudoPot. # 1 for Zn read from file:
     ./pseudos/Zn.upf
     MD5 check sum: 7f56cabf9682ed8c977c2f7d0c5985c5
     Pseudo is Ultrasoft + core correction, Zval = 12.0
     Generated using &quot;atomic&quot; code by A. Dal Corso  v.6.2.2
     Using radial grid of 1201 points,  6 beta functions with: 
                l(1) =   0
                l(2) =   0
                l(3) =   1
                l(4) =   1
                l(5) =   2
                l(6) =   2
     Q(r) pseudized with 0 coefficients 


     PseudoPot. # 2 for O  read from file:
     ./pseudos/O.upf
     MD5 check sum: 91400c9766925bcf19f520983a725ff0
     Pseudo is Ultrasoft + core correction, Zval =  6.0
     Generated using &quot;atomic&quot; code by A. Dal Corso  v.6.3MaX
     Using radial grid of 1095 points,  4 beta functions with: 
                l(1) =   0
                l(2) =   0
                l(3) =   1
                l(4) =   1
     Q(r) pseudized with 0 coefficients 


     atomic species   valence    mass     pseudopotential
        Zn            12.00    63.38000     Zn( 1.00)
        O              6.00    15.99900     O ( 1.00)

     No symmetry found



   Cartesian axes

     site n.     atom                  positions (alat units)
         1           Zn  tau(   1) = (   0.5696281   0.2952541   0.4415187  )
         2           Zn  tau(   2) = (  -0.0866394   0.7056137  -0.0398914  )
         3           O   tau(   3) = (   0.3470292   0.1879453   1.4334748  )
         4           O   tau(   4) = (  -0.0731778   0.4379442   0.2454776  )

     number of k points=   112

     Number of k-points >= 100: set verbosity='high' to print them.

     Dense  grid:    48817 G-vectors     FFT dimensions: (  45,  45,  64)

     Smooth grid:    17257 G-vectors     FFT dimensions: (  30,  30,  45)

     Estimated max dynamical RAM per process >      33.32 MB

     Estimated total dynamical RAM >     266.59 MB

     Check: negative core charge=   -0.000002

     Initial potential from superposition of free atoms

     starting charge      35.9925, renormalised to      36.0000
     Starting wfcs are   26 randomized atomic wfcs

     total cpu time spent up to now is        4.0 secs

     Self-consistent Calculation

     iteration #  1     ecut=    50.00 Ry     beta= 0.30
     Davidson diagonalization with overlap
     ethr =  1.00E-02,  avg # of iterations =  3.0

     total cpu time spent up to now is       10.3 secs

     total energy              =    -359.45965230 Ry
     estimated scf accuracy    <       1.97611128 Ry

     iteration #  2     ecut=    50.00 Ry     beta= 0.30
     Davidson diagonalization with overlap
     ethr =  5.49E-03,  avg # of iterations =  2.0

     total cpu time spent up to now is       16.2 secs

     total energy              =    -359.39746772 Ry
     estimated scf accuracy    <       0.42610738 Ry

     iteration #  3     ecut=    50.00 Ry     beta= 0.30
     Davidson diagonalization with overlap
     c_bands:  1 eigenvalues not converged
     ethr =  1.18E-03,  avg # of iterations = 13.6

     total cpu time spent up to now is       31.6 secs

     total energy              =    -360.20350413 Ry
     estimated scf accuracy    <       3.12145157 Ry

     iteration #  4     ecut=    50.00 Ry     beta= 0.30
     Davidson diagonalization with overlap
     ethr =  1.18E-03,  avg # of iterations =  1.3

     total cpu time spent up to now is       36.7 secs

     total energy              =    -359.94380875 Ry
     estimated scf accuracy    <       2.66264690 Ry

     iteration #  5     ecut=    50.00 Ry     beta= 0.30
     Davidson diagonalization with overlap
     ethr =  1.18E-03,  avg # of iterations =  2.5

     total cpu time spent up to now is       42.6 secs

     total energy              =    -359.64949368 Ry
     estimated scf accuracy    <       1.65040913 Ry

     iteration #  6     ecut=    50.00 Ry     beta= 0.30
     Davidson diagonalization with overlap
     ethr =  1.18E-03,  avg # of iterations =  7.7

     total cpu time spent up to now is       50.5 secs

     total energy              =    -359.80216150 Ry
     estimated scf accuracy    <       0.09632851 Ry

     iteration #  7     ecut=    50.00 Ry     beta= 0.30
     Davidson diagonalization with overlap
     c_bands:  2 eigenvalues not converged
     c_bands:  1 eigenvalues not converged
     c_bands:  1 eigenvalues not converged
     ethr =  2.68E-04,  avg # of iterations =  9.5

     total cpu time spent up to now is       62.3 secs

     total energy              =    -359.90612013 Ry
     estimated scf accuracy    <       0.17940672 Ry

     iteration #  8     ecut=    50.00 Ry     beta= 0.30
     Davidson diagonalization with overlap
     ethr =  2.68E-04,  avg # of iterations =  1.3

     total cpu time spent up to now is       67.3 secs

     total energy              =    -359.86355699 Ry
     estimated scf accuracy    <       0.18188410 Ry

     iteration #  9     ecut=    50.00 Ry     beta= 0.30
     Davidson diagonalization with overlap
     ethr =  2.68E-04,  avg # of iterations =  2.0

     total cpu time spent up to now is       72.7 secs

     total energy              =    -359.86390776 Ry
     estimated scf accuracy    <       0.08645162 Ry

     iteration # 10     ecut=    50.00 Ry     beta= 0.30
     Davidson diagonalization with overlap
     ethr =  2.40E-04,  avg # of iterations =  1.0

     total cpu time spent up to now is       77.6 secs

     total energy              =    -359.85986778 Ry
     estimated scf accuracy    <       0.06987990 Ry

     iteration # 11     ecut=    50.00 Ry     beta= 0.30
     Davidson diagonalization with overlap
     ethr =  1.94E-04,  avg # of iterations =  1.8

     total cpu time spent up to now is       82.8 secs

     total energy              =    -359.83780433 Ry
     estimated scf accuracy    <       0.04728336 Ry

     iteration # 12     ecut=    50.00 Ry     beta= 0.30
     Davidson diagonalization with overlap
     c_bands:  1 eigenvalues not converged
     ethr =  1.31E-04,  avg # of iterations = 10.3

     total cpu time spent up to now is       93.4 secs

     total energy              =    -359.87984555 Ry
     estimated scf accuracy    <       0.11094836 Ry

     iteration # 13     ecut=    50.00 Ry     beta= 0.30
     Davidson diagonalization with overlap
     ethr =  1.31E-04,  avg # of iterations =  1.1

     total cpu time spent up to now is       98.3 secs

     total energy              =    -359.88764337 Ry
     estimated scf accuracy    <       0.09942974 Ry

     iteration # 14     ecut=    50.00 Ry     beta= 0.30
     Davidson diagonalization with overlap
     ethr =  1.31E-04,  avg # of iterations =  1.0

     total cpu time spent up to now is      103.2 secs

     total energy              =    -359.86960092 Ry
     estimated scf accuracy    <       0.11371840 Ry

     iteration # 15     ecut=    50.00 Ry     beta= 0.30
     Davidson diagonalization with overlap
     ethr =  1.31E-04,  avg # of iterations =  1.6

     total cpu time spent up to now is      108.4 secs

     total energy              =    -359.88296927 Ry
     estimated scf accuracy    <       0.07180690 Ry

     iteration # 16     ecut=    50.00 Ry     beta= 0.30
     Davidson diagonalization with overlap
     ethr =  1.31E-04,  avg # of iterations =  1.0

     total cpu time spent up to now is      113.2 secs

     total energy              =    -359.88395957 Ry
     estimated scf accuracy    <       0.09289549 Ry

     iteration # 17     ecut=    50.00 Ry     beta= 0.30
     Davidson diagonalization with overlap
     ethr =  1.31E-04,  avg # of iterations =  1.0

     total cpu time spent up to now is      118.1 secs

     total energy              =    -359.88392075 Ry
     estimated scf accuracy    <       0.09809055 Ry

     iteration # 18     ecut=    50.00 Ry     beta= 0.30
     Davidson diagonalization with overlap
     ethr =  1.31E-04,  avg # of iterations =  1.0

     total cpu time spent up to now is      123.0 secs

     total energy              =    -359.89636453 Ry
     estimated scf accuracy    <       0.10042851 Ry

     iteration # 19     ecut=    50.00 Ry     beta= 0.30
     Davidson diagonalization with overlap
     ethr =  1.31E-04,  avg # of iterations =  1.6

     total cpu time spent up to now is      128.2 secs

     total energy              =    -359.89247556 Ry
     estimated scf accuracy    <       0.14334868 Ry

     iteration # 20     ecut=    50.00 Ry     beta= 0.30
     Davidson diagonalization with overlap
     ethr =  1.31E-04,  avg # of iterations =  1.1

     total cpu time spent up to now is      133.1 secs

     total energy              =    -359.82274783 Ry
     estimated scf accuracy    <       0.14348934 Ry

     iteration # 21     ecut=    50.00 Ry     beta= 0.30
     Davidson diagonalization with overlap
     ethr =  1.31E-04,  avg # of iterations = 10.3

     total cpu time spent up to now is      144.6 secs

     total energy              =    -359.87045883 Ry
     estimated scf accuracy    <       0.05659282 Ry

     iteration # 22     ecut=    50.00 Ry     beta= 0.30
     Davidson diagonalization with overlap
     ethr =  1.31E-04,  avg # of iterations =  1.1

     total cpu time spent up to now is      149.6 secs

     total energy              =    -359.86075634 Ry
     estimated scf accuracy    <       0.03956237 Ry

     iteration # 23     ecut=    50.00 Ry     beta= 0.30
     Davidson diagonalization with overlap
     ethr =  1.10E-04,  avg # of iterations =  3.3

     total cpu time spent up to now is      155.6 secs

     total energy              =    -359.86203628 Ry
     estimated scf accuracy    <       0.00682579 Ry

     iteration # 24     ecut=    50.00 Ry     beta= 0.30
     Davidson diagonalization with overlap
     c_bands:  1 eigenvalues not converged
     c_bands:  1 eigenvalues not converged
     ethr =  1.90E-05,  avg # of iterations = 10.0

     total cpu time spent up to now is      165.8 secs

     total energy              =    -359.86694367 Ry
     estimated scf accuracy    <       0.01101017 Ry

     iteration # 25     ecut=    50.00 Ry     beta= 0.30
     Davidson diagonalization with overlap
     ethr =  1.90E-05,  avg # of iterations =  1.7

     total cpu time spent up to now is      171.0 secs

     total energy              =    -359.86544821 Ry
     estimated scf accuracy    <       0.00632076 Ry

     iteration # 26     ecut=    50.00 Ry     beta= 0.30
     Davidson diagonalization with overlap
     ethr =  1.76E-05,  avg # of iterations =  6.4

     total cpu time spent up to now is      178.1 secs

     total energy              =    -359.86694914 Ry
     estimated scf accuracy    <       0.00007116 Ry

     iteration # 27     ecut=    50.00 Ry     beta= 0.30
     Davidson diagonalization with overlap
     c_bands:  1 eigenvalues not converged
     c_bands:  2 eigenvalues not converged
     c_bands:  3 eigenvalues not converged
     c_bands:  1 eigenvalues not converged
     c_bands:  1 eigenvalues not converged
     ethr =  1.98E-07,  avg # of iterations = 11.9

     total cpu time spent up to now is      192.8 secs

     total energy              =    -359.86683103 Ry
     estimated scf accuracy    <       0.00091010 Ry

     iteration # 28     ecut=    50.00 Ry     beta= 0.30
     Davidson diagonalization with overlap
     c_bands:  1 eigenvalues not converged
     c_bands:  1 eigenvalues not converged
     c_bands:  1 eigenvalues not converged
     c_bands:  2 eigenvalues not converged
     c_bands:  1 eigenvalues not converged
     c_bands:  1 eigenvalues not converged
     c_bands:  1 eigenvalues not converged
     c_bands:  1 eigenvalues not converged
     c_bands:  1 eigenvalues not converged
     c_bands:  1 eigenvalues not converged
     c_bands:  1 eigenvalues not converged
     c_bands:  1 eigenvalues not converged
     c_bands:  1 eigenvalues not converged
     ethr =  1.98E-07,  avg # of iterations = 15.4

     total cpu time spent up to now is      210.2 secs

     total energy              =    -359.86708946 Ry
     estimated scf accuracy    <       0.00045655 Ry

     iteration # 29     ecut=    50.00 Ry     beta= 0.30
     Davidson diagonalization with overlap
     ethr =  1.98E-07,  avg # of iterations =  5.8

     total cpu time spent up to now is      217.2 secs

     total energy              =    -359.86707275 Ry
     estimated scf accuracy    <       0.00013813 Ry

     iteration # 30     ecut=    50.00 Ry     beta= 0.30
     Davidson diagonalization with overlap
     ethr =  1.98E-07,  avg # of iterations =  6.0

     total cpu time spent up to now is      224.9 secs

     total energy              =    -359.86709939 Ry
     estimated scf accuracy    <       0.00000305 Ry

     iteration # 31     ecut=    50.00 Ry     beta= 0.30
     Davidson diagonalization with overlap
     c_bands:  1 eigenvalues not converged
     c_bands:  1 eigenvalues not converged
     c_bands:  1 eigenvalues not converged
     c_bands:  1 eigenvalues not converged
     c_bands:  1 eigenvalues not converged
     ethr =  8.48E-09,  avg # of iterations = 10.3

     total cpu time spent up to now is      236.7 secs

     total energy              =    -359.86710363 Ry
     estimated scf accuracy    <       0.00000153 Ry

     iteration # 32     ecut=    50.00 Ry     beta= 0.30
     Davidson diagonalization with overlap
     c_bands:  2 eigenvalues not converged
     c_bands:  1 eigenvalues not converged
     c_bands:  1 eigenvalues not converged
     c_bands:  1 eigenvalues not converged
     ethr =  4.24E-09,  avg # of iterations = 12.1

     total cpu time spent up to now is      249.9 secs

     total energy              =    -359.86710747 Ry
     estimated scf accuracy    <       0.00001044 Ry

     iteration # 33     ecut=    50.00 Ry     beta= 0.30
     Davidson diagonalization with overlap
     ethr =  4.24E-09,  avg # of iterations =  4.3

     total cpu time spent up to now is      256.3 secs

     total energy              =    -359.86710277 Ry
     estimated scf accuracy    <       0.00001662 Ry

     iteration # 34     ecut=    50.00 Ry     beta= 0.30
     Davidson diagonalization with overlap
     ethr =  4.24E-09,  avg # of iterations = 10.1

     total cpu time spent up to now is      267.0 secs

     total energy              =    -359.86710414 Ry
     estimated scf accuracy    <       0.00000041 Ry

     iteration # 35     ecut=    50.00 Ry     beta= 0.30
     Davidson diagonalization with overlap
     c_bands:  1 eigenvalues not converged
     c_bands:  1 eigenvalues not converged
     c_bands:  1 eigenvalues not converged
     c_bands:  1 eigenvalues not converged
     c_bands:  1 eigenvalues not converged
     ethr =  1.15E-09,  avg # of iterations = 11.3

     total cpu time spent up to now is      278.6 secs

     total energy              =    -359.86710441 Ry
     estimated scf accuracy    <       0.00000126 Ry

     iteration # 36     ecut=    50.00 Ry     beta= 0.30
     Davidson diagonalization with overlap
     ethr =  1.15E-09,  avg # of iterations =  2.1

     total cpu time spent up to now is      284.1 secs

     total energy              =    -359.86710404 Ry
     estimated scf accuracy    <       0.00000074 Ry

     iteration # 37     ecut=    50.00 Ry     beta= 0.30
     Davidson diagonalization with overlap
     c_bands:  1 eigenvalues not converged
     ethr =  1.15E-09,  avg # of iterations = 11.8

     total cpu time spent up to now is      296.5 secs

     total energy              =    -359.86710448 Ry
     estimated scf accuracy    <       0.00000124 Ry

     iteration # 38     ecut=    50.00 Ry     beta= 0.30
     Davidson diagonalization with overlap
     ethr =  1.15E-09,  avg # of iterations =  1.5

     total cpu time spent up to now is      301.6 secs

     total energy              =    -359.86710421 Ry
     estimated scf accuracy    <       0.00000088 Ry

     iteration # 39     ecut=    50.00 Ry     beta= 0.30
     Davidson diagonalization with overlap
     ethr =  1.15E-09,  avg # of iterations =  7.3

     total cpu time spent up to now is      310.0 secs

     total energy              =    -359.86710441 Ry
     estimated scf accuracy    <       0.00000003 Ry

     iteration # 40     ecut=    50.00 Ry     beta= 0.30
     Davidson diagonalization with overlap
     c_bands:  1 eigenvalues not converged
     ethr =  7.00E-11,  avg # of iterations =  5.8

     total cpu time spent up to now is      318.1 secs

     total energy              =    -359.86710440 Ry
     estimated scf accuracy    <       0.00000005 Ry

     iteration # 41     ecut=    50.00 Ry     beta= 0.30
     Davidson diagonalization with overlap
     ethr =  7.00E-11,  avg # of iterations =  7.4

     total cpu time spent up to now is      326.3 secs

     End of self-consistent calculation

     Number of k-points >= 100: set verbosity='high' to print the bands.

     highest occupied level (ev):     7.7976

!    total energy              =    -359.86710441 Ry
     estimated scf accuracy    <          3.1E-09 Ry

     The total energy is the sum of the following terms:
     one-electron contribution =    -282.01844806 Ry
     hartree contribution      =     179.07457678 Ry
     xc contribution           =    -110.48499081 Ry
     ewald contribution        =    -146.43824233 Ry

     convergence has been achieved in  41 iterations

     Forces acting on atoms (cartesian axes, Ry/au):

     atom    1 type  1   force =    -0.47765701   -0.15999726    0.36985897
     atom    2 type  1   force =     0.39928054   -1.45882728   -0.90142370
     atom    3 type  2   force =    -0.38793553    2.28807102   -0.31502606
     atom    4 type  2   force =     0.46631200   -0.66924648    0.84659078
     The non-local contrib.  to forces
     atom    1 type  1   force =    -0.83150903   -0.39999769    0.67623327
     atom    2 type  1   force =     0.17315468   -0.32551015   -0.36279252
     atom    3 type  2   force =     0.52004344   -0.86550085    0.02178170
     atom    4 type  2   force =    -0.76941501    0.26514786    0.24382295
     The ionic contribution  to forces
     atom    1 type  1   force =    -6.56931356   -1.62615572   33.80955833
     atom    2 type  1   force =     3.07371022   -9.33552106  -30.37070627
     atom    3 type  2   force =    -4.74209802   17.67310758  -14.85710162
     atom    4 type  2   force =     8.23770136   -6.71143080   11.41824956
     The local contribution  to forces
     atom    1 type  1   force =     6.84164800    1.83223351  -34.02892895
     atom    2 type  1   force =    -2.80057251    8.05568376   29.69333678
     atom    3 type  2   force =     3.83684660  -14.51706263   14.51821399
     atom    4 type  2   force =    -7.00572585    5.77572782  -10.80942458
     The core correction contribution to forces
     atom    1 type  1   force =     0.08148704    0.03392498   -0.08682259
     atom    2 type  1   force =    -0.04699853    0.14645193    0.13868857
     atom    3 type  2   force =    -0.00271304   -0.00244540    0.00204008
     atom    4 type  2   force =     0.00374903    0.00131789   -0.00599588
     The Hubbard contrib.    to forces
     atom    1 type  1   force =     0.00000000    0.00000000    0.00000000
     atom    2 type  1   force =     0.00000000    0.00000000    0.00000000
     atom    3 type  2   force =     0.00000000    0.00000000    0.00000000
     atom    4 type  2   force =     0.00000000    0.00000000    0.00000000
     The SCF correction term to forces
     atom    1 type  1   force =     0.00003913    0.00001407   -0.00021819
     atom    2 type  1   force =    -0.00000473    0.00008462    0.00001262
     atom    3 type  2   force =    -0.00000593   -0.00001128    0.00000266
     atom    4 type  2   force =     0.00001105    0.00000715   -0.00009837

     Total force =     3.218350     Total SCF correction =     0.000258

     Writing all to output data dir ./ZnO_ANN.save/

     init_run     :      3.60s CPU      3.67s WALL (       1 calls)
     electrons    :    317.61s CPU    322.33s WALL (       1 calls)
     forces       :      1.14s CPU      1.15s WALL (       1 calls)

     Called by init_run:
     wfcinit      :      2.75s CPU      2.79s WALL (       1 calls)
     potinit      :      0.26s CPU      0.27s WALL (       1 calls)
     hinit0       :      0.49s CPU      0.50s WALL (       1 calls)

     Called by electrons:
     c_bands      :    282.01s CPU    286.05s WALL (      41 calls)
     sum_band     :     32.17s CPU     32.76s WALL (      41 calls)
     v_of_rho     :      0.71s CPU      0.77s WALL (      42 calls)
     newd         :      2.62s CPU      2.64s WALL (      42 calls)
     mix_rho      :      0.12s CPU      0.13s WALL (      41 calls)

     Called by c_bands:
     init_us_2    :      2.04s CPU      2.06s WALL (    9408 calls)
     init_us_2:cp :      2.01s CPU      2.04s WALL (    9408 calls)
     cegterg      :    274.57s CPU    278.51s WALL (    4592 calls)

     Called by *egterg:
     cdiaghg      :     29.16s CPU     29.39s WALL (   29387 calls)
     h_psi        :    158.41s CPU    161.31s WALL (   29499 calls)
     s_psi        :     14.61s CPU     14.71s WALL (   29499 calls)
     g_psi        :      0.54s CPU      0.54s WALL (   24795 calls)

     Called by h_psi:
     h_psi:calbec :     22.18s CPU     22.72s WALL (   29499 calls)
     vloc_psi     :    121.26s CPU    123.49s WALL (   29499 calls)
     add_vuspsi   :     14.52s CPU     14.65s WALL (   29499 calls)

     General routines
     calbec       :     29.87s CPU     30.58s WALL (   34539 calls)
     fft          :      1.01s CPU      1.08s WALL (     555 calls)
     ffts         :      0.12s CPU      0.12s WALL (      83 calls)
     fftw         :    128.30s CPU    130.68s WALL (  587708 calls)
     interpolate  :      0.14s CPU      0.15s WALL (      42 calls)

     Parallel routines

     PWSCF        :   5m22.99s CPU   5m28.08s WALL


   This run was terminated on:  16:43: 6  23Jun2025            

=------------------------------------------------------------------------------=
   JOB DONE.
=------------------------------------------------------------------------------=
Note: The following floating-point exceptions are signalling: IEEE_INVALID_FLAG
