
     Program PWSCF v.7.2 starts on 23Jun2025 at 11:55:36 

     This program is part of the open-source Quantum ESPRESSO suite
     for quantum simulation of materials; please cite
         "P. Giannozzi et al., J. Phys.:Condens. Matter 21 395502 (2009);
         "P. Giannozzi et al., J. Phys.:Condens. Matter 29 465901 (2017);
         "P. Giannozzi et al., J. Chem. Phys. 152 154105 (2020);
          URL http://www.quantum-espresso.org", 
     in publications or presentations arising from this work. More details at
     http://www.quantum-espresso.org/quote

     Parallel version (MPI), running on     8 processors

     MPI processes distributed on     1 nodes
     91461 MiB available memory on the printing compute node when the environment starts

     Reading input from /home/jvc/QEspresso7.2/ZnO_DataBase/scfs_rnd025.in/scf-5.56-1.61-2.in

     Current dimensions of program PWSCF are:
     Max number of different atomic species (ntypx) = 10
     Max number of k-points (npk) =  40000
     Max angular momentum in pseudopotentials (lmaxx) =  4
     file Zn.upf: wavefunction(s)  3D renormalized

     R & G space division:  proc/nbgrp/npool/nimage =       8
     Subspace diagonalization in iterative solution of the eigenvalue problem:
     a serial algorithm will be used


     Parallelization info
     --------------------
     sticks:   dense  smooth     PW     G-vecs:    dense   smooth      PW
     Min         105      53     15                 4053     1443     245
     Max         106      55     16                 4062     1446     252
     Sum         847     433    127                32475    11561    1985

     Using Slab Decomposition



     bravais-lattice index     =            4
     lattice parameter (alat)  =       5.5609  a.u.
     unit-cell volume          =     240.4225 (a.u.)^3
     number of atoms/cell      =            4
     number of atomic types    =            2
     number of electrons       =        36.00
     number of Kohn-Sham states=           18
     kinetic-energy cutoff     =      50.0000  Ry
     charge density cutoff     =     400.0000  Ry
     scf convergence threshold =      1.0E-08
     mixing beta               =       0.3000
     number of iterations used =            8  plain     mixing
     Exchange-correlation= PBE
                           (   1   4   3   4   0   0   0)

     celldm(1)=   5.560939  celldm(2)=   0.000000  celldm(3)=   1.614358
     celldm(4)=   0.000000  celldm(5)=   0.000000  celldm(6)=   0.000000

     crystal axes: (cart. coord. in units of alat)
               a(1) = (   1.000000   0.000000   0.000000 )  
               a(2) = (  -0.500000   0.866025   0.000000 )  
               a(3) = (   0.000000   0.000000   1.614358 )  

     reciprocal axes: (cart. coord. in units 2 pi/alat)
               b(1) = (  1.000000  0.577350 -0.000000 )  
               b(2) = (  0.000000  1.154701  0.000000 )  
               b(3) = (  0.000000 -0.000000  0.619441 )  


     PseudoPot. # 1 for Zn read from file:
     ./pseudos/Zn.upf
     MD5 check sum: 7f56cabf9682ed8c977c2f7d0c5985c5
     Pseudo is Ultrasoft + core correction, Zval = 12.0
     Generated using &quot;atomic&quot; code by A. Dal Corso  v.6.2.2
     Using radial grid of 1201 points,  6 beta functions with: 
                l(1) =   0
                l(2) =   0
                l(3) =   1
                l(4) =   1
                l(5) =   2
                l(6) =   2
     Q(r) pseudized with 0 coefficients 


     PseudoPot. # 2 for O  read from file:
     ./pseudos/O.upf
     MD5 check sum: 91400c9766925bcf19f520983a725ff0
     Pseudo is Ultrasoft + core correction, Zval =  6.0
     Generated using &quot;atomic&quot; code by A. Dal Corso  v.6.3MaX
     Using radial grid of 1095 points,  4 beta functions with: 
                l(1) =   0
                l(2) =   0
                l(3) =   1
                l(4) =   1
     Q(r) pseudized with 0 coefficients 


     atomic species   valence    mass     pseudopotential
        Zn            12.00    63.38000     Zn( 1.00)
        O              6.00    15.99900     O ( 1.00)

     No symmetry found



   Cartesian axes

     site n.     atom                  positions (alat units)
         1           Zn  tau(   1) = (   0.5558601   0.3874471   1.0942178  )
         2           Zn  tau(   2) = (   0.0074863   0.7108596   0.2187136  )
         3           O   tau(   3) = (   0.5497763   0.3569575   1.4500682  )
         4           O   tau(   4) = (  -0.2656161   0.6987634   0.8521248  )

     number of k points=   112

     Number of k-points >= 100: set verbosity='high' to print them.

     Dense  grid:    32475 G-vectors     FFT dimensions: (  36,  36,  60)

     Smooth grid:    11561 G-vectors     FFT dimensions: (  25,  25,  45)

     Estimated max dynamical RAM per process >      23.23 MB

     Estimated total dynamical RAM >     185.83 MB

     Check: negative core charge=   -0.000001

     Initial potential from superposition of free atoms

     starting charge      35.9925, renormalised to      36.0000
     Starting wfcs are   26 randomized atomic wfcs

     total cpu time spent up to now is        3.1 secs

     Self-consistent Calculation

     iteration #  1     ecut=    50.00 Ry     beta= 0.30
     Davidson diagonalization with overlap
     ethr =  1.00E-02,  avg # of iterations =  3.0

     total cpu time spent up to now is        7.8 secs

     total energy              =    -358.30791216 Ry
     estimated scf accuracy    <       1.33801471 Ry

     iteration #  2     ecut=    50.00 Ry     beta= 0.30
     Davidson diagonalization with overlap
     ethr =  3.72E-03,  avg # of iterations =  2.4

     total cpu time spent up to now is       12.0 secs

     total energy              =    -358.24305103 Ry
     estimated scf accuracy    <       0.32112163 Ry

     iteration #  3     ecut=    50.00 Ry     beta= 0.30
     Davidson diagonalization with overlap
     ethr =  8.92E-04,  avg # of iterations =  6.6

     total cpu time spent up to now is       20.0 secs

     total energy              =    -358.67760043 Ry
     estimated scf accuracy    <       0.54326421 Ry

     iteration #  4     ecut=    50.00 Ry     beta= 0.30
     Davidson diagonalization with overlap
     ethr =  8.92E-04,  avg # of iterations =  1.0

     total cpu time spent up to now is       23.4 secs

     total energy              =    -358.67580413 Ry
     estimated scf accuracy    <       0.53481082 Ry

     iteration #  5     ecut=    50.00 Ry     beta= 0.30
     Davidson diagonalization with overlap
     ethr =  8.92E-04,  avg # of iterations =  1.0

     total cpu time spent up to now is       26.8 secs

     total energy              =    -358.63563119 Ry
     estimated scf accuracy    <       0.53703703 Ry

     iteration #  6     ecut=    50.00 Ry     beta= 0.30
     Davidson diagonalization with overlap
     ethr =  8.92E-04,  avg # of iterations =  1.0

     total cpu time spent up to now is       30.2 secs

     total energy              =    -358.39743455 Ry
     estimated scf accuracy    <       0.45132117 Ry

     iteration #  7     ecut=    50.00 Ry     beta= 0.30
     Davidson diagonalization with overlap
     ethr =  8.92E-04,  avg # of iterations =  5.8

     total cpu time spent up to now is       36.5 secs

     total energy              =    -358.61585080 Ry
     estimated scf accuracy    <       0.11363122 Ry

     iteration #  8     ecut=    50.00 Ry     beta= 0.30
     Davidson diagonalization with overlap
     ethr =  3.16E-04,  avg # of iterations =  7.4

     total cpu time spent up to now is       45.1 secs

     total energy              =    -358.41478427 Ry
     estimated scf accuracy    <       0.71278175 Ry

     iteration #  9     ecut=    50.00 Ry     beta= 0.30
     Davidson diagonalization with overlap
     ethr =  3.16E-04,  avg # of iterations =  7.8

     total cpu time spent up to now is       53.5 secs

     total energy              =    -358.53072143 Ry
     estimated scf accuracy    <       0.01560799 Ry

     iteration # 10     ecut=    50.00 Ry     beta= 0.30
     Davidson diagonalization with overlap
     ethr =  4.34E-05,  avg # of iterations =  5.8

     total cpu time spent up to now is       59.8 secs

     total energy              =    -358.52816418 Ry
     estimated scf accuracy    <       0.02620696 Ry

     iteration # 11     ecut=    50.00 Ry     beta= 0.30
     Davidson diagonalization with overlap
     ethr =  4.34E-05,  avg # of iterations =  4.2

     total cpu time spent up to now is       64.6 secs

     total energy              =    -358.52896363 Ry
     estimated scf accuracy    <       0.00319325 Ry

     iteration # 12     ecut=    50.00 Ry     beta= 0.30
     Davidson diagonalization with overlap
     c_bands:  1 eigenvalues not converged
     ethr =  8.87E-06,  avg # of iterations = 10.0

     total cpu time spent up to now is       74.6 secs

     total energy              =    -358.53143580 Ry
     estimated scf accuracy    <       0.01153426 Ry

     iteration # 13     ecut=    50.00 Ry     beta= 0.30
     Davidson diagonalization with overlap
     ethr =  8.87E-06,  avg # of iterations =  5.0

     total cpu time spent up to now is       79.7 secs

     total energy              =    -358.53138802 Ry
     estimated scf accuracy    <       0.00192651 Ry

     iteration # 14     ecut=    50.00 Ry     beta= 0.30
     Davidson diagonalization with overlap
     ethr =  5.35E-06,  avg # of iterations =  5.8

     total cpu time spent up to now is       86.4 secs

     total energy              =    -358.53287606 Ry
     estimated scf accuracy    <       0.00037913 Ry

     iteration # 15     ecut=    50.00 Ry     beta= 0.30
     Davidson diagonalization with overlap
     c_bands:  1 eigenvalues not converged
     c_bands:  1 eigenvalues not converged
     ethr =  1.05E-06,  avg # of iterations =  9.6

     total cpu time spent up to now is       95.7 secs

     total energy              =    -358.53274004 Ry
     estimated scf accuracy    <       0.00437606 Ry

     iteration # 16     ecut=    50.00 Ry     beta= 0.30
     Davidson diagonalization with overlap
     ethr =  1.05E-06,  avg # of iterations =  3.0

     total cpu time spent up to now is      100.0 secs

     total energy              =    -358.53217197 Ry
     estimated scf accuracy    <       0.00283258 Ry

     iteration # 17     ecut=    50.00 Ry     beta= 0.30
     Davidson diagonalization with overlap
     c_bands:  1 eigenvalues not converged
     ethr =  1.05E-06,  avg # of iterations =  6.6

     total cpu time spent up to now is      106.7 secs

     total energy              =    -358.53232160 Ry
     estimated scf accuracy    <       0.00051942 Ry

     iteration # 18     ecut=    50.00 Ry     beta= 0.30
     Davidson diagonalization with overlap
     ethr =  1.05E-06,  avg # of iterations =  1.6

     total cpu time spent up to now is      110.2 secs

     total energy              =    -358.53231065 Ry
     estimated scf accuracy    <       0.00032160 Ry

     iteration # 19     ecut=    50.00 Ry     beta= 0.30
     Davidson diagonalization with overlap
     ethr =  8.93E-07,  avg # of iterations =  1.4

     total cpu time spent up to now is      113.6 secs

     total energy              =    -358.53225140 Ry
     estimated scf accuracy    <       0.00021750 Ry

     iteration # 20     ecut=    50.00 Ry     beta= 0.30
     Davidson diagonalization with overlap
     ethr =  6.04E-07,  avg # of iterations =  5.6

     total cpu time spent up to now is      118.4 secs

     total energy              =    -358.53230605 Ry
     estimated scf accuracy    <       0.00000673 Ry

     iteration # 21     ecut=    50.00 Ry     beta= 0.30
     Davidson diagonalization with overlap
     c_bands:  1 eigenvalues not converged
     c_bands:  1 eigenvalues not converged
     ethr =  1.87E-08,  avg # of iterations =  9.0

     total cpu time spent up to now is      127.9 secs

     total energy              =    -358.53231932 Ry
     estimated scf accuracy    <       0.00000609 Ry

     iteration # 22     ecut=    50.00 Ry     beta= 0.30
     Davidson diagonalization with overlap
     ethr =  1.69E-08,  avg # of iterations =  1.9

     total cpu time spent up to now is      131.7 secs

     total energy              =    -358.53232089 Ry
     estimated scf accuracy    <       0.00000275 Ry

     iteration # 23     ecut=    50.00 Ry     beta= 0.30
     Davidson diagonalization with overlap
     ethr =  7.65E-09,  avg # of iterations =  2.2

     total cpu time spent up to now is      135.7 secs

     total energy              =    -358.53232377 Ry
     estimated scf accuracy    <       0.00000600 Ry

     iteration # 24     ecut=    50.00 Ry     beta= 0.30
     Davidson diagonalization with overlap
     c_bands:  1 eigenvalues not converged
     c_bands:  1 eigenvalues not converged
     c_bands:  1 eigenvalues not converged
     c_bands:  1 eigenvalues not converged
     c_bands:  1 eigenvalues not converged
     c_bands:  1 eigenvalues not converged
     c_bands:  1 eigenvalues not converged
     c_bands:  1 eigenvalues not converged
     c_bands:  1 eigenvalues not converged
     c_bands:  1 eigenvalues not converged
     c_bands:  1 eigenvalues not converged
     ethr =  7.65E-09,  avg # of iterations = 15.1

     total cpu time spent up to now is      152.0 secs

     total energy              =    -358.53232246 Ry
     estimated scf accuracy    <       0.00025808 Ry

     iteration # 25     ecut=    50.00 Ry     beta= 0.30
     Davidson diagonalization with overlap
     c_bands:  1 eigenvalues not converged
     ethr =  7.65E-09,  avg # of iterations = 11.5

     total cpu time spent up to now is      164.4 secs

     total energy              =    -358.53230010 Ry
     estimated scf accuracy    <       0.00006558 Ry

     iteration # 26     ecut=    50.00 Ry     beta= 0.30
     Davidson diagonalization with overlap
     c_bands:  1 eigenvalues not converged
     c_bands:  1 eigenvalues not converged
     c_bands:  1 eigenvalues not converged
     c_bands:  1 eigenvalues not converged
     c_bands:  1 eigenvalues not converged
     c_bands:  1 eigenvalues not converged
     ethr =  7.65E-09,  avg # of iterations = 13.5

     total cpu time spent up to now is      178.2 secs

     total energy              =    -358.53231621 Ry
     estimated scf accuracy    <       0.00001085 Ry

     iteration # 27     ecut=    50.00 Ry     beta= 0.30
     Davidson diagonalization with overlap
     ethr =  7.65E-09,  avg # of iterations =  8.7

     total cpu time spent up to now is      187.4 secs

     total energy              =    -358.53231983 Ry
     estimated scf accuracy    <       0.00000151 Ry

     iteration # 28     ecut=    50.00 Ry     beta= 0.30
     Davidson diagonalization with overlap
     ethr =  4.20E-09,  avg # of iterations =  1.5

     total cpu time spent up to now is      191.0 secs

     total energy              =    -358.53231943 Ry
     estimated scf accuracy    <       0.00000142 Ry

     iteration # 29     ecut=    50.00 Ry     beta= 0.30
     Davidson diagonalization with overlap
     ethr =  3.93E-09,  avg # of iterations =  1.5

     total cpu time spent up to now is      194.5 secs

     total energy              =    -358.53231924 Ry
     estimated scf accuracy    <       0.00000058 Ry

     iteration # 30     ecut=    50.00 Ry     beta= 0.30
     Davidson diagonalization with overlap
     ethr =  1.60E-09,  avg # of iterations =  5.0

     total cpu time spent up to now is      200.3 secs

     total energy              =    -358.53231951 Ry
     estimated scf accuracy    <       0.00000004 Ry

     iteration # 31     ecut=    50.00 Ry     beta= 0.30
     Davidson diagonalization with overlap
     ethr =  1.07E-10,  avg # of iterations =  6.3

     total cpu time spent up to now is      206.7 secs

     total energy              =    -358.53231948 Ry
     estimated scf accuracy    <       0.00000011 Ry

     iteration # 32     ecut=    50.00 Ry     beta= 0.30
     Davidson diagonalization with overlap
     ethr =  1.07E-10,  avg # of iterations =  7.2

     total cpu time spent up to now is      213.3 secs

     End of self-consistent calculation

     Number of k-points >= 100: set verbosity='high' to print the bands.

     highest occupied level (ev):    14.9367

!    total energy              =    -358.53231950 Ry
     estimated scf accuracy    <          2.7E-09 Ry

     The total energy is the sum of the following terms:
     one-electron contribution =    -151.06847256 Ry
     hartree contribution      =     120.78151439 Ry
     xc contribution           =    -111.12121843 Ry
     ewald contribution        =    -217.12414290 Ry

     convergence has been achieved in  32 iterations

     Forces acting on atoms (cartesian axes, Ry/au):

     atom    1 type  1   force =    -0.65449990   -0.78330572   -5.08939877
     atom    2 type  1   force =     0.00111027   -0.02643543    0.11990418
     atom    3 type  2   force =    -0.16308927   -0.59184964    6.28176326
     atom    4 type  2   force =     0.81647891    1.40159078   -1.31226868
     The non-local contrib.  to forces
     atom    1 type  1   force =    -0.25423347   -0.41944959    0.68458457
     atom    2 type  1   force =     0.18576906   -0.27250039   -0.17767101
     atom    3 type  2   force =    -0.08692019   -0.29509952    0.26727485
     atom    4 type  2   force =    -0.09433667   -0.43010621   -0.13022326
     The ionic contribution  to forces
     atom    1 type  1   force =    -5.63788774   -7.75422042  -25.34549107
     atom    2 type  1   force =     1.78476503   -1.25048173   10.39427997
     atom    3 type  2   force =    -1.08741420   -1.82350389   29.11366348
     atom    4 type  2   force =     4.94053691   10.82820604  -14.16245238
     The local contribution  to forces
     atom    1 type  1   force =     5.15343326    7.27032207   19.26414671
     atom    2 type  1   force =    -1.95526147    1.47856355  -10.08622610
     atom    3 type  2   force =     1.00983107    1.52251413  -23.07809912
     atom    4 type  2   force =    -4.02723537   -8.99415699   12.97326640
     The core correction contribution to forces
     atom    1 type  1   force =     0.08420131    0.12005780    0.30744056
     atom    2 type  1   force =    -0.01417957    0.01798753   -0.01048015
     atom    3 type  2   force =     0.00141372    0.00424112   -0.02118992
     atom    4 type  2   force =    -0.00249422   -0.00237053    0.00732332
     The Hubbard contrib.    to forces
     atom    1 type  1   force =     0.00000000    0.00000000    0.00000000
     atom    2 type  1   force =     0.00000000    0.00000000    0.00000000
     atom    3 type  2   force =     0.00000000    0.00000000    0.00000000
     atom    4 type  2   force =     0.00000000    0.00000000    0.00000000
     The SCF correction term to forces
     atom    1 type  1   force =    -0.00001353   -0.00002268   -0.00001920
     atom    2 type  1   force =     0.00001695   -0.00001148    0.00006182
     atom    3 type  2   force =     0.00000006   -0.00000858    0.00017431
     atom    4 type  2   force =     0.00000800    0.00001137   -0.00012242

     Total force =     8.435021     Total SCF correction =     0.000226

     Writing all to output data dir ./ZnO_ANN.save/

     init_run     :      2.55s CPU      2.62s WALL (       1 calls)
     electrons    :    205.16s CPU    210.20s WALL (       1 calls)
     forces       :      0.78s CPU      0.80s WALL (       1 calls)

     Called by init_run:
     wfcinit      :      1.86s CPU      1.91s WALL (       1 calls)
     potinit      :      0.15s CPU      0.15s WALL (       1 calls)
     hinit0       :      0.47s CPU      0.49s WALL (       1 calls)

     Called by electrons:
     c_bands      :    187.29s CPU    191.76s WALL (      32 calls)
     sum_band     :     16.07s CPU     16.59s WALL (      32 calls)
     v_of_rho     :      0.37s CPU      0.39s WALL (      33 calls)
     newd         :      1.38s CPU      1.40s WALL (      33 calls)
     mix_rho      :      0.06s CPU      0.07s WALL (      32 calls)

     Called by c_bands:
     init_us_2    :      1.22s CPU      1.24s WALL (    7392 calls)
     init_us_2:cp :      1.19s CPU      1.22s WALL (    7392 calls)
     cegterg      :    183.40s CPU    187.79s WALL (    3584 calls)

     Called by *egterg:
     cdiaghg      :     27.23s CPU     27.51s WALL (   23541 calls)
     h_psi        :     98.97s CPU    102.18s WALL (   23653 calls)
     s_psi        :     12.99s CPU     13.13s WALL (   23653 calls)
     g_psi        :      0.38s CPU      0.38s WALL (   19957 calls)

     Called by h_psi:
     h_psi:calbec :     14.12s CPU     14.74s WALL (   23653 calls)
     vloc_psi     :     71.48s CPU     73.90s WALL (   23653 calls)
     add_vuspsi   :     12.98s CPU     13.15s WALL (   23653 calls)

     General routines
     calbec       :     18.19s CPU     19.00s WALL (   27685 calls)
     fft          :      0.47s CPU      0.50s WALL (     438 calls)
     ffts         :      0.06s CPU      0.06s WALL (      65 calls)
     fftw         :     70.63s CPU     73.01s WALL (  540172 calls)
     interpolate  :      0.07s CPU      0.07s WALL (      33 calls)

     Parallel routines

     PWSCF        :   3m29.17s CPU   3m34.42s WALL


   This run was terminated on:  11:59:11  23Jun2025            

=------------------------------------------------------------------------------=
   JOB DONE.
=------------------------------------------------------------------------------=
Note: The following floating-point exceptions are signalling: IEEE_INVALID_FLAG
