
     Program PWSCF v.7.2 starts on 23Jun2025 at 14:14:20 

     This program is part of the open-source Quantum ESPRESSO suite
     for quantum simulation of materials; please cite
         "P. Giannozzi et al., J. Phys.:Condens. Matter 21 395502 (2009);
         "P. Giannozzi et al., J. Phys.:Condens. Matter 29 465901 (2017);
         "P. Giannozzi et al., J. Chem. Phys. 152 154105 (2020);
          URL http://www.quantum-espresso.org", 
     in publications or presentations arising from this work. More details at
     http://www.quantum-espresso.org/quote

     Parallel version (MPI), running on     8 processors

     MPI processes distributed on     1 nodes
     90975 MiB available memory on the printing compute node when the environment starts

     Reading input from /home/jvc/QEspresso7.2/ZnO_DataBase/scfs_rnd025.in/scf-6.18-1.45-1.in

     Current dimensions of program PWSCF are:
     Max number of different atomic species (ntypx) = 10
     Max number of k-points (npk) =  40000
     Max angular momentum in pseudopotentials (lmaxx) =  4
     file Zn.upf: wavefunction(s)  3D renormalized

     R & G space division:  proc/nbgrp/npool/nimage =       8
     Subspace diagonalization in iterative solution of the eigenvalue problem:
     a serial algorithm will be used


     Parallelization info
     --------------------
     sticks:   dense  smooth     PW     G-vecs:    dense   smooth      PW
     Min         130      64     20                 5028     1766     302
     Max         132      66     21                 5031     1769     307
     Sum        1045     517    163                40233    14141    2429

     Using Slab Decomposition



     bravais-lattice index     =            4
     lattice parameter (alat)  =       6.1788  a.u.
     unit-cell volume          =     296.8179 (a.u.)^3
     number of atoms/cell      =            4
     number of atomic types    =            2
     number of electrons       =        36.00
     number of Kohn-Sham states=           18
     kinetic-energy cutoff     =      50.0000  Ry
     charge density cutoff     =     400.0000  Ry
     scf convergence threshold =      1.0E-08
     mixing beta               =       0.3000
     number of iterations used =            8  plain     mixing
     Exchange-correlation= PBE
                           (   1   4   3   4   0   0   0)

     celldm(1)=   6.178821  celldm(2)=   0.000000  celldm(3)=   1.452923
     celldm(4)=   0.000000  celldm(5)=   0.000000  celldm(6)=   0.000000

     crystal axes: (cart. coord. in units of alat)
               a(1) = (   1.000000   0.000000   0.000000 )  
               a(2) = (  -0.500000   0.866025   0.000000 )  
               a(3) = (   0.000000   0.000000   1.452923 )  

     reciprocal axes: (cart. coord. in units 2 pi/alat)
               b(1) = (  1.000000  0.577350 -0.000000 )  
               b(2) = (  0.000000  1.154701  0.000000 )  
               b(3) = (  0.000000 -0.000000  0.688268 )  


     PseudoPot. # 1 for Zn read from file:
     ./pseudos/Zn.upf
     MD5 check sum: 7f56cabf9682ed8c977c2f7d0c5985c5
     Pseudo is Ultrasoft + core correction, Zval = 12.0
     Generated using &quot;atomic&quot; code by A. Dal Corso  v.6.2.2
     Using radial grid of 1201 points,  6 beta functions with: 
                l(1) =   0
                l(2) =   0
                l(3) =   1
                l(4) =   1
                l(5) =   2
                l(6) =   2
     Q(r) pseudized with 0 coefficients 


     PseudoPot. # 2 for O  read from file:
     ./pseudos/O.upf
     MD5 check sum: 91400c9766925bcf19f520983a725ff0
     Pseudo is Ultrasoft + core correction, Zval =  6.0
     Generated using &quot;atomic&quot; code by A. Dal Corso  v.6.3MaX
     Using radial grid of 1095 points,  4 beta functions with: 
                l(1) =   0
                l(2) =   0
                l(3) =   1
                l(4) =   1
     Q(r) pseudized with 0 coefficients 


     atomic species   valence    mass     pseudopotential
        Zn            12.00    63.38000     Zn( 1.00)
        O              6.00    15.99900     O ( 1.00)

     No symmetry found



   Cartesian axes

     site n.     atom                  positions (alat units)
         1           Zn  tau(   1) = (   0.4047735   0.2665265   1.0205549  )
         2           Zn  tau(   2) = (   0.1578604   0.6432861  -0.2547040  )
         3           O   tau(   3) = (   0.3159670   0.2415258   1.1150783  )
         4           O   tau(   4) = (  -0.1240571   0.5344343   0.8605901  )

     number of k points=   112

     Number of k-points >= 100: set verbosity='high' to print them.

     Dense  grid:    40233 G-vectors     FFT dimensions: (  40,  40,  60)

     Smooth grid:    14141 G-vectors     FFT dimensions: (  27,  27,  45)

     Estimated max dynamical RAM per process >      27.98 MB

     Estimated total dynamical RAM >     223.81 MB

     Check: negative core charge=   -0.000002

     Initial potential from superposition of free atoms

     starting charge      35.9925, renormalised to      36.0000
     Starting wfcs are   26 randomized atomic wfcs

     total cpu time spent up to now is        3.8 secs

     Self-consistent Calculation

     iteration #  1     ecut=    50.00 Ry     beta= 0.30
     Davidson diagonalization with overlap
     ethr =  1.00E-02,  avg # of iterations =  5.6

     total cpu time spent up to now is       13.5 secs

     total energy              =    -310.62633585 Ry
     estimated scf accuracy    <       3.09829395 Ry

     iteration #  2     ecut=    50.00 Ry     beta= 0.30
     Davidson diagonalization with overlap
     ethr =  8.61E-03,  avg # of iterations =  2.4

     total cpu time spent up to now is       18.8 secs

     total energy              =    -310.45378162 Ry
     estimated scf accuracy    <       0.73701332 Ry

     iteration #  3     ecut=    50.00 Ry     beta= 0.30
     Davidson diagonalization with overlap
     ethr =  2.05E-03,  avg # of iterations =  9.1

     total cpu time spent up to now is       28.3 secs

     total energy              =    -311.31372297 Ry
     estimated scf accuracy    <       1.62338066 Ry

     iteration #  4     ecut=    50.00 Ry     beta= 0.30
     Davidson diagonalization with overlap
     ethr =  2.05E-03,  avg # of iterations =  1.2

     total cpu time spent up to now is       32.8 secs

     total energy              =    -311.02962231 Ry
     estimated scf accuracy    <       2.00790331 Ry

     iteration #  5     ecut=    50.00 Ry     beta= 0.30
     Davidson diagonalization with overlap
     ethr =  2.05E-03,  avg # of iterations =  1.1

     total cpu time spent up to now is       37.2 secs

     total energy              =    -310.00476670 Ry
     estimated scf accuracy    <       1.51955982 Ry

     iteration #  6     ecut=    50.00 Ry     beta= 0.30
     Davidson diagonalization with overlap
     ethr =  2.05E-03,  avg # of iterations =  9.8

     total cpu time spent up to now is       49.8 secs

     total energy              =    -310.98413710 Ry
     estimated scf accuracy    <       2.58969388 Ry

     iteration #  7     ecut=    50.00 Ry     beta= 0.30
     Davidson diagonalization with overlap
     ethr =  2.05E-03,  avg # of iterations =  2.0

     total cpu time spent up to now is       54.9 secs

     total energy              =    -310.11761767 Ry
     estimated scf accuracy    <       1.38367671 Ry

     iteration #  8     ecut=    50.00 Ry     beta= 0.30
     Davidson diagonalization with overlap
     ethr =  2.05E-03,  avg # of iterations = 10.7

     total cpu time spent up to now is       64.6 secs

     total energy              =    -310.68502722 Ry
     estimated scf accuracy    <       2.49123004 Ry

     iteration #  9     ecut=    50.00 Ry     beta= 0.30
     Davidson diagonalization with overlap
     ethr =  2.05E-03,  avg # of iterations =  4.1

     total cpu time spent up to now is       70.2 secs

     total energy              =    -310.55575034 Ry
     estimated scf accuracy    <       0.98844070 Ry

     iteration # 10     ecut=    50.00 Ry     beta= 0.30
     Davidson diagonalization with overlap
     ethr =  2.05E-03,  avg # of iterations =  6.6

     total cpu time spent up to now is       76.9 secs

     total energy              =    -310.78794145 Ry
     estimated scf accuracy    <       0.01063706 Ry

     iteration # 11     ecut=    50.00 Ry     beta= 0.30
     Davidson diagonalization with overlap
     c_bands:  1 eigenvalues not converged
     c_bands:  1 eigenvalues not converged
     c_bands:  1 eigenvalues not converged
     c_bands:  1 eigenvalues not converged
     c_bands:  1 eigenvalues not converged
     c_bands:  1 eigenvalues not converged
     c_bands:  1 eigenvalues not converged
     c_bands:  1 eigenvalues not converged
     c_bands:  1 eigenvalues not converged
     c_bands:  1 eigenvalues not converged
     ethr =  2.95E-05,  avg # of iterations = 10.4

     total cpu time spent up to now is       87.1 secs

     total energy              =    -310.84997883 Ry
     estimated scf accuracy    <       0.07756964 Ry

     iteration # 12     ecut=    50.00 Ry     beta= 0.30
     Davidson diagonalization with overlap
     ethr =  2.95E-05,  avg # of iterations =  3.0

     total cpu time spent up to now is       92.2 secs

     total energy              =    -310.81683112 Ry
     estimated scf accuracy    <       0.10008067 Ry

     iteration # 13     ecut=    50.00 Ry     beta= 0.30
     Davidson diagonalization with overlap
     ethr =  2.95E-05,  avg # of iterations = 10.2

     total cpu time spent up to now is      101.5 secs

     total energy              =    -310.86350218 Ry
     estimated scf accuracy    <       0.01556828 Ry

     iteration # 14     ecut=    50.00 Ry     beta= 0.30
     Davidson diagonalization with overlap
     ethr =  2.95E-05,  avg # of iterations = 12.2

     total cpu time spent up to now is      115.2 secs

     total energy              =    -310.82250229 Ry
     estimated scf accuracy    <       0.43613566 Ry

     iteration # 15     ecut=    50.00 Ry     beta= 0.30
     Davidson diagonalization with overlap
     ethr =  2.95E-05,  avg # of iterations = 10.4

     total cpu time spent up to now is      125.7 secs

     total energy              =    -310.85991478 Ry
     estimated scf accuracy    <       0.10028858 Ry

     iteration # 16     ecut=    50.00 Ry     beta= 0.30
     Davidson diagonalization with overlap
     ethr =  2.95E-05,  avg # of iterations =  6.0

     total cpu time spent up to now is      132.1 secs

     total energy              =    -310.83084466 Ry
     estimated scf accuracy    <       0.15767246 Ry

     iteration # 17     ecut=    50.00 Ry     beta= 0.30
     Davidson diagonalization with overlap
     ethr =  2.95E-05,  avg # of iterations =  7.0

     total cpu time spent up to now is      139.8 secs

     total energy              =    -310.84498566 Ry
     estimated scf accuracy    <       0.06502454 Ry

     iteration # 18     ecut=    50.00 Ry     beta= 0.30
     Davidson diagonalization with overlap
     ethr =  2.95E-05,  avg # of iterations =  2.2

     total cpu time spent up to now is      144.7 secs

     total energy              =    -310.83886407 Ry
     estimated scf accuracy    <       0.08455059 Ry

     iteration # 19     ecut=    50.00 Ry     beta= 0.30
     Davidson diagonalization with overlap
     ethr =  2.95E-05,  avg # of iterations =  1.1

     total cpu time spent up to now is      149.1 secs

     total energy              =    -310.79200455 Ry
     estimated scf accuracy    <       0.07413421 Ry

     iteration # 20     ecut=    50.00 Ry     beta= 0.30
     Davidson diagonalization with overlap
     c_bands:  1 eigenvalues not converged
     c_bands:  1 eigenvalues not converged
     c_bands:  1 eigenvalues not converged
     c_bands:  1 eigenvalues not converged
     c_bands:  1 eigenvalues not converged
     c_bands:  1 eigenvalues not converged
     c_bands:  1 eigenvalues not converged
     c_bands:  1 eigenvalues not converged
     c_bands:  1 eigenvalues not converged
     c_bands:  1 eigenvalues not converged
     c_bands:  1 eigenvalues not converged
     c_bands:  1 eigenvalues not converged
     c_bands:  1 eigenvalues not converged
     c_bands:  1 eigenvalues not converged
     c_bands:  1 eigenvalues not converged
     c_bands:  1 eigenvalues not converged
     c_bands:  1 eigenvalues not converged
     c_bands:  1 eigenvalues not converged
     ethr =  2.95E-05,  avg # of iterations = 15.0

     total cpu time spent up to now is      161.5 secs

     total energy              =    -310.78340636 Ry
     estimated scf accuracy    <       0.14570553 Ry

     iteration # 21     ecut=    50.00 Ry     beta= 0.30
     Davidson diagonalization with overlap
     c_bands:  1 eigenvalues not converged
     c_bands:  1 eigenvalues not converged
     c_bands:  1 eigenvalues not converged
     c_bands:  1 eigenvalues not converged
     c_bands:  1 eigenvalues not converged
     c_bands:  1 eigenvalues not converged
     c_bands:  1 eigenvalues not converged
     c_bands:  1 eigenvalues not converged
     c_bands:  1 eigenvalues not converged
     c_bands:  1 eigenvalues not converged
     c_bands:  1 eigenvalues not converged
     c_bands:  1 eigenvalues not converged
     c_bands:  1 eigenvalues not converged
     c_bands:  1 eigenvalues not converged
     ethr =  2.95E-05,  avg # of iterations = 13.5

     total cpu time spent up to now is      174.2 secs

     total energy              =    -310.82397382 Ry
     estimated scf accuracy    <       0.03181837 Ry

     iteration # 22     ecut=    50.00 Ry     beta= 0.30
     Davidson diagonalization with overlap
     ethr =  2.95E-05,  avg # of iterations =  3.2

     total cpu time spent up to now is      179.3 secs

     total energy              =    -310.82209912 Ry
     estimated scf accuracy    <       0.01888399 Ry

     iteration # 23     ecut=    50.00 Ry     beta= 0.30
     Davidson diagonalization with overlap
     ethr =  2.95E-05,  avg # of iterations =  6.1

     total cpu time spent up to now is      185.2 secs

     total energy              =    -310.82390860 Ry
     estimated scf accuracy    <       0.00376757 Ry

     iteration # 24     ecut=    50.00 Ry     beta= 0.30
     Davidson diagonalization with overlap
     ethr =  1.05E-05,  avg # of iterations =  3.3

     total cpu time spent up to now is      190.5 secs

     total energy              =    -310.82368927 Ry
     estimated scf accuracy    <       0.00248622 Ry

     iteration # 25     ecut=    50.00 Ry     beta= 0.30
     Davidson diagonalization with overlap
     ethr =  6.91E-06,  avg # of iterations =  3.6

     total cpu time spent up to now is      195.8 secs

     total energy              =    -310.82344714 Ry
     estimated scf accuracy    <       0.00084772 Ry

     iteration # 26     ecut=    50.00 Ry     beta= 0.30
     Davidson diagonalization with overlap
     c_bands:  1 eigenvalues not converged
     c_bands:  1 eigenvalues not converged
     c_bands:  1 eigenvalues not converged
     ethr =  2.35E-06,  avg # of iterations = 10.2

     total cpu time spent up to now is      204.3 secs

     total energy              =    -310.82385113 Ry
     estimated scf accuracy    <       0.00156118 Ry

     iteration # 27     ecut=    50.00 Ry     beta= 0.30
     Davidson diagonalization with overlap
     ethr =  2.35E-06,  avg # of iterations =  5.5

     total cpu time spent up to now is      210.1 secs

     total energy              =    -310.82388413 Ry
     estimated scf accuracy    <       0.00028820 Ry

     iteration # 28     ecut=    50.00 Ry     beta= 0.30
     Davidson diagonalization with overlap
     ethr =  8.01E-07,  avg # of iterations =  7.2

     total cpu time spent up to now is      217.2 secs

     total energy              =    -310.82398812 Ry
     estimated scf accuracy    <       0.00002810 Ry

     iteration # 29     ecut=    50.00 Ry     beta= 0.30
     Davidson diagonalization with overlap
     ethr =  7.81E-08,  avg # of iterations =  7.9

     total cpu time spent up to now is      225.5 secs

     total energy              =    -310.82400144 Ry
     estimated scf accuracy    <       0.00002247 Ry

     iteration # 30     ecut=    50.00 Ry     beta= 0.30
     Davidson diagonalization with overlap
     ethr =  6.24E-08,  avg # of iterations =  2.0

     total cpu time spent up to now is      230.4 secs

     total energy              =    -310.82399841 Ry
     estimated scf accuracy    <       0.00000946 Ry

     iteration # 31     ecut=    50.00 Ry     beta= 0.30
     Davidson diagonalization with overlap
     c_bands:  1 eigenvalues not converged
     c_bands:  1 eigenvalues not converged
     ethr =  2.63E-08,  avg # of iterations =  6.5

     total cpu time spent up to now is      237.9 secs

     total energy              =    -310.82400258 Ry
     estimated scf accuracy    <       0.00000202 Ry

     iteration # 32     ecut=    50.00 Ry     beta= 0.30
     Davidson diagonalization with overlap
     ethr =  5.60E-09,  avg # of iterations =  3.4

     total cpu time spent up to now is      243.1 secs

     total energy              =    -310.82400226 Ry
     estimated scf accuracy    <       0.00000132 Ry

     iteration # 33     ecut=    50.00 Ry     beta= 0.30
     Davidson diagonalization with overlap
     ethr =  3.67E-09,  avg # of iterations =  4.9

     total cpu time spent up to now is      249.3 secs

     total energy              =    -310.82400252 Ry
     estimated scf accuracy    <       0.00000004 Ry

     iteration # 34     ecut=    50.00 Ry     beta= 0.30
     Davidson diagonalization with overlap
     c_bands:  1 eigenvalues not converged
     c_bands:  1 eigenvalues not converged
     c_bands:  1 eigenvalues not converged
     ethr =  1.13E-10,  avg # of iterations =  8.8

     total cpu time spent up to now is      258.4 secs

     total energy              =    -310.82400257 Ry
     estimated scf accuracy    <       0.00000001 Ry

     iteration # 35     ecut=    50.00 Ry     beta= 0.30
     Davidson diagonalization with overlap
     ethr =  3.48E-11,  avg # of iterations =  8.7

     total cpu time spent up to now is      266.5 secs

     total energy              =    -310.82400258 Ry
     estimated scf accuracy    <       0.00000002 Ry

     iteration # 36     ecut=    50.00 Ry     beta= 0.30
     Davidson diagonalization with overlap
     ethr =  3.48E-11,  avg # of iterations =  1.2

     total cpu time spent up to now is      270.9 secs

     total energy              =    -310.82400257 Ry
     estimated scf accuracy    <       0.00000001 Ry

     iteration # 37     ecut=    50.00 Ry     beta= 0.30
     Davidson diagonalization with overlap
     ethr =  3.48E-11,  avg # of iterations =  7.3

     total cpu time spent up to now is      277.4 secs

     End of self-consistent calculation

     Number of k-points >= 100: set verbosity='high' to print the bands.

     highest occupied level (ev):    12.9771

!    total energy              =    -310.82400257 Ry
     estimated scf accuracy    <          1.5E-10 Ry

     The total energy is the sum of the following terms:
     one-electron contribution =    -432.33377673 Ry
     hartree contribution      =     247.71272062 Ry
     xc contribution           =    -116.23658257 Ry
     ewald contribution        =      -9.96636390 Ry

     convergence has been achieved in  37 iterations

     Forces acting on atoms (cartesian axes, Ry/au):

     atom    1 type  1   force =    97.21567033   26.37819639 -103.23673438
     atom    2 type  1   force =    -0.44692173    1.80022022    1.39110336
     atom    3 type  2   force =   -96.19715511  -28.00249956  102.63999988
     atom    4 type  2   force =    -0.57159348   -0.17591705   -0.79436886
     The non-local contrib.  to forces
     atom    1 type  1   force =   -24.34397061   -6.78012306   26.93139012
     atom    2 type  1   force =     0.56850057   -0.43318715   -0.24273469
     atom    3 type  2   force =     3.61865025    1.14870050   -3.34452038
     atom    4 type  2   force =     0.17019510    0.11582380    0.56666435
     The ionic contribution  to forces
     atom    1 type  1   force =   147.80743270   32.55697777 -166.18725143
     atom    2 type  1   force =    -0.75553939   18.02788581   38.25061173
     atom    3 type  2   force =  -140.42929618  -48.68095801  154.43369585
     atom    4 type  2   force =    -6.62259713   -1.90390557  -26.49705616
     The local contribution  to forces
     atom    1 type  1   force =   -24.75128864    0.96749974   34.44897906
     atom    2 type  1   force =    -0.24315067  -15.66887348  -36.47201825
     atom    3 type  2   force =    40.32234702   19.44729902  -48.13818593
     atom    4 type  2   force =     5.87977066    1.61254850   25.13500552
     The core correction contribution to forces
     atom    1 type  1   force =    -1.49649223   -0.36617551    1.57018189
     atom    2 type  1   force =    -0.01674202   -0.12558952   -0.14471846
     atom    3 type  2   force =     0.29113544    0.08245390   -0.31097936
     atom    4 type  2   force =     0.00102544   -0.00037872    0.00100790
     The Hubbard contrib.    to forces
     atom    1 type  1   force =     0.00000000    0.00000000    0.00000000
     atom    2 type  1   force =     0.00000000    0.00000000    0.00000000
     atom    3 type  2   force =     0.00000000    0.00000000    0.00000000
     atom    4 type  2   force =     0.00000000    0.00000000    0.00000000
     The SCF correction term to forces
     atom    1 type  1   force =    -0.00002256    0.00001875   -0.00005915
     atom    2 type  1   force =    -0.00000189   -0.00001416   -0.00006211
     atom    3 type  2   force =    -0.00000332    0.00000633   -0.00003544
     atom    4 type  2   force =     0.00000078   -0.00000377   -0.00001560

     Total force =   203.430297     Total SCF correction =     0.000100

     Writing all to output data dir ./ZnO_ANN.save/

     init_run     :      3.21s CPU      3.31s WALL (       1 calls)
     electrons    :    268.30s CPU    273.66s WALL (       1 calls)
     forces       :      0.93s CPU      0.95s WALL (       1 calls)

     Called by init_run:
     wfcinit      :      2.41s CPU      2.47s WALL (       1 calls)
     potinit      :      0.20s CPU      0.20s WALL (       1 calls)
     hinit0       :      0.53s CPU      0.54s WALL (       1 calls)

     Called by electrons:
     c_bands      :    240.28s CPU    244.93s WALL (      37 calls)
     sum_band     :     25.46s CPU     26.11s WALL (      37 calls)
     v_of_rho     :      0.53s CPU      0.56s WALL (      38 calls)
     newd         :      1.94s CPU      1.97s WALL (      38 calls)
     mix_rho      :      0.09s CPU      0.11s WALL (      37 calls)

     Called by c_bands:
     init_us_2    :      1.76s CPU      1.79s WALL (    8512 calls)
     init_us_2:cp :      1.73s CPU      1.77s WALL (    8512 calls)
     cegterg      :    234.71s CPU    239.27s WALL (    4144 calls)

     Called by *egterg:
     cdiaghg      :     34.01s CPU     34.37s WALL (   30330 calls)
     h_psi        :    136.01s CPU    139.29s WALL (   30442 calls)
     s_psi        :     16.52s CPU     16.70s WALL (   30442 calls)
     g_psi        :      0.44s CPU      0.44s WALL (   26186 calls)

     Called by h_psi:
     h_psi:calbec :     16.96s CPU     17.59s WALL (   30442 calls)
     vloc_psi     :    102.00s CPU    104.49s WALL (   30442 calls)
     add_vuspsi   :     16.53s CPU     16.70s WALL (   30442 calls)

     General routines
     calbec       :     22.59s CPU     23.43s WALL (   35034 calls)
     fft          :      0.60s CPU      0.65s WALL (     503 calls)
     ffts         :      0.09s CPU      0.09s WALL (      75 calls)
     fftw         :    105.48s CPU    108.08s WALL (  541830 calls)
     interpolate  :      0.10s CPU      0.10s WALL (      38 calls)

     Parallel routines

     PWSCF        :   4m33.14s CPU   4m39.01s WALL


   This run was terminated on:  14:18:59  23Jun2025            

=------------------------------------------------------------------------------=
   JOB DONE.
=------------------------------------------------------------------------------=
Note: The following floating-point exceptions are signalling: IEEE_INVALID_FLAG
