
     Program PWSCF v.7.2 starts on 23Jun2025 at 15:43:13 

     This program is part of the open-source Quantum ESPRESSO suite
     for quantum simulation of materials; please cite
         "P. Giannozzi et al., J. Phys.:Condens. Matter 21 395502 (2009);
         "P. Giannozzi et al., J. Phys.:Condens. Matter 29 465901 (2017);
         "P. Giannozzi et al., J. Chem. Phys. 152 154105 (2020);
          URL http://www.quantum-espresso.org", 
     in publications or presentations arising from this work. More details at
     http://www.quantum-espresso.org/quote

     Parallel version (MPI), running on     8 processors

     MPI processes distributed on     1 nodes
     90892 MiB available memory on the printing compute node when the environment starts

     Reading input from /home/jvc/QEspresso7.2/ZnO_DataBase/scfs_rnd025.in/scf-6.43-1.45-4.in

     Current dimensions of program PWSCF are:
     Max number of different atomic species (ntypx) = 10
     Max number of k-points (npk) =  40000
     Max angular momentum in pseudopotentials (lmaxx) =  4
     file Zn.upf: wavefunction(s)  3D renormalized

     R & G space division:  proc/nbgrp/npool/nimage =       8
     Subspace diagonalization in iterative solution of the eigenvalue problem:
     a serial algorithm will be used


     Parallelization info
     --------------------
     sticks:   dense  smooth     PW     G-vecs:    dense   smooth      PW
     Min         143      71     20                 5649     2001     326
     Max         145      73     21                 5652     2004     333
     Sum        1147     571    163                45197    16021    2633

     Using Slab Decomposition



     bravais-lattice index     =            4
     lattice parameter (alat)  =       6.4260  a.u.
     unit-cell volume          =     333.8797 (a.u.)^3
     number of atoms/cell      =            4
     number of atomic types    =            2
     number of electrons       =        36.00
     number of Kohn-Sham states=           18
     kinetic-energy cutoff     =      50.0000  Ry
     charge density cutoff     =     400.0000  Ry
     scf convergence threshold =      1.0E-08
     mixing beta               =       0.3000
     number of iterations used =            8  plain     mixing
     Exchange-correlation= PBE
                           (   1   4   3   4   0   0   0)

     celldm(1)=   6.425974  celldm(2)=   0.000000  celldm(3)=   1.452923
     celldm(4)=   0.000000  celldm(5)=   0.000000  celldm(6)=   0.000000

     crystal axes: (cart. coord. in units of alat)
               a(1) = (   1.000000   0.000000   0.000000 )  
               a(2) = (  -0.500000   0.866025   0.000000 )  
               a(3) = (   0.000000   0.000000   1.452923 )  

     reciprocal axes: (cart. coord. in units 2 pi/alat)
               b(1) = (  1.000000  0.577350 -0.000000 )  
               b(2) = (  0.000000  1.154701  0.000000 )  
               b(3) = (  0.000000 -0.000000  0.688268 )  


     PseudoPot. # 1 for Zn read from file:
     ./pseudos/Zn.upf
     MD5 check sum: 7f56cabf9682ed8c977c2f7d0c5985c5
     Pseudo is Ultrasoft + core correction, Zval = 12.0
     Generated using &quot;atomic&quot; code by A. Dal Corso  v.6.2.2
     Using radial grid of 1201 points,  6 beta functions with: 
                l(1) =   0
                l(2) =   0
                l(3) =   1
                l(4) =   1
                l(5) =   2
                l(6) =   2
     Q(r) pseudized with 0 coefficients 


     PseudoPot. # 2 for O  read from file:
     ./pseudos/O.upf
     MD5 check sum: 91400c9766925bcf19f520983a725ff0
     Pseudo is Ultrasoft + core correction, Zval =  6.0
     Generated using &quot;atomic&quot; code by A. Dal Corso  v.6.3MaX
     Using radial grid of 1095 points,  4 beta functions with: 
                l(1) =   0
                l(2) =   0
                l(3) =   1
                l(4) =   1
     Q(r) pseudized with 0 coefficients 


     atomic species   valence    mass     pseudopotential
        Zn            12.00    63.38000     Zn( 1.00)
        O              6.00    15.99900     O ( 1.00)

     No symmetry found



   Cartesian axes

     site n.     atom                  positions (alat units)
         1           Zn  tau(   1) = (   0.3098138   0.3808550   0.4790952  )
         2           Zn  tau(   2) = (   0.2726885   0.5155664  -0.3111727  )
         3           O   tau(   3) = (   0.7398604   0.2304820   0.9596833  )
         4           O   tau(   4) = (  -0.0032126   0.6556163   0.3074778  )

     number of k points=   112

     Number of k-points >= 100: set verbosity='high' to print them.

     Dense  grid:    45197 G-vectors     FFT dimensions: (  45,  45,  60)

     Smooth grid:    16021 G-vectors     FFT dimensions: (  30,  30,  45)

     Estimated max dynamical RAM per process >      31.18 MB

     Estimated total dynamical RAM >     249.44 MB

     Check: negative core charge=   -0.000002

     Initial potential from superposition of free atoms

     starting charge      35.9925, renormalised to      36.0000
     Starting wfcs are   26 randomized atomic wfcs

     total cpu time spent up to now is        4.0 secs

     Self-consistent Calculation

     iteration #  1     ecut=    50.00 Ry     beta= 0.30
     Davidson diagonalization with overlap
     ethr =  1.00E-02,  avg # of iterations =  2.0

     total cpu time spent up to now is        9.3 secs

     total energy              =    -361.16621438 Ry
     estimated scf accuracy    <       0.85747458 Ry

     iteration #  2     ecut=    50.00 Ry     beta= 0.30
     Davidson diagonalization with overlap
     ethr =  2.38E-03,  avg # of iterations =  2.0

     total cpu time spent up to now is       15.5 secs

     total energy              =    -361.29816603 Ry
     estimated scf accuracy    <       0.09740915 Ry

     iteration #  3     ecut=    50.00 Ry     beta= 0.30
     Davidson diagonalization with overlap
     ethr =  2.71E-04,  avg # of iterations =  6.5

     total cpu time spent up to now is       26.3 secs

     total energy              =    -361.34946899 Ry
     estimated scf accuracy    <       0.10380835 Ry

     iteration #  4     ecut=    50.00 Ry     beta= 0.30
     Davidson diagonalization with overlap
     ethr =  2.71E-04,  avg # of iterations =  4.9

     total cpu time spent up to now is       33.5 secs

     total energy              =    -361.38035514 Ry
     estimated scf accuracy    <       0.00848075 Ry

     iteration #  5     ecut=    50.00 Ry     beta= 0.30
     Davidson diagonalization with overlap
     ethr =  2.36E-05,  avg # of iterations =  8.6

     total cpu time spent up to now is       48.8 secs

     total energy              =    -361.37529693 Ry
     estimated scf accuracy    <       0.10278570 Ry

     iteration #  6     ecut=    50.00 Ry     beta= 0.30
     Davidson diagonalization with overlap
     ethr =  2.36E-05,  avg # of iterations =  5.4

     total cpu time spent up to now is       58.2 secs

     total energy              =    -361.37101880 Ry
     estimated scf accuracy    <       0.02199454 Ry

     iteration #  7     ecut=    50.00 Ry     beta= 0.30
     Davidson diagonalization with overlap
     ethr =  2.36E-05,  avg # of iterations =  5.3

     total cpu time spent up to now is       67.4 secs

     total energy              =    -361.37710863 Ry
     estimated scf accuracy    <       0.00075748 Ry

     iteration #  8     ecut=    50.00 Ry     beta= 0.30
     Davidson diagonalization with overlap
     ethr =  2.10E-06,  avg # of iterations =  3.0

     total cpu time spent up to now is       73.4 secs

     total energy              =    -361.37695883 Ry
     estimated scf accuracy    <       0.00034711 Ry

     iteration #  9     ecut=    50.00 Ry     beta= 0.30
     Davidson diagonalization with overlap
     ethr =  9.64E-07,  avg # of iterations =  6.2

     total cpu time spent up to now is       84.0 secs

     total energy              =    -361.37713636 Ry
     estimated scf accuracy    <       0.00042520 Ry

     iteration # 10     ecut=    50.00 Ry     beta= 0.30
     Davidson diagonalization with overlap
     ethr =  9.64E-07,  avg # of iterations =  2.0

     total cpu time spent up to now is       89.5 secs

     total energy              =    -361.37709095 Ry
     estimated scf accuracy    <       0.00012727 Ry

     iteration # 11     ecut=    50.00 Ry     beta= 0.30
     Davidson diagonalization with overlap
     ethr =  3.54E-07,  avg # of iterations =  6.0

     total cpu time spent up to now is       99.5 secs

     total energy              =    -361.37719245 Ry
     estimated scf accuracy    <       0.00008880 Ry

     iteration # 12     ecut=    50.00 Ry     beta= 0.30
     Davidson diagonalization with overlap
     ethr =  2.47E-07,  avg # of iterations =  1.1

     total cpu time spent up to now is      104.3 secs

     total energy              =    -361.37717451 Ry
     estimated scf accuracy    <       0.00006278 Ry

     iteration # 13     ecut=    50.00 Ry     beta= 0.30
     Davidson diagonalization with overlap
     ethr =  1.74E-07,  avg # of iterations =  2.0

     total cpu time spent up to now is      109.7 secs

     total energy              =    -361.37717431 Ry
     estimated scf accuracy    <       0.00002098 Ry

     iteration # 14     ecut=    50.00 Ry     beta= 0.30
     Davidson diagonalization with overlap
     ethr =  5.83E-08,  avg # of iterations =  4.9

     total cpu time spent up to now is      117.0 secs

     total energy              =    -361.37718056 Ry
     estimated scf accuracy    <       0.00000097 Ry

     iteration # 15     ecut=    50.00 Ry     beta= 0.30
     Davidson diagonalization with overlap
     c_bands:  1 eigenvalues not converged
     ethr =  2.71E-09,  avg # of iterations =  6.8

     total cpu time spent up to now is      127.0 secs

     total energy              =    -361.37718177 Ry
     estimated scf accuracy    <       0.00000003 Ry

     iteration # 16     ecut=    50.00 Ry     beta= 0.30
     Davidson diagonalization with overlap
     c_bands:  1 eigenvalues not converged
     ethr =  8.15E-11,  avg # of iterations =  8.5

     total cpu time spent up to now is      140.9 secs

     total energy              =    -361.37718170 Ry
     estimated scf accuracy    <       0.00000034 Ry

     iteration # 17     ecut=    50.00 Ry     beta= 0.30
     Davidson diagonalization with overlap
     c_bands:  1 eigenvalues not converged
     ethr =  8.15E-11,  avg # of iterations =  7.7

     total cpu time spent up to now is      153.3 secs

     End of self-consistent calculation

     Number of k-points >= 100: set verbosity='high' to print the bands.

     highest occupied level (ev):     6.8805

!    total energy              =    -361.37718174 Ry
     estimated scf accuracy    <          8.8E-09 Ry

     The total energy is the sum of the following terms:
     one-electron contribution =    -161.90086940 Ry
     hartree contribution      =     121.02613719 Ry
     xc contribution           =    -109.44401224 Ry
     ewald contribution        =    -211.05843730 Ry

     convergence has been achieved in  17 iterations

     Forces acting on atoms (cartesian axes, Ry/au):

     atom    1 type  1   force =     0.35540452   -0.32214533    0.11627482
     atom    2 type  1   force =    -0.03987033    0.03952124    0.06477593
     atom    3 type  2   force =    -0.00671526   -0.00179161    0.02787704
     atom    4 type  2   force =    -0.30881893    0.28441570   -0.20892779
     The non-local contrib.  to forces
     atom    1 type  1   force =     0.65367305   -0.56272570    0.41632923
     atom    2 type  1   force =    -0.05530143   -0.04967669    0.18059008
     atom    3 type  2   force =    -0.34682920    0.11773244    0.39549941
     atom    4 type  2   force =     0.71214370   -0.34771628    0.18404826
     The ionic contribution  to forces
     atom    1 type  1   force =     5.91426934   -5.85997140   -3.87024576
     atom    2 type  1   force =    -0.41307013    1.25711427    8.79670708
     atom    3 type  2   force =     1.87852332   -0.77987034    1.13934454
     atom    4 type  2   force =    -7.37972252    5.38272746   -6.06580586
     The local contribution  to forces
     atom    1 type  1   force =    -6.14662840    6.04390393    3.60651728
     atom    2 type  1   force =     0.42171879   -1.16710688   -8.89316944
     atom    3 type  2   force =    -1.54166886    0.66144848   -1.50302173
     atom    4 type  2   force =     6.36335657   -4.75194331    5.67302079
     The core correction contribution to forces
     atom    1 type  1   force =    -0.06589975    0.05666465   -0.03642746
     atom    2 type  1   force =     0.00677421   -0.00079179   -0.01921306
     atom    3 type  2   force =     0.00325219   -0.00110755   -0.00393323
     atom    4 type  2   force =    -0.00455033    0.00130034   -0.00021932
     The Hubbard contrib.    to forces
     atom    1 type  1   force =     0.00000000    0.00000000    0.00000000
     atom    2 type  1   force =     0.00000000    0.00000000    0.00000000
     atom    3 type  2   force =     0.00000000    0.00000000    0.00000000
     atom    4 type  2   force =     0.00000000    0.00000000    0.00000000
     The SCF correction term to forces
     atom    1 type  1   force =    -0.00000871   -0.00002720    0.00009714
     atom    2 type  1   force =     0.00000926   -0.00002806   -0.00014311
     atom    3 type  2   force =     0.00000831   -0.00000503   -0.00001634
     atom    4 type  2   force =    -0.00004534    0.00003709    0.00002396

     Total force =     0.686801     Total SCF correction =     0.000190

     Writing all to output data dir ./ZnO_ANN.save/

     init_run     :      3.45s CPU      3.54s WALL (       1 calls)
     electrons    :    146.63s CPU    149.36s WALL (       1 calls)
     forces       :      1.14s CPU      1.15s WALL (       1 calls)

     Called by init_run:
     wfcinit      :      2.64s CPU      2.69s WALL (       1 calls)
     potinit      :      0.25s CPU      0.26s WALL (       1 calls)
     hinit0       :      0.48s CPU      0.49s WALL (       1 calls)

     Called by electrons:
     c_bands      :    132.50s CPU    134.89s WALL (      17 calls)
     sum_band     :     12.77s CPU     13.08s WALL (      17 calls)
     v_of_rho     :      0.31s CPU      0.33s WALL (      18 calls)
     newd         :      1.04s CPU      1.07s WALL (      18 calls)
     mix_rho      :      0.05s CPU      0.05s WALL (      17 calls)

     Called by c_bands:
     init_us_2    :      0.91s CPU      0.92s WALL (    4032 calls)
     init_us_2:cp :      0.89s CPU      0.91s WALL (    4032 calls)
     cegterg      :    129.78s CPU    132.12s WALL (    1904 calls)

     Called by *egterg:
     cdiaghg      :     13.07s CPU     13.16s WALL (   11203 calls)
     h_psi        :     78.38s CPU     80.17s WALL (   11315 calls)
     s_psi        :      9.68s CPU      9.75s WALL (   11315 calls)
     g_psi        :      0.26s CPU      0.27s WALL (    9299 calls)

     Called by h_psi:
     h_psi:calbec :     10.05s CPU     10.40s WALL (   11315 calls)
     vloc_psi     :     58.41s CPU     59.77s WALL (   11315 calls)
     add_vuspsi   :      9.68s CPU      9.77s WALL (   11315 calls)

     General routines
     calbec       :     13.36s CPU     13.80s WALL (   13667 calls)
     fft          :      0.45s CPU      0.47s WALL (     243 calls)
     ffts         :      0.11s CPU      0.11s WALL (      35 calls)
     fftw         :     58.40s CPU     59.78s WALL (  285764 calls)
     interpolate  :      0.12s CPU      0.12s WALL (      18 calls)

     Parallel routines

     PWSCF        :   2m31.95s CPU   2m34.93s WALL


   This run was terminated on:  15:45:48  23Jun2025            

=------------------------------------------------------------------------------=
   JOB DONE.
=------------------------------------------------------------------------------=
Note: The following floating-point exceptions are signalling: IEEE_INVALID_FLAG
