
     Program PWSCF v.7.2 starts on 23Jun2025 at 17:41: 5 

     This program is part of the open-source Quantum ESPRESSO suite
     for quantum simulation of materials; please cite
         "P. Giannozzi et al., J. Phys.:Condens. Matter 21 395502 (2009);
         "P. Giannozzi et al., J. Phys.:Condens. Matter 29 465901 (2017);
         "P. Giannozzi et al., J. Chem. Phys. 152 154105 (2020);
          URL http://www.quantum-espresso.org", 
     in publications or presentations arising from this work. More details at
     http://www.quantum-espresso.org/quote

     Parallel version (MPI), running on     8 processors

     MPI processes distributed on     1 nodes
     90752 MiB available memory on the printing compute node when the environment starts

     Reading input from /home/jvc/QEspresso7.2/ZnO_DataBase/scfs_rnd025.in/scf-6.67-1.61-5.in

     Current dimensions of program PWSCF are:
     Max number of different atomic species (ntypx) = 10
     Max number of k-points (npk) =  40000
     Max angular momentum in pseudopotentials (lmaxx) =  4
     file Zn.upf: wavefunction(s)  3D renormalized

     R & G space division:  proc/nbgrp/npool/nimage =       8
     Subspace diagonalization in iterative solution of the eigenvalue problem:
     a serial algorithm will be used


     Parallelization info
     --------------------
     sticks:   dense  smooth     PW     G-vecs:    dense   smooth      PW
     Min         154      75     23                 7026     2470     409
     Max         155      79     24                 7031     2475     414
     Sum        1237     613    187                56229    19777    3297

     Using Slab Decomposition



     bravais-lattice index     =            4
     lattice parameter (alat)  =       6.6731  a.u.
     unit-cell volume          =     415.4500 (a.u.)^3
     number of atoms/cell      =            4
     number of atomic types    =            2
     number of electrons       =        36.00
     number of Kohn-Sham states=           18
     kinetic-energy cutoff     =      50.0000  Ry
     charge density cutoff     =     400.0000  Ry
     scf convergence threshold =      1.0E-08
     mixing beta               =       0.3000
     number of iterations used =            8  plain     mixing
     Exchange-correlation= PBE
                           (   1   4   3   4   0   0   0)

     celldm(1)=   6.673127  celldm(2)=   0.000000  celldm(3)=   1.614358
     celldm(4)=   0.000000  celldm(5)=   0.000000  celldm(6)=   0.000000

     crystal axes: (cart. coord. in units of alat)
               a(1) = (   1.000000   0.000000   0.000000 )  
               a(2) = (  -0.500000   0.866025   0.000000 )  
               a(3) = (   0.000000   0.000000   1.614358 )  

     reciprocal axes: (cart. coord. in units 2 pi/alat)
               b(1) = (  1.000000  0.577350 -0.000000 )  
               b(2) = (  0.000000  1.154701  0.000000 )  
               b(3) = (  0.000000 -0.000000  0.619441 )  


     PseudoPot. # 1 for Zn read from file:
     ./pseudos/Zn.upf
     MD5 check sum: 7f56cabf9682ed8c977c2f7d0c5985c5
     Pseudo is Ultrasoft + core correction, Zval = 12.0
     Generated using &quot;atomic&quot; code by A. Dal Corso  v.6.2.2
     Using radial grid of 1201 points,  6 beta functions with: 
                l(1) =   0
                l(2) =   0
                l(3) =   1
                l(4) =   1
                l(5) =   2
                l(6) =   2
     Q(r) pseudized with 0 coefficients 


     PseudoPot. # 2 for O  read from file:
     ./pseudos/O.upf
     MD5 check sum: 91400c9766925bcf19f520983a725ff0
     Pseudo is Ultrasoft + core correction, Zval =  6.0
     Generated using &quot;atomic&quot; code by A. Dal Corso  v.6.3MaX
     Using radial grid of 1095 points,  4 beta functions with: 
                l(1) =   0
                l(2) =   0
                l(3) =   1
                l(4) =   1
     Q(r) pseudized with 0 coefficients 


     atomic species   valence    mass     pseudopotential
        Zn            12.00    63.38000     Zn( 1.00)
        O              6.00    15.99900     O ( 1.00)

     No symmetry found



   Cartesian axes

     site n.     atom                  positions (alat units)
         1           Zn  tau(   1) = (   0.5806427   0.1756352   0.8086621  )
         2           Zn  tau(   2) = (  -0.1291763   0.5137083   0.0244441  )
         3           O   tau(   3) = (   0.6376489   0.3863511   1.7778514  )
         4           O   tau(   4) = (   0.1253396   0.4442054   0.4494393  )

     number of k points=   112

     Number of k-points >= 100: set verbosity='high' to print them.

     Dense  grid:    56229 G-vectors     FFT dimensions: (  45,  45,  72)

     Smooth grid:    19777 G-vectors     FFT dimensions: (  32,  32,  50)

     Estimated max dynamical RAM per process >      37.87 MB

     Estimated total dynamical RAM >     302.95 MB

     Check: negative core charge=   -0.000002

     Initial potential from superposition of free atoms

     starting charge      35.9925, renormalised to      36.0000
     Starting wfcs are   26 randomized atomic wfcs

     total cpu time spent up to now is        4.3 secs

     Self-consistent Calculation

     iteration #  1     ecut=    50.00 Ry     beta= 0.30
     Davidson diagonalization with overlap
     ethr =  1.00E-02,  avg # of iterations =  3.0

     total cpu time spent up to now is       10.8 secs

     total energy              =    -358.74465152 Ry
     estimated scf accuracy    <       1.75541396 Ry

     iteration #  2     ecut=    50.00 Ry     beta= 0.30
     Davidson diagonalization with overlap
     ethr =  4.88E-03,  avg # of iterations =  5.2

     total cpu time spent up to now is       18.6 secs

     total energy              =    -359.08069232 Ry
     estimated scf accuracy    <       0.09193715 Ry

     iteration #  3     ecut=    50.00 Ry     beta= 0.30
     Davidson diagonalization with overlap
     c_bands:  1 eigenvalues not converged
     c_bands:  1 eigenvalues not converged
     c_bands:  1 eigenvalues not converged
     ethr =  2.55E-04,  avg # of iterations = 10.4

     total cpu time spent up to now is       32.5 secs

     total energy              =    -359.10147037 Ry
     estimated scf accuracy    <       0.27466397 Ry

     iteration #  4     ecut=    50.00 Ry     beta= 0.30
     Davidson diagonalization with overlap
     c_bands:  1 eigenvalues not converged
     c_bands:  1 eigenvalues not converged
     c_bands:  1 eigenvalues not converged
     c_bands:  1 eigenvalues not converged
     c_bands:  1 eigenvalues not converged
     ethr =  2.55E-04,  avg # of iterations = 12.5

     total cpu time spent up to now is       48.0 secs

     total energy              =    -359.18649938 Ry
     estimated scf accuracy    <       0.23381370 Ry

     iteration #  5     ecut=    50.00 Ry     beta= 0.30
     Davidson diagonalization with overlap
     ethr =  2.55E-04,  avg # of iterations =  3.5

     total cpu time spent up to now is       54.4 secs

     total energy              =    -359.13638855 Ry
     estimated scf accuracy    <       0.09318681 Ry

     iteration #  6     ecut=    50.00 Ry     beta= 0.30
     Davidson diagonalization with overlap
     c_bands:  1 eigenvalues not converged
     c_bands:  1 eigenvalues not converged
     c_bands:  1 eigenvalues not converged
     c_bands:  1 eigenvalues not converged
     c_bands:  1 eigenvalues not converged
     ethr =  2.55E-04,  avg # of iterations = 10.6

     total cpu time spent up to now is       67.6 secs

     total energy              =    -359.14404428 Ry
     estimated scf accuracy    <       0.31799802 Ry

     iteration #  7     ecut=    50.00 Ry     beta= 0.30
     Davidson diagonalization with overlap
     ethr =  2.55E-04,  avg # of iterations =  7.1

     total cpu time spent up to now is       77.2 secs

     total energy              =    -359.19232564 Ry
     estimated scf accuracy    <       0.00179640 Ry

     iteration #  8     ecut=    50.00 Ry     beta= 0.30
     Davidson diagonalization with overlap
     c_bands:  1 eigenvalues not converged
     c_bands:  1 eigenvalues not converged
     c_bands:  1 eigenvalues not converged
     c_bands:  1 eigenvalues not converged
     c_bands:  1 eigenvalues not converged
     c_bands:  1 eigenvalues not converged
     c_bands:  1 eigenvalues not converged
     c_bands:  1 eigenvalues not converged
     c_bands:  1 eigenvalues not converged
     c_bands:  1 eigenvalues not converged
     c_bands:  1 eigenvalues not converged
     c_bands:  1 eigenvalues not converged
     c_bands:  1 eigenvalues not converged
     c_bands:  1 eigenvalues not converged
     c_bands:  1 eigenvalues not converged
     c_bands:  1 eigenvalues not converged
     c_bands:  1 eigenvalues not converged
     c_bands:  1 eigenvalues not converged
     c_bands:  1 eigenvalues not converged
     ethr =  4.99E-06,  avg # of iterations = 15.3

     total cpu time spent up to now is       94.7 secs

     total energy              =    -359.19759416 Ry
     estimated scf accuracy    <       0.01881266 Ry

     iteration #  9     ecut=    50.00 Ry     beta= 0.30
     Davidson diagonalization with overlap
     c_bands:  1 eigenvalues not converged
     c_bands:  1 eigenvalues not converged
     ethr =  4.99E-06,  avg # of iterations =  8.0

     total cpu time spent up to now is      104.3 secs

     total energy              =    -359.19843611 Ry
     estimated scf accuracy    <       0.00313085 Ry

     iteration # 10     ecut=    50.00 Ry     beta= 0.30
     Davidson diagonalization with overlap
     ethr =  4.99E-06,  avg # of iterations =  2.4

     total cpu time spent up to now is      110.3 secs

     total energy              =    -359.19823518 Ry
     estimated scf accuracy    <       0.00190986 Ry

     iteration # 11     ecut=    50.00 Ry     beta= 0.30
     Davidson diagonalization with overlap
     ethr =  4.99E-06,  avg # of iterations =  5.3

     total cpu time spent up to now is      117.1 secs

     total energy              =    -359.19846002 Ry
     estimated scf accuracy    <       0.00030296 Ry

     iteration # 12     ecut=    50.00 Ry     beta= 0.30
     Davidson diagonalization with overlap
     c_bands:  1 eigenvalues not converged
     c_bands:  1 eigenvalues not converged
     ethr =  8.42E-07,  avg # of iterations =  8.6

     total cpu time spent up to now is      127.1 secs

     total energy              =    -359.19866077 Ry
     estimated scf accuracy    <       0.00012161 Ry

     iteration # 13     ecut=    50.00 Ry     beta= 0.30
     Davidson diagonalization with overlap
     ethr =  3.38E-07,  avg # of iterations =  2.0

     total cpu time spent up to now is      132.9 secs

     total energy              =    -359.19861579 Ry
     estimated scf accuracy    <       0.00011759 Ry

     iteration # 14     ecut=    50.00 Ry     beta= 0.30
     Davidson diagonalization with overlap
     ethr =  3.27E-07,  avg # of iterations =  7.8

     total cpu time spent up to now is      142.0 secs

     total energy              =    -359.19864666 Ry
     estimated scf accuracy    <       0.00006054 Ry

     iteration # 15     ecut=    50.00 Ry     beta= 0.30
     Davidson diagonalization with overlap
     ethr =  1.68E-07,  avg # of iterations =  6.5

     total cpu time spent up to now is      149.8 secs

     total energy              =    -359.19862373 Ry
     estimated scf accuracy    <       0.00007837 Ry

     iteration # 16     ecut=    50.00 Ry     beta= 0.30
     Davidson diagonalization with overlap
     c_bands:  1 eigenvalues not converged
     ethr =  1.68E-07,  avg # of iterations =  8.7

     total cpu time spent up to now is      158.8 secs

     total energy              =    -359.19864359 Ry
     estimated scf accuracy    <       0.00003832 Ry

     iteration # 17     ecut=    50.00 Ry     beta= 0.30
     Davidson diagonalization with overlap
     ethr =  1.06E-07,  avg # of iterations =  5.4

     total cpu time spent up to now is      165.9 secs

     total energy              =    -359.19865012 Ry
     estimated scf accuracy    <       0.00000566 Ry

     iteration # 18     ecut=    50.00 Ry     beta= 0.30
     Davidson diagonalization with overlap
     c_bands:  1 eigenvalues not converged
     c_bands:  1 eigenvalues not converged
     c_bands:  1 eigenvalues not converged
     c_bands:  1 eigenvalues not converged
     c_bands:  1 eigenvalues not converged
     c_bands:  1 eigenvalues not converged
     c_bands:  1 eigenvalues not converged
     ethr =  1.57E-08,  avg # of iterations = 14.7

     total cpu time spent up to now is      180.8 secs

     total energy              =    -359.19866041 Ry
     estimated scf accuracy    <       0.00007328 Ry

     iteration # 19     ecut=    50.00 Ry     beta= 0.30
     Davidson diagonalization with overlap
     ethr =  1.57E-08,  avg # of iterations =  1.7

     total cpu time spent up to now is      186.3 secs

     total energy              =    -359.19865030 Ry
     estimated scf accuracy    <       0.00006973 Ry

     iteration # 20     ecut=    50.00 Ry     beta= 0.30
     Davidson diagonalization with overlap
     ethr =  1.57E-08,  avg # of iterations =  6.6

     total cpu time spent up to now is      195.5 secs

     total energy              =    -359.19864433 Ry
     estimated scf accuracy    <       0.00002588 Ry

     iteration # 21     ecut=    50.00 Ry     beta= 0.30
     Davidson diagonalization with overlap
     c_bands:  1 eigenvalues not converged
     c_bands:  1 eigenvalues not converged
     c_bands:  1 eigenvalues not converged
     c_bands:  1 eigenvalues not converged
     c_bands:  1 eigenvalues not converged
     c_bands:  1 eigenvalues not converged
     c_bands:  1 eigenvalues not converged
     c_bands:  1 eigenvalues not converged
     c_bands:  1 eigenvalues not converged
     ethr =  1.57E-08,  avg # of iterations = 12.2

     total cpu time spent up to now is      207.4 secs

     total energy              =    -359.19865008 Ry
     estimated scf accuracy    <       0.00000289 Ry

     iteration # 22     ecut=    50.00 Ry     beta= 0.30
     Davidson diagonalization with overlap
     ethr =  8.02E-09,  avg # of iterations =  4.8

     total cpu time spent up to now is      214.0 secs

     total energy              =    -359.19865031 Ry
     estimated scf accuracy    <       0.00000025 Ry

     iteration # 23     ecut=    50.00 Ry     beta= 0.30
     Davidson diagonalization with overlap
     c_bands:  1 eigenvalues not converged
     c_bands:  1 eigenvalues not converged
     c_bands:  1 eigenvalues not converged
     c_bands:  1 eigenvalues not converged
     c_bands:  1 eigenvalues not converged
     c_bands:  1 eigenvalues not converged
     c_bands:  1 eigenvalues not converged
     c_bands:  1 eigenvalues not converged
     c_bands:  1 eigenvalues not converged
     ethr =  6.89E-10,  avg # of iterations = 13.4

     total cpu time spent up to now is      227.9 secs

     total energy              =    -359.19865057 Ry
     estimated scf accuracy    <       0.00000147 Ry

     iteration # 24     ecut=    50.00 Ry     beta= 0.30
     Davidson diagonalization with overlap
     ethr =  6.89E-10,  avg # of iterations =  4.7

     total cpu time spent up to now is      234.7 secs

     total energy              =    -359.19865053 Ry
     estimated scf accuracy    <       0.00000062 Ry

     iteration # 25     ecut=    50.00 Ry     beta= 0.30
     Davidson diagonalization with overlap
     ethr =  6.89E-10,  avg # of iterations =  5.0

     total cpu time spent up to now is      242.0 secs

     total energy              =    -359.19865054 Ry
     estimated scf accuracy    <       0.00000017 Ry

     iteration # 26     ecut=    50.00 Ry     beta= 0.30
     Davidson diagonalization with overlap
     ethr =  4.78E-10,  avg # of iterations =  6.4

     total cpu time spent up to now is      249.9 secs

     total energy              =    -359.19865059 Ry
     estimated scf accuracy    <       0.00000001 Ry

     iteration # 27     ecut=    50.00 Ry     beta= 0.30
     Davidson diagonalization with overlap
     c_bands:  1 eigenvalues not converged
     c_bands:  1 eigenvalues not converged
     c_bands:  1 eigenvalues not converged
     ethr =  4.06E-11,  avg # of iterations =  9.3

     total cpu time spent up to now is      260.8 secs

     total energy              =    -359.19865060 Ry
     estimated scf accuracy    <       0.00000003 Ry

     iteration # 28     ecut=    50.00 Ry     beta= 0.30
     Davidson diagonalization with overlap
     ethr =  4.06E-11,  avg # of iterations =  3.2

     total cpu time spent up to now is      266.9 secs

     total energy              =    -359.19865060 Ry
     estimated scf accuracy    <       0.00000002 Ry

     iteration # 29     ecut=    50.00 Ry     beta= 0.30
     Davidson diagonalization with overlap
     ethr =  4.06E-11,  avg # of iterations =  7.8

     total cpu time spent up to now is      275.1 secs

     End of self-consistent calculation

     Number of k-points >= 100: set verbosity='high' to print the bands.

     highest occupied level (ev):     6.4098

!    total energy              =    -359.19865060 Ry
     estimated scf accuracy    <          1.2E-09 Ry

     The total energy is the sum of the following terms:
     one-electron contribution =    -236.36161739 Ry
     hartree contribution      =     153.68783124 Ry
     xc contribution           =    -109.80189767 Ry
     ewald contribution        =    -166.72296678 Ry

     convergence has been achieved in  29 iterations

     Forces acting on atoms (cartesian axes, Ry/au):

     atom    1 type  1   force =    -0.00052336   -0.00302630   -0.03441395
     atom    2 type  1   force =     4.32356709    2.37539690   -2.66801373
     atom    3 type  2   force =    -4.41885730   -2.37355201    2.48820720
     atom    4 type  2   force =     0.09581356    0.00118141    0.21422049
     The non-local contrib.  to forces
     atom    1 type  1   force =     0.08892994   -0.05833156   -0.00100413
     atom    2 type  1   force =    -0.23306321   -0.22838417    0.13034825
     atom    3 type  2   force =     0.74137268    0.34110271   -0.84896359
     atom    4 type  2   force =    -0.15265457    0.15280497   -0.20555897
     The ionic contribution  to forces
     atom    1 type  1   force =     0.13339899   -1.35132613   15.49642088
     atom    2 type  1   force =    20.46665399   14.32131865  -31.74927379
     atom    3 type  2   force =   -23.95617754  -12.57392987    7.89308689
     atom    4 type  2   force =     3.35612455   -0.39606265    8.35976602
     The local contribution  to forces
     atom    1 type  1   force =    -0.21929498    1.40387157  -15.52152635
     atom    2 type  1   force =   -15.62950311  -11.56063958   28.75831132
     atom    3 type  2   force =    18.78614413    9.85350114   -4.55454054
     atom    4 type  2   force =    -3.10793493    0.24584536   -7.94014439
     The core correction contribution to forces
     atom    1 type  1   force =    -0.00357328    0.00274958   -0.00829531
     atom    2 type  1   force =    -0.28049152   -0.15688530    0.19262153
     atom    3 type  2   force =     0.00977800    0.00576160   -0.00133020
     atom    4 type  2   force =     0.00027325   -0.00141414    0.00020337
     The Hubbard contrib.    to forces
     atom    1 type  1   force =     0.00000000    0.00000000    0.00000000
     atom    2 type  1   force =     0.00000000    0.00000000    0.00000000
     atom    3 type  2   force =     0.00000000    0.00000000    0.00000000
     atom    4 type  2   force =     0.00000000    0.00000000    0.00000000
     The SCF correction term to forces
     atom    1 type  1   force =     0.00000344    0.00000305   -0.00001803
     atom    2 type  1   force =    -0.00004159   -0.00001986   -0.00003003
     atom    3 type  2   force =     0.00001289    0.00000523   -0.00005435
     atom    4 type  2   force =    -0.00000726    0.00000069   -0.00005454

     Total force =     7.928526     Total SCF correction =     0.000098

     Writing all to output data dir ./ZnO_ANN.save/

     init_run     :      3.79s CPU      3.89s WALL (       1 calls)
     electrons    :    266.09s CPU    270.72s WALL (       1 calls)
     forces       :      1.28s CPU      1.30s WALL (       1 calls)

     Called by init_run:
     wfcinit      :      2.89s CPU      2.94s WALL (       1 calls)
     potinit      :      0.30s CPU      0.30s WALL (       1 calls)
     hinit0       :      0.51s CPU      0.52s WALL (       1 calls)

     Called by electrons:
     c_bands      :    239.22s CPU    243.25s WALL (      29 calls)
     sum_band     :     23.96s CPU     24.49s WALL (      29 calls)
     v_of_rho     :      0.59s CPU      0.64s WALL (      30 calls)
     newd         :      2.24s CPU      2.27s WALL (      30 calls)
     mix_rho      :      0.10s CPU      0.11s WALL (      29 calls)

     Called by c_bands:
     init_us_2    :      2.00s CPU      2.03s WALL (    6720 calls)
     init_us_2:cp :      1.98s CPU      2.01s WALL (    6720 calls)
     cegterg      :    232.99s CPU    236.94s WALL (    3248 calls)

     Called by *egterg:
     cdiaghg      :     30.13s CPU     30.42s WALL (   26998 calls)
     h_psi        :    126.95s CPU    129.79s WALL (   27110 calls)
     s_psi        :     18.47s CPU     18.62s WALL (   27110 calls)
     g_psi        :      0.51s CPU      0.52s WALL (   23750 calls)

     Called by h_psi:
     h_psi:calbec :     19.53s CPU     20.15s WALL (   27110 calls)
     vloc_psi     :     88.41s CPU     90.46s WALL (   27110 calls)
     add_vuspsi   :     18.49s CPU     18.65s WALL (   27110 calls)

     General routines
     calbec       :     25.84s CPU     26.65s WALL (   30806 calls)
     fft          :      0.76s CPU      0.82s WALL (     399 calls)
     ffts         :      0.13s CPU      0.13s WALL (      59 calls)
     fftw         :     86.13s CPU     88.13s WALL (  446810 calls)
     interpolate  :      0.15s CPU      0.16s WALL (      30 calls)

     Parallel routines

     PWSCF        :   4m31.91s CPU   4m36.99s WALL


   This run was terminated on:  17:45:42  23Jun2025            

=------------------------------------------------------------------------------=
   JOB DONE.
=------------------------------------------------------------------------------=
Note: The following floating-point exceptions are signalling: IEEE_INVALID_FLAG
