
     Program PWSCF v.7.2 starts on 23Jun2025 at 15:13:57 

     This program is part of the open-source Quantum ESPRESSO suite
     for quantum simulation of materials; please cite
         "P. Giannozzi et al., J. Phys.:Condens. Matter 21 395502 (2009);
         "P. Giannozzi et al., J. Phys.:Condens. Matter 29 465901 (2017);
         "P. Giannozzi et al., J. Chem. Phys. 152 154105 (2020);
          URL http://www.quantum-espresso.org", 
     in publications or presentations arising from this work. More details at
     http://www.quantum-espresso.org/quote

     Parallel version (MPI), running on     8 processors

     MPI processes distributed on     1 nodes
     90998 MiB available memory on the printing compute node when the environment starts

     Reading input from /home/jvc/QEspresso7.2/ZnO_DataBase/scfs_rnd025.in/scf-6.30-1.58-2.in

     Current dimensions of program PWSCF are:
     Max number of different atomic species (ntypx) = 10
     Max number of k-points (npk) =  40000
     Max angular momentum in pseudopotentials (lmaxx) =  4
     file Zn.upf: wavefunction(s)  3D renormalized

     R & G space division:  proc/nbgrp/npool/nimage =       8
     Subspace diagonalization in iterative solution of the eigenvalue problem:
     a serial algorithm will be used


     Parallelization info
     --------------------
     sticks:   dense  smooth     PW     G-vecs:    dense   smooth      PW
     Min         137      68     20                 5781     2040     344
     Max         138      69     21                 5783     2047     349
     Sum        1099     547    163                46257    16347    2767

     Using Slab Decomposition



     bravais-lattice index     =            4
     lattice parameter (alat)  =       6.3024  a.u.
     unit-cell volume          =     342.9842 (a.u.)^3
     number of atoms/cell      =            4
     number of atomic types    =            2
     number of electrons       =        36.00
     number of Kohn-Sham states=           18
     kinetic-energy cutoff     =      50.0000  Ry
     charge density cutoff     =     400.0000  Ry
     scf convergence threshold =      1.0E-08
     mixing beta               =       0.3000
     number of iterations used =            8  plain     mixing
     Exchange-correlation= PBE
                           (   1   4   3   4   0   0   0)

     celldm(1)=   6.302398  celldm(2)=   0.000000  celldm(3)=   1.582071
     celldm(4)=   0.000000  celldm(5)=   0.000000  celldm(6)=   0.000000

     crystal axes: (cart. coord. in units of alat)
               a(1) = (   1.000000   0.000000   0.000000 )  
               a(2) = (  -0.500000   0.866025   0.000000 )  
               a(3) = (   0.000000   0.000000   1.582071 )  

     reciprocal axes: (cart. coord. in units 2 pi/alat)
               b(1) = (  1.000000  0.577350 -0.000000 )  
               b(2) = (  0.000000  1.154701  0.000000 )  
               b(3) = (  0.000000 -0.000000  0.632083 )  


     PseudoPot. # 1 for Zn read from file:
     ./pseudos/Zn.upf
     MD5 check sum: 7f56cabf9682ed8c977c2f7d0c5985c5
     Pseudo is Ultrasoft + core correction, Zval = 12.0
     Generated using &quot;atomic&quot; code by A. Dal Corso  v.6.2.2
     Using radial grid of 1201 points,  6 beta functions with: 
                l(1) =   0
                l(2) =   0
                l(3) =   1
                l(4) =   1
                l(5) =   2
                l(6) =   2
     Q(r) pseudized with 0 coefficients 


     PseudoPot. # 2 for O  read from file:
     ./pseudos/O.upf
     MD5 check sum: 91400c9766925bcf19f520983a725ff0
     Pseudo is Ultrasoft + core correction, Zval =  6.0
     Generated using &quot;atomic&quot; code by A. Dal Corso  v.6.3MaX
     Using radial grid of 1095 points,  4 beta functions with: 
                l(1) =   0
                l(2) =   0
                l(3) =   1
                l(4) =   1
     Q(r) pseudized with 0 coefficients 


     atomic species   valence    mass     pseudopotential
        Zn            12.00    63.38000     Zn( 1.00)
        O              6.00    15.99900     O ( 1.00)

     No symmetry found



   Cartesian axes

     site n.     atom                  positions (alat units)
         1           Zn  tau(   1) = (   0.5588128   0.4036606   0.6425589  )
         2           Zn  tau(   2) = (  -0.2276015   0.7340325   0.2971821  )
         3           O   tau(   3) = (   0.5776340   0.2848931   1.5802079  )
         4           O   tau(   4) = (   0.0041329   0.5533368   0.2787523  )

     number of k points=   112

     Number of k-points >= 100: set verbosity='high' to print them.

     Dense  grid:    46257 G-vectors     FFT dimensions: (  45,  45,  64)

     Smooth grid:    16347 G-vectors     FFT dimensions: (  30,  30,  45)

     Estimated max dynamical RAM per process >      31.84 MB

     Estimated total dynamical RAM >     254.74 MB

     Check: negative core charge=   -0.000002

     Initial potential from superposition of free atoms

     starting charge      35.9925, renormalised to      36.0000
     Starting wfcs are   26 randomized atomic wfcs

     total cpu time spent up to now is        3.9 secs

     Self-consistent Calculation

     iteration #  1     ecut=    50.00 Ry     beta= 0.30
     Davidson diagonalization with overlap
     ethr =  1.00E-02,  avg # of iterations =  3.9

     total cpu time spent up to now is       10.4 secs

     total energy              =    -357.19859435 Ry
     estimated scf accuracy    <       1.78119240 Ry

     iteration #  2     ecut=    50.00 Ry     beta= 0.30
     Davidson diagonalization with overlap
     ethr =  4.95E-03,  avg # of iterations =  6.5

     total cpu time spent up to now is       18.1 secs

     total energy              =    -357.57214606 Ry
     estimated scf accuracy    <       0.35706610 Ry

     iteration #  3     ecut=    50.00 Ry     beta= 0.30
     Davidson diagonalization with overlap
     ethr =  9.92E-04,  avg # of iterations =  4.5

     total cpu time spent up to now is       24.8 secs

     total energy              =    -357.60570678 Ry
     estimated scf accuracy    <       0.08315932 Ry

     iteration #  4     ecut=    50.00 Ry     beta= 0.30
     Davidson diagonalization with overlap
     ethr =  2.31E-04,  avg # of iterations =  9.6

     total cpu time spent up to now is       35.5 secs

     total energy              =    -357.65714646 Ry
     estimated scf accuracy    <       0.17586757 Ry

     iteration #  5     ecut=    50.00 Ry     beta= 0.30
     Davidson diagonalization with overlap
     ethr =  2.31E-04,  avg # of iterations =  2.2

     total cpu time spent up to now is       41.0 secs

     total energy              =    -357.58462545 Ry
     estimated scf accuracy    <       0.08865500 Ry

     iteration #  6     ecut=    50.00 Ry     beta= 0.30
     Davidson diagonalization with overlap
     c_bands:  1 eigenvalues not converged
     c_bands:  1 eigenvalues not converged
     c_bands:  1 eigenvalues not converged
     c_bands:  1 eigenvalues not converged
     c_bands:  1 eigenvalues not converged
     c_bands:  1 eigenvalues not converged
     c_bands:  2 eigenvalues not converged
     c_bands:  1 eigenvalues not converged
     c_bands:  1 eigenvalues not converged
     c_bands:  1 eigenvalues not converged
     c_bands:  1 eigenvalues not converged
     c_bands:  1 eigenvalues not converged
     c_bands:  1 eigenvalues not converged
     c_bands:  1 eigenvalues not converged
     c_bands:  1 eigenvalues not converged
     c_bands:  1 eigenvalues not converged
     c_bands:  2 eigenvalues not converged
     c_bands:  1 eigenvalues not converged
     c_bands:  2 eigenvalues not converged
     c_bands:  1 eigenvalues not converged
     c_bands:  2 eigenvalues not converged
     ethr =  2.31E-04,  avg # of iterations = 17.5

     total cpu time spent up to now is       56.5 secs

     total energy              =    -357.80562498 Ry
     estimated scf accuracy    <       4.67761955 Ry

     iteration #  7     ecut=    50.00 Ry     beta= 0.30
     Davidson diagonalization with overlap
     ethr =  2.31E-04,  avg # of iterations =  8.8

     total cpu time spent up to now is       65.4 secs

     total energy              =    -357.64595218 Ry
     estimated scf accuracy    <       2.18617186 Ry

     iteration #  8     ecut=    50.00 Ry     beta= 0.30
     Davidson diagonalization with overlap
     ethr =  2.31E-04,  avg # of iterations =  9.0

     total cpu time spent up to now is       74.5 secs

     total energy              =    -357.66837595 Ry
     estimated scf accuracy    <       0.56888054 Ry

     iteration #  9     ecut=    50.00 Ry     beta= 0.30
     Davidson diagonalization with overlap
     ethr =  2.31E-04,  avg # of iterations =  2.7

     total cpu time spent up to now is       79.8 secs

     total energy              =    -357.60895367 Ry
     estimated scf accuracy    <       0.40270503 Ry

     iteration # 10     ecut=    50.00 Ry     beta= 0.30
     Davidson diagonalization with overlap
     ethr =  2.31E-04,  avg # of iterations =  8.8

     total cpu time spent up to now is       88.7 secs

     total energy              =    -357.66136236 Ry
     estimated scf accuracy    <       0.00535589 Ry

     iteration # 11     ecut=    50.00 Ry     beta= 0.30
     Davidson diagonalization with overlap
     c_bands:  1 eigenvalues not converged
     c_bands:  1 eigenvalues not converged
     c_bands:  1 eigenvalues not converged
     c_bands:  1 eigenvalues not converged
     c_bands:  1 eigenvalues not converged
     c_bands:  1 eigenvalues not converged
     c_bands:  1 eigenvalues not converged
     c_bands:  1 eigenvalues not converged
     c_bands:  1 eigenvalues not converged
     c_bands:  1 eigenvalues not converged
     ethr =  1.49E-05,  avg # of iterations = 12.1

     total cpu time spent up to now is       99.2 secs

     total energy              =    -357.66748830 Ry
     estimated scf accuracy    <       0.01127259 Ry

     iteration # 12     ecut=    50.00 Ry     beta= 0.30
     Davidson diagonalization with overlap
     ethr =  1.49E-05,  avg # of iterations =  2.2

     total cpu time spent up to now is      104.4 secs

     total energy              =    -357.67044256 Ry
     estimated scf accuracy    <       0.00688141 Ry

     iteration # 13     ecut=    50.00 Ry     beta= 0.30
     Davidson diagonalization with overlap
     ethr =  1.49E-05,  avg # of iterations =  1.7

     total cpu time spent up to now is      109.5 secs

     total energy              =    -357.66249098 Ry
     estimated scf accuracy    <       0.01226853 Ry

     iteration # 14     ecut=    50.00 Ry     beta= 0.30
     Davidson diagonalization with overlap
     c_bands:  1 eigenvalues not converged
     c_bands:  2 eigenvalues not converged
     ethr =  1.49E-05,  avg # of iterations = 14.1

     total cpu time spent up to now is      122.0 secs

     total energy              =    -357.66741813 Ry
     estimated scf accuracy    <       0.04883304 Ry

     iteration # 15     ecut=    50.00 Ry     beta= 0.30
     Davidson diagonalization with overlap
     ethr =  1.49E-05,  avg # of iterations =  6.8

     total cpu time spent up to now is      129.2 secs

     total energy              =    -357.66847076 Ry
     estimated scf accuracy    <       0.01640166 Ry

     iteration # 16     ecut=    50.00 Ry     beta= 0.30
     Davidson diagonalization with overlap
     ethr =  1.49E-05,  avg # of iterations =  1.4

     total cpu time spent up to now is      134.2 secs

     total energy              =    -357.66616670 Ry
     estimated scf accuracy    <       0.01489197 Ry

     iteration # 17     ecut=    50.00 Ry     beta= 0.30
     Davidson diagonalization with overlap
     ethr =  1.49E-05,  avg # of iterations =  4.7

     total cpu time spent up to now is      140.9 secs

     total energy              =    -357.66722224 Ry
     estimated scf accuracy    <       0.00286900 Ry

     iteration # 18     ecut=    50.00 Ry     beta= 0.30
     Davidson diagonalization with overlap
     ethr =  7.97E-06,  avg # of iterations =  5.7

     total cpu time spent up to now is      147.5 secs

     total energy              =    -357.66790621 Ry
     estimated scf accuracy    <       0.00003980 Ry

     iteration # 19     ecut=    50.00 Ry     beta= 0.30
     Davidson diagonalization with overlap
     c_bands:  1 eigenvalues not converged
     c_bands:  1 eigenvalues not converged
     c_bands:  3 eigenvalues not converged
     c_bands:  1 eigenvalues not converged
     c_bands:  3 eigenvalues not converged
     c_bands:  1 eigenvalues not converged
     c_bands:  2 eigenvalues not converged
     c_bands:  1 eigenvalues not converged
     c_bands:  1 eigenvalues not converged
     c_bands:  1 eigenvalues not converged
     c_bands:  2 eigenvalues not converged
     c_bands:  1 eigenvalues not converged
     c_bands:  1 eigenvalues not converged
     c_bands:  2 eigenvalues not converged
     c_bands:  1 eigenvalues not converged
     c_bands:  1 eigenvalues not converged
     c_bands:  1 eigenvalues not converged
     c_bands:  1 eigenvalues not converged
     c_bands:  1 eigenvalues not converged
     c_bands:  1 eigenvalues not converged
     c_bands:  2 eigenvalues not converged
     c_bands:  2 eigenvalues not converged
     c_bands:  1 eigenvalues not converged
     c_bands:  1 eigenvalues not converged
     c_bands:  1 eigenvalues not converged
     c_bands:  2 eigenvalues not converged
     c_bands:  2 eigenvalues not converged
     c_bands:  2 eigenvalues not converged
     c_bands:  2 eigenvalues not converged
     c_bands:  2 eigenvalues not converged
     c_bands:  1 eigenvalues not converged
     c_bands:  1 eigenvalues not converged
     c_bands:  1 eigenvalues not converged
     c_bands:  1 eigenvalues not converged
     c_bands:  1 eigenvalues not converged
     c_bands:  2 eigenvalues not converged
     c_bands:  1 eigenvalues not converged
     c_bands:  1 eigenvalues not converged
     c_bands:  1 eigenvalues not converged
     c_bands:  1 eigenvalues not converged
     c_bands:  2 eigenvalues not converged
     c_bands:  1 eigenvalues not converged
     c_bands:  1 eigenvalues not converged
     c_bands:  2 eigenvalues not converged
     ethr =  1.11E-07,  avg # of iterations = 16.5

     total cpu time spent up to now is      162.4 secs

     total energy              =    -357.66816299 Ry
     estimated scf accuracy    <       0.00096195 Ry

     iteration # 20     ecut=    50.00 Ry     beta= 0.30
     Davidson diagonalization with overlap
     ethr =  1.11E-07,  avg # of iterations =  3.3

     total cpu time spent up to now is      167.8 secs

     total energy              =    -357.66811292 Ry
     estimated scf accuracy    <       0.00091405 Ry

     iteration # 21     ecut=    50.00 Ry     beta= 0.30
     Davidson diagonalization with overlap
     ethr =  1.11E-07,  avg # of iterations =  6.3

     total cpu time spent up to now is      174.8 secs

     total energy              =    -357.66810994 Ry
     estimated scf accuracy    <       0.00053738 Ry

     iteration # 22     ecut=    50.00 Ry     beta= 0.30
     Davidson diagonalization with overlap
     ethr =  1.11E-07,  avg # of iterations =  1.6

     total cpu time spent up to now is      179.8 secs

     total energy              =    -357.66804497 Ry
     estimated scf accuracy    <       0.00049234 Ry

     iteration # 23     ecut=    50.00 Ry     beta= 0.30
     Davidson diagonalization with overlap
     ethr =  1.11E-07,  avg # of iterations =  9.1

     total cpu time spent up to now is      188.7 secs

     total energy              =    -357.66806376 Ry
     estimated scf accuracy    <       0.00007962 Ry

     iteration # 24     ecut=    50.00 Ry     beta= 0.30
     Davidson diagonalization with overlap
     ethr =  1.11E-07,  avg # of iterations =  1.4

     total cpu time spent up to now is      193.6 secs

     total energy              =    -357.66806024 Ry
     estimated scf accuracy    <       0.00006032 Ry

     iteration # 25     ecut=    50.00 Ry     beta= 0.30
     Davidson diagonalization with overlap
     ethr =  1.11E-07,  avg # of iterations =  2.2

     total cpu time spent up to now is      198.9 secs

     total energy              =    -357.66806243 Ry
     estimated scf accuracy    <       0.00003679 Ry

     iteration # 26     ecut=    50.00 Ry     beta= 0.30
     Davidson diagonalization with overlap
     ethr =  1.02E-07,  avg # of iterations =  1.8

     total cpu time spent up to now is      204.0 secs

     total energy              =    -357.66806164 Ry
     estimated scf accuracy    <       0.00002880 Ry

     iteration # 27     ecut=    50.00 Ry     beta= 0.30
     Davidson diagonalization with overlap
     ethr =  8.00E-08,  avg # of iterations =  2.1

     total cpu time spent up to now is      209.2 secs

     total energy              =    -357.66805965 Ry
     estimated scf accuracy    <       0.00001778 Ry

     iteration # 28     ecut=    50.00 Ry     beta= 0.30
     Davidson diagonalization with overlap
     c_bands:  1 eigenvalues not converged
     ethr =  4.94E-08,  avg # of iterations =  7.7

     total cpu time spent up to now is      216.7 secs

     total energy              =    -357.66806659 Ry
     estimated scf accuracy    <       0.00000243 Ry

     iteration # 29     ecut=    50.00 Ry     beta= 0.30
     Davidson diagonalization with overlap
     c_bands:  1 eigenvalues not converged
     c_bands:  1 eigenvalues not converged
     ethr =  6.76E-09,  avg # of iterations =  6.1

     total cpu time spent up to now is      223.2 secs

     total energy              =    -357.66806655 Ry
     estimated scf accuracy    <       0.00000491 Ry

     iteration # 30     ecut=    50.00 Ry     beta= 0.30
     Davidson diagonalization with overlap
     ethr =  6.76E-09,  avg # of iterations =  1.8

     total cpu time spent up to now is      228.5 secs

     total energy              =    -357.66806639 Ry
     estimated scf accuracy    <       0.00000276 Ry

     iteration # 31     ecut=    50.00 Ry     beta= 0.30
     Davidson diagonalization with overlap
     ethr =  6.76E-09,  avg # of iterations =  1.9

     total cpu time spent up to now is      233.8 secs

     total energy              =    -357.66806638 Ry
     estimated scf accuracy    <       0.00000180 Ry

     iteration # 32     ecut=    50.00 Ry     beta= 0.30
     Davidson diagonalization with overlap
     ethr =  5.01E-09,  avg # of iterations =  3.1

     total cpu time spent up to now is      239.4 secs

     total energy              =    -357.66806629 Ry
     estimated scf accuracy    <       0.00000084 Ry

     iteration # 33     ecut=    50.00 Ry     beta= 0.30
     Davidson diagonalization with overlap
     c_bands:  1 eigenvalues not converged
     ethr =  2.35E-09,  avg # of iterations =  8.7

     total cpu time spent up to now is      248.2 secs

     total energy              =    -357.66806683 Ry
     estimated scf accuracy    <       0.00000061 Ry

     iteration # 34     ecut=    50.00 Ry     beta= 0.30
     Davidson diagonalization with overlap
     ethr =  1.69E-09,  avg # of iterations =  1.2

     total cpu time spent up to now is      253.1 secs

     total energy              =    -357.66806672 Ry
     estimated scf accuracy    <       0.00000057 Ry

     iteration # 35     ecut=    50.00 Ry     beta= 0.30
     Davidson diagonalization with overlap
     ethr =  1.58E-09,  avg # of iterations =  1.7

     total cpu time spent up to now is      258.2 secs

     total energy              =    -357.66806667 Ry
     estimated scf accuracy    <       0.00000027 Ry

     iteration # 36     ecut=    50.00 Ry     beta= 0.30
     Davidson diagonalization with overlap
     ethr =  7.63E-10,  avg # of iterations =  6.3

     total cpu time spent up to now is      265.3 secs

     End of self-consistent calculation

     Number of k-points >= 100: set verbosity='high' to print the bands.

     highest occupied level (ev):     8.2480

!    total energy              =    -357.66806674 Ry
     estimated scf accuracy    <          1.5E-09 Ry

     The total energy is the sum of the following terms:
     one-electron contribution =    -298.12681359 Ry
     hartree contribution      =     185.69550391 Ry
     xc contribution           =    -110.63335220 Ry
     ewald contribution        =    -134.60340485 Ry

     convergence has been achieved in  36 iterations

     Forces acting on atoms (cartesian axes, Ry/au):

     atom    1 type  1   force =    -0.30101692   -0.39393370    0.56177898
     atom    2 type  1   force =    -6.52058142    5.66717401    0.02302306
     atom    3 type  2   force =    -0.09520194   -0.00612782   -0.14430266
     atom    4 type  2   force =     6.91680028   -5.26711249   -0.44049938
     The non-local contrib.  to forces
     atom    1 type  1   force =     0.32676534   -0.01631707   -0.27691250
     atom    2 type  1   force =     0.83608802   -1.24690217    0.10817746
     atom    3 type  2   force =    -0.23728774    0.18839735    0.53051795
     atom    4 type  2   force =    -0.84815787    0.46004458    0.78134767
     The ionic contribution  to forces
     atom    1 type  1   force =    -5.92800977   -6.80361332   40.35691455
     atom    2 type  1   force =   -24.00129532   29.14485699  -10.37308917
     atom    3 type  2   force =    -0.53326383   -1.96722886  -21.69952350
     atom    4 type  2   force =    30.46256892  -20.37401481   -8.28430187
     The local contribution  to forces
     atom    1 type  1   force =     5.28710395    6.39775944  -39.46887814
     atom    2 type  1   force =    16.29209176  -21.94183343   10.28083515
     atom    3 type  2   force =     0.67266787    1.77405964   21.02696821
     atom    4 type  2   force =   -22.68442673   14.63560587    7.06698040
     The core correction contribution to forces
     atom    1 type  1   force =     0.01312573    0.02822909   -0.04926196
     atom    2 type  1   force =     0.35246349   -0.28889258    0.00708308
     atom    3 type  2   force =     0.00270858   -0.00138292   -0.00234444
     atom    4 type  2   force =    -0.01312349    0.01120890   -0.00456006
     The Hubbard contrib.    to forces
     atom    1 type  1   force =     0.00000000    0.00000000    0.00000000
     atom    2 type  1   force =     0.00000000    0.00000000    0.00000000
     atom    3 type  2   force =     0.00000000    0.00000000    0.00000000
     atom    4 type  2   force =     0.00000000    0.00000000    0.00000000
     The SCF correction term to forces
     atom    1 type  1   force =     0.00001553   -0.00000803   -0.00012971
     atom    2 type  1   force =     0.00008832   -0.00007098   -0.00003021
     atom    3 type  2   force =    -0.00000913    0.00001079    0.00003237
     atom    4 type  2   force =    -0.00004286    0.00002678   -0.00001227

     Total force =    12.288423     Total SCF correction =     0.000187

     Writing all to output data dir ./ZnO_ANN.save/

     init_run     :      3.42s CPU      3.51s WALL (       1 calls)
     electrons    :    257.25s CPU    261.44s WALL (       1 calls)
     forces       :      1.11s CPU      1.12s WALL (       1 calls)

     Called by init_run:
     wfcinit      :      2.62s CPU      2.66s WALL (       1 calls)
     potinit      :      0.25s CPU      0.25s WALL (       1 calls)
     hinit0       :      0.47s CPU      0.48s WALL (       1 calls)

     Called by electrons:
     c_bands      :    227.38s CPU    230.94s WALL (      36 calls)
     sum_band     :     27.00s CPU     27.54s WALL (      36 calls)
     v_of_rho     :      0.62s CPU      0.66s WALL (      37 calls)
     newd         :      2.15s CPU      2.19s WALL (      37 calls)
     mix_rho      :      0.10s CPU      0.11s WALL (      36 calls)

     Called by c_bands:
     init_us_2    :      1.70s CPU      1.73s WALL (    8288 calls)
     init_us_2:cp :      1.68s CPU      1.71s WALL (    8288 calls)
     cegterg      :    221.33s CPU    224.80s WALL (    4032 calls)

     Called by *egterg:
     cdiaghg      :     25.70s CPU     25.93s WALL (   27023 calls)
     h_psi        :    127.17s CPU    129.67s WALL (   27135 calls)
     s_psi        :     11.59s CPU     11.72s WALL (   27135 calls)
     g_psi        :      0.41s CPU      0.42s WALL (   22991 calls)

     Called by h_psi:
     h_psi:calbec :     17.59s CPU     18.08s WALL (   27135 calls)
     vloc_psi     :     97.64s CPU     99.55s WALL (   27135 calls)
     add_vuspsi   :     11.53s CPU     11.64s WALL (   27135 calls)

     General routines
     calbec       :     24.06s CPU     24.73s WALL (   31615 calls)
     fft          :      0.79s CPU      0.85s WALL (     490 calls)
     ffts         :      0.12s CPU      0.12s WALL (      73 calls)
     fftw         :    103.63s CPU    105.66s WALL (  492318 calls)
     interpolate  :      0.13s CPU      0.14s WALL (      37 calls)

     Parallel routines

     PWSCF        :   4m22.41s CPU   4m26.96s WALL


   This run was terminated on:  15:18:24  23Jun2025            

=------------------------------------------------------------------------------=
   JOB DONE.
=------------------------------------------------------------------------------=
Note: The following floating-point exceptions are signalling: IEEE_INVALID_FLAG
