
     Program PWSCF v.7.2 starts on 23Jun2025 at 14: 7:40 

     This program is part of the open-source Quantum ESPRESSO suite
     for quantum simulation of materials; please cite
         "P. Giannozzi et al., J. Phys.:Condens. Matter 21 395502 (2009);
         "P. Giannozzi et al., J. Phys.:Condens. Matter 29 465901 (2017);
         "P. Giannozzi et al., J. Chem. Phys. 152 154105 (2020);
          URL http://www.quantum-espresso.org", 
     in publications or presentations arising from this work. More details at
     http://www.quantum-espresso.org/quote

     Parallel version (MPI), running on     8 processors

     MPI processes distributed on     1 nodes
     91100 MiB available memory on the printing compute node when the environment starts

     Reading input from /home/jvc/QEspresso7.2/ZnO_DataBase/scfs_rnd025.in/scf-6.06-1.71-5.in

     Current dimensions of program PWSCF are:
     Max number of different atomic species (ntypx) = 10
     Max number of k-points (npk) =  40000
     Max angular momentum in pseudopotentials (lmaxx) =  4
     file Zn.upf: wavefunction(s)  3D renormalized

     R & G space division:  proc/nbgrp/npool/nimage =       8
     Subspace diagonalization in iterative solution of the eigenvalue problem:
     a serial algorithm will be used


     Parallelization info
     --------------------
     sticks:   dense  smooth     PW     G-vecs:    dense   smooth      PW
     Min         126      63     18                 5554     1956     324
     Max         127      65     19                 5557     1957     331
     Sum        1015     511    151                44447    15653    2635

     Using Slab Decomposition



     bravais-lattice index     =            4
     lattice parameter (alat)  =       6.0552  a.u.
     unit-cell volume          =     329.0270 (a.u.)^3
     number of atoms/cell      =            4
     number of atomic types    =            2
     number of electrons       =        36.00
     number of Kohn-Sham states=           18
     kinetic-energy cutoff     =      50.0000  Ry
     charge density cutoff     =     400.0000  Ry
     scf convergence threshold =      1.0E-08
     mixing beta               =       0.3000
     number of iterations used =            8  plain     mixing
     Exchange-correlation= PBE
                           (   1   4   3   4   0   0   0)

     celldm(1)=   6.055245  celldm(2)=   0.000000  celldm(3)=   1.711220
     celldm(4)=   0.000000  celldm(5)=   0.000000  celldm(6)=   0.000000

     crystal axes: (cart. coord. in units of alat)
               a(1) = (   1.000000   0.000000   0.000000 )  
               a(2) = (  -0.500000   0.866025   0.000000 )  
               a(3) = (   0.000000   0.000000   1.711220 )  

     reciprocal axes: (cart. coord. in units 2 pi/alat)
               b(1) = (  1.000000  0.577350 -0.000000 )  
               b(2) = (  0.000000  1.154701  0.000000 )  
               b(3) = (  0.000000 -0.000000  0.584378 )  


     PseudoPot. # 1 for Zn read from file:
     ./pseudos/Zn.upf
     MD5 check sum: 7f56cabf9682ed8c977c2f7d0c5985c5
     Pseudo is Ultrasoft + core correction, Zval = 12.0
     Generated using &quot;atomic&quot; code by A. Dal Corso  v.6.2.2
     Using radial grid of 1201 points,  6 beta functions with: 
                l(1) =   0
                l(2) =   0
                l(3) =   1
                l(4) =   1
                l(5) =   2
                l(6) =   2
     Q(r) pseudized with 0 coefficients 


     PseudoPot. # 2 for O  read from file:
     ./pseudos/O.upf
     MD5 check sum: 91400c9766925bcf19f520983a725ff0
     Pseudo is Ultrasoft + core correction, Zval =  6.0
     Generated using &quot;atomic&quot; code by A. Dal Corso  v.6.3MaX
     Using radial grid of 1095 points,  4 beta functions with: 
                l(1) =   0
                l(2) =   0
                l(3) =   1
                l(4) =   1
     Q(r) pseudized with 0 coefficients 


     atomic species   valence    mass     pseudopotential
        Zn            12.00    63.38000     Zn( 1.00)
        O              6.00    15.99900     O ( 1.00)

     No symmetry found



   Cartesian axes

     site n.     atom                  positions (alat units)
         1           Zn  tau(   1) = (   0.4248300   0.3494351   0.6217210  )
         2           Zn  tau(   2) = (   0.1279705   0.7688433  -0.2079055  )
         3           O   tau(   3) = (   0.5042988   0.2287214   1.3718945  )
         4           O   tau(   4) = (  -0.0221714   0.5306706   0.7801614  )

     number of k points=   112

     Number of k-points >= 100: set verbosity='high' to print them.

     Dense  grid:    44447 G-vectors     FFT dimensions: (  40,  40,  72)

     Smooth grid:    15653 G-vectors     FFT dimensions: (  27,  27,  48)

     Estimated max dynamical RAM per process >      30.61 MB

     Estimated total dynamical RAM >     244.89 MB

     Check: negative core charge=   -0.000002

     Initial potential from superposition of free atoms

     starting charge      35.9925, renormalised to      36.0000
     Starting wfcs are   26 randomized atomic wfcs

     total cpu time spent up to now is        3.9 secs

     Self-consistent Calculation

     iteration #  1     ecut=    50.00 Ry     beta= 0.30
     Davidson diagonalization with overlap
     ethr =  1.00E-02,  avg # of iterations =  2.2

     total cpu time spent up to now is        9.5 secs

     total energy              =    -360.17140413 Ry
     estimated scf accuracy    <       1.38275523 Ry

     iteration #  2     ecut=    50.00 Ry     beta= 0.30
     Davidson diagonalization with overlap
     ethr =  3.84E-03,  avg # of iterations =  2.5

     total cpu time spent up to now is       15.2 secs

     total energy              =    -360.30698437 Ry
     estimated scf accuracy    <       0.16562164 Ry

     iteration #  3     ecut=    50.00 Ry     beta= 0.30
     Davidson diagonalization with overlap
     ethr =  4.60E-04,  avg # of iterations =  7.9

     total cpu time spent up to now is       27.1 secs

     total energy              =    -360.44739242 Ry
     estimated scf accuracy    <       0.42176175 Ry

     iteration #  4     ecut=    50.00 Ry     beta= 0.30
     Davidson diagonalization with overlap
     ethr =  4.60E-04,  avg # of iterations =  2.3

     total cpu time spent up to now is       32.8 secs

     total energy              =    -360.33710929 Ry
     estimated scf accuracy    <       0.15727775 Ry

     iteration #  5     ecut=    50.00 Ry     beta= 0.30
     Davidson diagonalization with overlap
     ethr =  4.37E-04,  avg # of iterations =  8.7

     total cpu time spent up to now is       48.4 secs

     total energy              =    -360.37067901 Ry
     estimated scf accuracy    <       1.12674589 Ry

     iteration #  6     ecut=    50.00 Ry     beta= 0.30
     Davidson diagonalization with overlap
     ethr =  4.37E-04,  avg # of iterations =  5.7

     total cpu time spent up to now is       58.5 secs

     total energy              =    -360.44629448 Ry
     estimated scf accuracy    <       0.08393756 Ry

     iteration #  7     ecut=    50.00 Ry     beta= 0.30
     Davidson diagonalization with overlap
     ethr =  2.33E-04,  avg # of iterations =  5.2

     total cpu time spent up to now is       66.5 secs

     total energy              =    -360.48280618 Ry
     estimated scf accuracy    <       0.01653446 Ry

     iteration #  8     ecut=    50.00 Ry     beta= 0.30
     Davidson diagonalization with overlap
     ethr =  4.59E-05,  avg # of iterations =  2.6

     total cpu time spent up to now is       71.8 secs

     total energy              =    -360.47776355 Ry
     estimated scf accuracy    <       0.01382469 Ry

     iteration #  9     ecut=    50.00 Ry     beta= 0.30
     Davidson diagonalization with overlap
     ethr =  3.84E-05,  avg # of iterations =  4.2

     total cpu time spent up to now is       78.3 secs

     total energy              =    -360.48061065 Ry
     estimated scf accuracy    <       0.00037662 Ry

     iteration # 10     ecut=    50.00 Ry     beta= 0.30
     Davidson diagonalization with overlap
     ethr =  1.05E-06,  avg # of iterations =  7.8

     total cpu time spent up to now is       90.8 secs

     total energy              =    -360.48162172 Ry
     estimated scf accuracy    <       0.00039869 Ry

     iteration # 11     ecut=    50.00 Ry     beta= 0.30
     Davidson diagonalization with overlap
     ethr =  1.05E-06,  avg # of iterations =  1.2

     total cpu time spent up to now is       95.4 secs

     total energy              =    -360.48128065 Ry
     estimated scf accuracy    <       0.00050623 Ry

     iteration # 12     ecut=    50.00 Ry     beta= 0.30
     Davidson diagonalization with overlap
     ethr =  1.05E-06,  avg # of iterations =  7.4

     total cpu time spent up to now is      107.4 secs

     total energy              =    -360.48167162 Ry
     estimated scf accuracy    <       0.00098973 Ry

     iteration # 13     ecut=    50.00 Ry     beta= 0.30
     Davidson diagonalization with overlap
     ethr =  1.05E-06,  avg # of iterations =  1.1

     total cpu time spent up to now is      112.0 secs

     total energy              =    -360.48137786 Ry
     estimated scf accuracy    <       0.00083943 Ry

     iteration # 14     ecut=    50.00 Ry     beta= 0.30
     Davidson diagonalization with overlap
     ethr =  1.05E-06,  avg # of iterations =  4.4

     total cpu time spent up to now is      118.8 secs

     total energy              =    -360.48145670 Ry
     estimated scf accuracy    <       0.00009956 Ry

     iteration # 15     ecut=    50.00 Ry     beta= 0.30
     Davidson diagonalization with overlap
     ethr =  2.77E-07,  avg # of iterations =  5.0

     total cpu time spent up to now is      126.2 secs

     total energy              =    -360.48149712 Ry
     estimated scf accuracy    <       0.00000664 Ry

     iteration # 16     ecut=    50.00 Ry     beta= 0.30
     Davidson diagonalization with overlap
     ethr =  1.85E-08,  avg # of iterations =  8.5

     total cpu time spent up to now is      139.5 secs

     total energy              =    -360.48149334 Ry
     estimated scf accuracy    <       0.00004326 Ry

     iteration # 17     ecut=    50.00 Ry     beta= 0.30
     Davidson diagonalization with overlap
     ethr =  1.85E-08,  avg # of iterations =  7.7

     total cpu time spent up to now is      152.1 secs

     total energy              =    -360.48150451 Ry
     estimated scf accuracy    <       0.00000118 Ry

     iteration # 18     ecut=    50.00 Ry     beta= 0.30
     Davidson diagonalization with overlap
     ethr =  3.28E-09,  avg # of iterations =  8.7

     total cpu time spent up to now is      165.6 secs

     total energy              =    -360.48149910 Ry
     estimated scf accuracy    <       0.00001848 Ry

     iteration # 19     ecut=    50.00 Ry     beta= 0.30
     Davidson diagonalization with overlap
     ethr =  3.28E-09,  avg # of iterations =  9.2

     total cpu time spent up to now is      180.9 secs

     total energy              =    -360.48150274 Ry
     estimated scf accuracy    <       0.00000015 Ry

     iteration # 20     ecut=    50.00 Ry     beta= 0.30
     Davidson diagonalization with overlap
     ethr =  4.17E-10,  avg # of iterations =  4.0

     total cpu time spent up to now is      187.7 secs

     total energy              =    -360.48150277 Ry
     estimated scf accuracy    <       0.00000002 Ry

     iteration # 21     ecut=    50.00 Ry     beta= 0.30
     Davidson diagonalization with overlap
     ethr =  5.59E-11,  avg # of iterations =  5.5

     total cpu time spent up to now is      196.0 secs

     End of self-consistent calculation

     Number of k-points >= 100: set verbosity='high' to print the bands.

     highest occupied level (ev):     7.3494

!    total energy              =    -360.48150277 Ry
     estimated scf accuracy    <          8.9E-09 Ry

     The total energy is the sum of the following terms:
     one-electron contribution =    -177.53276461 Ry
     hartree contribution      =     128.56129725 Ry
     xc contribution           =    -109.88782606 Ry
     ewald contribution        =    -201.62220935 Ry

     convergence has been achieved in  21 iterations

     Forces acting on atoms (cartesian axes, Ry/au):

     atom    1 type  1   force =     0.23023429   -0.10121153   -0.03203413
     atom    2 type  1   force =     0.96855752   -2.49253115    0.92913178
     atom    3 type  2   force =    -0.97470210    2.49631359   -0.87555799
     atom    4 type  2   force =    -0.22408972    0.09742909   -0.02153966
     The non-local contrib.  to forces
     atom    1 type  1   force =     0.45639239   -0.33656927   -0.52105176
     atom    2 type  1   force =     0.30552319   -0.80044054    0.38665914
     atom    3 type  2   force =     0.03777667   -0.48955776    0.86371911
     atom    4 type  2   force =     0.22515293   -0.28731759   -0.93845473
     The ionic contribution  to forces
     atom    1 type  1   force =     3.39256210   -2.18227608  -11.09464187
     atom    2 type  1   force =     6.62249029  -17.00997391   15.21117121
     atom    3 type  2   force =    -6.15826107   17.08947998   -4.47948917
     atom    4 type  2   force =    -3.85679133    2.10277001    0.36295982
     The local contribution  to forces
     atom    1 type  1   force =    -3.57560303    2.38554888   11.54038447
     atom    2 type  1   force =    -5.87440209   15.08189745  -14.56095062
     atom    3 type  2   force =     5.14200324  -14.09728333    2.74410534
     atom    4 type  2   force =     3.40812891   -1.72011571    0.54536923
     The core correction contribution to forces
     atom    1 type  1   force =    -0.04314739    0.03208016    0.04361022
     atom    2 type  1   force =    -0.08510663    0.23613146   -0.10809934
     atom    3 type  2   force =     0.00380671   -0.00637900   -0.00399910
     atom    4 type  2   force =    -0.00056425    0.00206108    0.00871750
     The Hubbard contrib.    to forces
     atom    1 type  1   force =     0.00000000    0.00000000    0.00000000
     atom    2 type  1   force =     0.00000000    0.00000000    0.00000000
     atom    3 type  2   force =     0.00000000    0.00000000    0.00000000
     atom    4 type  2   force =     0.00000000    0.00000000    0.00000000
     The SCF correction term to forces
     atom    1 type  1   force =     0.00004711   -0.00002432   -0.00032883
     atom    2 type  1   force =     0.00006965   -0.00017471    0.00035775
     atom    3 type  2   force =    -0.00001078    0.00002460    0.00011220
     atom    4 type  2   force =     0.00000090    0.00000220   -0.00012511

     Total force =     4.010833     Total SCF correction =     0.000551

     Writing all to output data dir ./ZnO_ANN.save/

     init_run     :      3.40s CPU      3.49s WALL (       1 calls)
     electrons    :    188.51s CPU    192.09s WALL (       1 calls)
     forces       :      1.05s CPU      1.06s WALL (       1 calls)

     Called by init_run:
     wfcinit      :      2.53s CPU      2.58s WALL (       1 calls)
     potinit      :      0.25s CPU      0.25s WALL (       1 calls)
     hinit0       :      0.54s CPU      0.56s WALL (       1 calls)

     Called by electrons:
     c_bands      :    171.92s CPU    175.11s WALL (      21 calls)
     sum_band     :     14.99s CPU     15.34s WALL (      21 calls)
     v_of_rho     :      0.34s CPU      0.37s WALL (      22 calls)
     newd         :      1.23s CPU      1.26s WALL (      22 calls)
     mix_rho      :      0.06s CPU      0.06s WALL (      21 calls)

     Called by c_bands:
     init_us_2    :      1.11s CPU      1.13s WALL (    4928 calls)
     init_us_2:cp :      1.09s CPU      1.12s WALL (    4928 calls)
     cegterg      :    168.58s CPU    171.71s WALL (    2352 calls)

     Called by *egterg:
     cdiaghg      :     17.68s CPU     17.80s WALL (   14859 calls)
     h_psi        :     98.61s CPU    100.97s WALL (   14971 calls)
     s_psi        :     12.84s CPU     12.91s WALL (   14971 calls)
     g_psi        :      0.36s CPU      0.36s WALL (   12507 calls)

     Called by h_psi:
     h_psi:calbec :     13.16s CPU     13.65s WALL (   14971 calls)
     vloc_psi     :     72.29s CPU     74.05s WALL (   14971 calls)
     add_vuspsi   :     12.84s CPU     12.96s WALL (   14971 calls)

     General routines
     calbec       :     16.99s CPU     17.59s WALL (   17771 calls)
     fft          :      0.48s CPU      0.52s WALL (     295 calls)
     ffts         :      0.12s CPU      0.12s WALL (      43 calls)
     fftw         :     72.16s CPU     73.91s WALL (  376882 calls)
     interpolate  :      0.12s CPU      0.13s WALL (      22 calls)

     Parallel routines

     PWSCF        :   3m13.71s CPU   3m17.58s WALL


   This run was terminated on:  14:10:58  23Jun2025            

=------------------------------------------------------------------------------=
   JOB DONE.
=------------------------------------------------------------------------------=
Note: The following floating-point exceptions are signalling: IEEE_INVALID_FLAG
