
     Program PWSCF v.7.2 starts on 23Jun2025 at 17:23:19 

     This program is part of the open-source Quantum ESPRESSO suite
     for quantum simulation of materials; please cite
         "P. Giannozzi et al., J. Phys.:Condens. Matter 21 395502 (2009);
         "P. Giannozzi et al., J. Phys.:Condens. Matter 29 465901 (2017);
         "P. Giannozzi et al., J. Chem. Phys. 152 154105 (2020);
          URL http://www.quantum-espresso.org", 
     in publications or presentations arising from this work. More details at
     http://www.quantum-espresso.org/quote

     Parallel version (MPI), running on     8 processors

     MPI processes distributed on     1 nodes
     90746 MiB available memory on the printing compute node when the environment starts

     Reading input from /home/jvc/QEspresso7.2/ZnO_DataBase/scfs_rnd025.in/scf-6.67-1.45-3.in

     Current dimensions of program PWSCF are:
     Max number of different atomic species (ntypx) = 10
     Max number of k-points (npk) =  40000
     Max angular momentum in pseudopotentials (lmaxx) =  4
     file Zn.upf: wavefunction(s)  3D renormalized

     R & G space division:  proc/nbgrp/npool/nimage =       8
     Subspace diagonalization in iterative solution of the eigenvalue problem:
     a serial algorithm will be used


     Parallelization info
     --------------------
     sticks:   dense  smooth     PW     G-vecs:    dense   smooth      PW
     Min         154      75     23                 6318     2222     369
     Max         155      78     24                 6321     2227     374
     Sum        1237     613    187                50557    17791    2971

     Using Slab Decomposition



     bravais-lattice index     =            4
     lattice parameter (alat)  =       6.6731  a.u.
     unit-cell volume          =     373.9050 (a.u.)^3
     number of atoms/cell      =            4
     number of atomic types    =            2
     number of electrons       =        36.00
     number of Kohn-Sham states=           18
     kinetic-energy cutoff     =      50.0000  Ry
     charge density cutoff     =     400.0000  Ry
     scf convergence threshold =      1.0E-08
     mixing beta               =       0.3000
     number of iterations used =            8  plain     mixing
     Exchange-correlation= PBE
                           (   1   4   3   4   0   0   0)

     celldm(1)=   6.673127  celldm(2)=   0.000000  celldm(3)=   1.452923
     celldm(4)=   0.000000  celldm(5)=   0.000000  celldm(6)=   0.000000

     crystal axes: (cart. coord. in units of alat)
               a(1) = (   1.000000   0.000000   0.000000 )  
               a(2) = (  -0.500000   0.866025   0.000000 )  
               a(3) = (   0.000000   0.000000   1.452923 )  

     reciprocal axes: (cart. coord. in units 2 pi/alat)
               b(1) = (  1.000000  0.577350 -0.000000 )  
               b(2) = (  0.000000  1.154701  0.000000 )  
               b(3) = (  0.000000 -0.000000  0.688268 )  


     PseudoPot. # 1 for Zn read from file:
     ./pseudos/Zn.upf
     MD5 check sum: 7f56cabf9682ed8c977c2f7d0c5985c5
     Pseudo is Ultrasoft + core correction, Zval = 12.0
     Generated using &quot;atomic&quot; code by A. Dal Corso  v.6.2.2
     Using radial grid of 1201 points,  6 beta functions with: 
                l(1) =   0
                l(2) =   0
                l(3) =   1
                l(4) =   1
                l(5) =   2
                l(6) =   2
     Q(r) pseudized with 0 coefficients 


     PseudoPot. # 2 for O  read from file:
     ./pseudos/O.upf
     MD5 check sum: 91400c9766925bcf19f520983a725ff0
     Pseudo is Ultrasoft + core correction, Zval =  6.0
     Generated using &quot;atomic&quot; code by A. Dal Corso  v.6.3MaX
     Using radial grid of 1095 points,  4 beta functions with: 
                l(1) =   0
                l(2) =   0
                l(3) =   1
                l(4) =   1
     Q(r) pseudized with 0 coefficients 


     atomic species   valence    mass     pseudopotential
        Zn            12.00    63.38000     Zn( 1.00)
        O              6.00    15.99900     O ( 1.00)

     No symmetry found



   Cartesian axes

     site n.     atom                  positions (alat units)
         1           Zn  tau(   1) = (   0.3916918   0.4558360   0.4669524  )
         2           Zn  tau(   2) = (  -0.2226517   0.6975391  -0.1107118  )
         3           O   tau(   3) = (   0.2518571   0.4681005   1.3641103  )
         4           O   tau(   4) = (   0.2942258   0.3941329   0.3582132  )

     number of k points=   112

     Number of k-points >= 100: set verbosity='high' to print them.

     Dense  grid:    50557 G-vectors     FFT dimensions: (  45,  45,  64)

     Smooth grid:    17791 G-vectors     FFT dimensions: (  32,  32,  45)

     Estimated max dynamical RAM per process >      34.38 MB

     Estimated total dynamical RAM >     275.00 MB

     Check: negative core charge=   -0.000002

     Initial potential from superposition of free atoms

     starting charge      35.9925, renormalised to      36.0000
     Starting wfcs are   26 randomized atomic wfcs

     total cpu time spent up to now is        3.9 secs

     Self-consistent Calculation

     iteration #  1     ecut=    50.00 Ry     beta= 0.30
     Davidson diagonalization with overlap
     ethr =  1.00E-02,  avg # of iterations =  5.3

     total cpu time spent up to now is       12.8 secs

     total energy              =    -336.09013043 Ry
     estimated scf accuracy    <       1.56351916 Ry

     iteration #  2     ecut=    50.00 Ry     beta= 0.30
     Davidson diagonalization with overlap
     ethr =  4.34E-03,  avg # of iterations =  2.0

     total cpu time spent up to now is       17.9 secs

     total energy              =    -335.94201633 Ry
     estimated scf accuracy    <       0.42227959 Ry

     iteration #  3     ecut=    50.00 Ry     beta= 0.30
     Davidson diagonalization with overlap
     ethr =  1.17E-03,  avg # of iterations = 10.3

     total cpu time spent up to now is       27.9 secs

     total energy              =    -336.39244701 Ry
     estimated scf accuracy    <       1.66699180 Ry

     iteration #  4     ecut=    50.00 Ry     beta= 0.30
     Davidson diagonalization with overlap
     ethr =  1.17E-03,  avg # of iterations =  1.2

     total cpu time spent up to now is       32.6 secs

     total energy              =    -335.58724613 Ry
     estimated scf accuracy    <       1.39782340 Ry

     iteration #  5     ecut=    50.00 Ry     beta= 0.30
     Davidson diagonalization with overlap
     ethr =  1.17E-03,  avg # of iterations = 10.4

     total cpu time spent up to now is       44.7 secs

     total energy              =    -336.24302471 Ry
     estimated scf accuracy    <       1.14751857 Ry

     iteration #  6     ecut=    50.00 Ry     beta= 0.30
     Davidson diagonalization with overlap
     ethr =  1.17E-03,  avg # of iterations =  2.0

     total cpu time spent up to now is       49.7 secs

     total energy              =    -336.11916715 Ry
     estimated scf accuracy    <       0.64745393 Ry

     iteration #  7     ecut=    50.00 Ry     beta= 0.30
     Davidson diagonalization with overlap
     ethr =  1.17E-03,  avg # of iterations =  4.9

     total cpu time spent up to now is       55.9 secs

     total energy              =    -336.19230669 Ry
     estimated scf accuracy    <       0.08598917 Ry

     iteration #  8     ecut=    50.00 Ry     beta= 0.30
     Davidson diagonalization with overlap
     ethr =  2.39E-04,  avg # of iterations =  4.9

     total cpu time spent up to now is       62.2 secs

     total energy              =    -336.20858324 Ry
     estimated scf accuracy    <       0.02692893 Ry

     iteration #  9     ecut=    50.00 Ry     beta= 0.30
     Davidson diagonalization with overlap
     ethr =  7.48E-05,  avg # of iterations =  3.5

     total cpu time spent up to now is       67.8 secs

     total energy              =    -336.21021021 Ry
     estimated scf accuracy    <       0.02140515 Ry

     iteration # 10     ecut=    50.00 Ry     beta= 0.30
     Davidson diagonalization with overlap
     ethr =  5.95E-05,  avg # of iterations =  1.3

     total cpu time spent up to now is       72.5 secs

     total energy              =    -336.26809070 Ry
     estimated scf accuracy    <       0.01828280 Ry

     iteration # 11     ecut=    50.00 Ry     beta= 0.30
     Davidson diagonalization with overlap
     ethr =  5.08E-05,  avg # of iterations = 10.8

     total cpu time spent up to now is       86.4 secs

     total energy              =    -336.22618799 Ry
     estimated scf accuracy    <       0.56854467 Ry

     iteration # 12     ecut=    50.00 Ry     beta= 0.30
     Davidson diagonalization with overlap
     ethr =  5.08E-05,  avg # of iterations =  7.7

     total cpu time spent up to now is       96.2 secs

     total energy              =    -336.25264254 Ry
     estimated scf accuracy    <       0.18916589 Ry

     iteration # 13     ecut=    50.00 Ry     beta= 0.30
     Davidson diagonalization with overlap
     ethr =  5.08E-05,  avg # of iterations =  1.0

     total cpu time spent up to now is      100.9 secs

     total energy              =    -336.20488355 Ry
     estimated scf accuracy    <       0.20343439 Ry

     iteration # 14     ecut=    50.00 Ry     beta= 0.30
     Davidson diagonalization with overlap
     ethr =  5.08E-05,  avg # of iterations =  7.3

     total cpu time spent up to now is      109.2 secs

     total energy              =    -336.21022652 Ry
     estimated scf accuracy    <       0.04342715 Ry

     iteration # 15     ecut=    50.00 Ry     beta= 0.30
     Davidson diagonalization with overlap
     ethr =  5.08E-05,  avg # of iterations =  1.7

     total cpu time spent up to now is      114.1 secs

     total energy              =    -336.20647962 Ry
     estimated scf accuracy    <       0.03042906 Ry

     iteration # 16     ecut=    50.00 Ry     beta= 0.30
     Davidson diagonalization with overlap
     ethr =  5.08E-05,  avg # of iterations =  3.5

     total cpu time spent up to now is      119.7 secs

     total energy              =    -336.20586905 Ry
     estimated scf accuracy    <       0.01110599 Ry

     iteration # 17     ecut=    50.00 Ry     beta= 0.30
     Davidson diagonalization with overlap
     ethr =  3.08E-05,  avg # of iterations =  5.9

     total cpu time spent up to now is      126.1 secs

     total energy              =    -336.20740143 Ry
     estimated scf accuracy    <       0.00081561 Ry

     iteration # 18     ecut=    50.00 Ry     beta= 0.30
     Davidson diagonalization with overlap
     c_bands:  1 eigenvalues not converged
     c_bands:  1 eigenvalues not converged
     c_bands:  1 eigenvalues not converged
     ethr =  2.27E-06,  avg # of iterations = 14.8

     total cpu time spent up to now is      140.0 secs

     total energy              =    -336.21003736 Ry
     estimated scf accuracy    <       0.01236411 Ry

     iteration # 19     ecut=    50.00 Ry     beta= 0.30
     Davidson diagonalization with overlap
     ethr =  2.27E-06,  avg # of iterations =  2.1

     total cpu time spent up to now is      145.0 secs

     total energy              =    -336.20939332 Ry
     estimated scf accuracy    <       0.01026135 Ry

     iteration # 20     ecut=    50.00 Ry     beta= 0.30
     Davidson diagonalization with overlap
     ethr =  2.27E-06,  avg # of iterations =  6.6

     total cpu time spent up to now is      151.4 secs

     total energy              =    -336.20971702 Ry
     estimated scf accuracy    <       0.00582150 Ry

     iteration # 21     ecut=    50.00 Ry     beta= 0.30
     Davidson diagonalization with overlap
     ethr =  2.27E-06,  avg # of iterations =  1.2

     total cpu time spent up to now is      156.1 secs

     total energy              =    -336.21028981 Ry
     estimated scf accuracy    <       0.00606237 Ry

     iteration # 22     ecut=    50.00 Ry     beta= 0.30
     Davidson diagonalization with overlap
     ethr =  2.27E-06,  avg # of iterations =  2.1

     total cpu time spent up to now is      161.2 secs

     total energy              =    -336.20802273 Ry
     estimated scf accuracy    <       0.00779110 Ry

     iteration # 23     ecut=    50.00 Ry     beta= 0.30
     Davidson diagonalization with overlap
     ethr =  2.27E-06,  avg # of iterations = 10.3

     total cpu time spent up to now is      170.7 secs

     total energy              =    -336.20871567 Ry
     estimated scf accuracy    <       0.00047511 Ry

     iteration # 24     ecut=    50.00 Ry     beta= 0.30
     Davidson diagonalization with overlap
     ethr =  1.32E-06,  avg # of iterations =  1.1

     total cpu time spent up to now is      175.4 secs

     total energy              =    -336.20872580 Ry
     estimated scf accuracy    <       0.00049781 Ry

     iteration # 25     ecut=    50.00 Ry     beta= 0.30
     Davidson diagonalization with overlap
     ethr =  1.32E-06,  avg # of iterations =  1.0

     total cpu time spent up to now is      180.1 secs

     total energy              =    -336.20872754 Ry
     estimated scf accuracy    <       0.00050243 Ry

     iteration # 26     ecut=    50.00 Ry     beta= 0.30
     Davidson diagonalization with overlap
     ethr =  1.32E-06,  avg # of iterations =  1.0

     total cpu time spent up to now is      184.6 secs

     total energy              =    -336.20870152 Ry
     estimated scf accuracy    <       0.00050918 Ry

     iteration # 27     ecut=    50.00 Ry     beta= 0.30
     Davidson diagonalization with overlap
     ethr =  1.32E-06,  avg # of iterations =  1.0

     total cpu time spent up to now is      189.2 secs

     total energy              =    -336.20862232 Ry
     estimated scf accuracy    <       0.00044574 Ry

     iteration # 28     ecut=    50.00 Ry     beta= 0.30
     Davidson diagonalization with overlap
     ethr =  1.24E-06,  avg # of iterations =  1.4

     total cpu time spent up to now is      194.0 secs

     total energy              =    -336.20849048 Ry
     estimated scf accuracy    <       0.00025022 Ry

     iteration # 29     ecut=    50.00 Ry     beta= 0.30
     Davidson diagonalization with overlap
     ethr =  6.95E-07,  avg # of iterations =  9.6

     total cpu time spent up to now is      203.4 secs

     total energy              =    -336.20862809 Ry
     estimated scf accuracy    <       0.00035888 Ry

     iteration # 30     ecut=    50.00 Ry     beta= 0.30
     Davidson diagonalization with overlap
     ethr =  6.95E-07,  avg # of iterations =  1.7

     total cpu time spent up to now is      208.3 secs

     total energy              =    -336.20859521 Ry
     estimated scf accuracy    <       0.00020437 Ry

     iteration # 31     ecut=    50.00 Ry     beta= 0.30
     Davidson diagonalization with overlap
     ethr =  5.68E-07,  avg # of iterations =  5.1

     total cpu time spent up to now is      214.3 secs

     total energy              =    -336.20861448 Ry
     estimated scf accuracy    <       0.00001926 Ry

     iteration # 32     ecut=    50.00 Ry     beta= 0.30
     Davidson diagonalization with overlap
     ethr =  5.35E-08,  avg # of iterations = 10.9

     total cpu time spent up to now is      225.0 secs

     total energy              =    -336.20863181 Ry
     estimated scf accuracy    <       0.00004165 Ry

     iteration # 33     ecut=    50.00 Ry     beta= 0.30
     Davidson diagonalization with overlap
     ethr =  5.35E-08,  avg # of iterations =  2.3

     total cpu time spent up to now is      230.2 secs

     total energy              =    -336.20862539 Ry
     estimated scf accuracy    <       0.00002266 Ry

     iteration # 34     ecut=    50.00 Ry     beta= 0.30
     Davidson diagonalization with overlap
     ethr =  5.35E-08,  avg # of iterations =  6.7

     total cpu time spent up to now is      237.8 secs

     total energy              =    -336.20863312 Ry
     estimated scf accuracy    <       0.00000223 Ry

     iteration # 35     ecut=    50.00 Ry     beta= 0.30
     Davidson diagonalization with overlap
     ethr =  6.18E-09,  avg # of iterations =  2.1

     total cpu time spent up to now is      242.9 secs

     total energy              =    -336.20863277 Ry
     estimated scf accuracy    <       0.00000257 Ry

     iteration # 36     ecut=    50.00 Ry     beta= 0.30
     Davidson diagonalization with overlap
     ethr =  6.18E-09,  avg # of iterations =  1.4

     total cpu time spent up to now is      247.8 secs

     total energy              =    -336.20863229 Ry
     estimated scf accuracy    <       0.00000163 Ry

     iteration # 37     ecut=    50.00 Ry     beta= 0.30
     Davidson diagonalization with overlap
     ethr =  4.52E-09,  avg # of iterations =  6.1

     total cpu time spent up to now is      254.1 secs

     total energy              =    -336.20863257 Ry
     estimated scf accuracy    <       0.00000005 Ry

     iteration # 38     ecut=    50.00 Ry     beta= 0.30
     Davidson diagonalization with overlap
     c_bands:  1 eigenvalues not converged
     ethr =  1.50E-10,  avg # of iterations = 10.4

     total cpu time spent up to now is      265.2 secs

     total energy              =    -336.20863268 Ry
     estimated scf accuracy    <       0.00000008 Ry

     iteration # 39     ecut=    50.00 Ry     beta= 0.30
     Davidson diagonalization with overlap
     ethr =  1.50E-10,  avg # of iterations =  1.1

     total cpu time spent up to now is      269.9 secs

     total energy              =    -336.20863265 Ry
     estimated scf accuracy    <       0.00000007 Ry

     iteration # 40     ecut=    50.00 Ry     beta= 0.30
     Davidson diagonalization with overlap
     ethr =  1.50E-10,  avg # of iterations =  6.6

     total cpu time spent up to now is      277.6 secs

     End of self-consistent calculation

     Number of k-points >= 100: set verbosity='high' to print the bands.

     highest occupied level (ev):     8.7134

!    total energy              =    -336.20863267 Ry
     estimated scf accuracy    <          7.9E-09 Ry

     The total energy is the sum of the following terms:
     one-electron contribution =    -292.52271071 Ry
     hartree contribution      =     178.44574431 Ry
     xc contribution           =    -113.12425599 Ry
     ewald contribution        =    -109.00741028 Ry

     convergence has been achieved in  40 iterations

     Forces acting on atoms (cartesian axes, Ry/au):

     atom    1 type  1   force =    39.56980296   25.04699427   44.17221837
     atom    2 type  1   force =    -0.02255878    0.03537984   -0.09265936
     atom    3 type  2   force =    -0.04396009    0.09077806   -0.61375115
     atom    4 type  2   force =   -39.50328410  -25.17315217  -43.46580787
     The non-local contrib.  to forces
     atom    1 type  1   force =   -16.63283476  -10.49698999  -19.09335666
     atom    2 type  1   force =    -0.21882025    0.23670673    0.24230586
     atom    3 type  2   force =    -0.28533002    0.34721054   -1.12371042
     atom    4 type  2   force =     4.65220499    2.81880413    5.24717403
     The ionic contribution  to forces
     atom    1 type  1   force =    77.66668731   48.30149279  104.19697030
     atom    2 type  1   force =    -0.26742593    2.27553867  -15.54419107
     atom    3 type  2   force =    -0.38118286   -0.78519077  -13.56754130
     atom    4 type  2   force =   -77.01807852  -49.79184070  -75.08523793
     The local contribution  to forces
     atom    1 type  1   force =   -20.46224567  -12.12021716  -39.82353825
     atom    2 type  1   force =     0.44971978   -2.45884870   15.21056173
     atom    3 type  2   force =     0.61929755    0.53195234   14.06201729
     atom    4 type  2   force =    32.73610211   21.71904978   26.23276215
     The core correction contribution to forces
     atom    1 type  1   force =    -1.00186551   -0.63729818   -1.10797767
     atom    2 type  1   force =     0.01402117   -0.01805974   -0.00127852
     atom    3 type  2   force =     0.00327027   -0.00319341    0.01554997
     atom    4 type  2   force =     0.12648925    0.08086716    0.13943861
     The Hubbard contrib.    to forces
     atom    1 type  1   force =     0.00000000    0.00000000    0.00000000
     atom    2 type  1   force =     0.00000000    0.00000000    0.00000000
     atom    3 type  2   force =     0.00000000    0.00000000    0.00000000
     atom    4 type  2   force =     0.00000000    0.00000000    0.00000000
     The SCF correction term to forces
     atom    1 type  1   force =     0.00007092    0.00001763    0.00016576
     atom    2 type  1   force =    -0.00004422    0.00005372   -0.00001225
     atom    3 type  2   force =    -0.00000570    0.00001020   -0.00002158
     atom    4 type  2   force =     0.00000740   -0.00002172    0.00010038

     Total force =    90.709298     Total SCF correction =     0.000221

     Writing all to output data dir ./ZnO_ANN.save/

     init_run     :      3.41s CPU      3.49s WALL (       1 calls)
     electrons    :    269.25s CPU    273.67s WALL (       1 calls)
     forces       :      1.19s CPU      1.20s WALL (       1 calls)

     Called by init_run:
     wfcinit      :      2.59s CPU      2.63s WALL (       1 calls)
     potinit      :      0.28s CPU      0.28s WALL (       1 calls)
     hinit0       :      0.45s CPU      0.46s WALL (       1 calls)

     Called by electrons:
     c_bands      :    236.68s CPU    240.49s WALL (      40 calls)
     sum_band     :     28.99s CPU     29.53s WALL (      40 calls)
     v_of_rho     :      0.71s CPU      0.76s WALL (      41 calls)
     newd         :      2.75s CPU      2.77s WALL (      41 calls)
     mix_rho      :      0.12s CPU      0.13s WALL (      40 calls)

     Called by c_bands:
     init_us_2    :      2.04s CPU      2.07s WALL (    9184 calls)
     init_us_2:cp :      2.01s CPU      2.04s WALL (    9184 calls)
     cegterg      :    229.18s CPU    232.90s WALL (    4480 calls)

     Called by *egterg:
     cdiaghg      :     25.13s CPU     25.37s WALL (   25789 calls)
     h_psi        :    126.18s CPU    128.84s WALL (   25901 calls)
     s_psi        :     13.27s CPU     13.39s WALL (   25901 calls)
     g_psi        :      0.48s CPU      0.48s WALL (   21309 calls)

     Called by h_psi:
     h_psi:calbec :     20.31s CPU     20.85s WALL (   25901 calls)
     vloc_psi     :     92.14s CPU     94.15s WALL (   25901 calls)
     add_vuspsi   :     13.31s CPU     13.43s WALL (   25901 calls)

     General routines
     calbec       :     28.00s CPU     28.71s WALL (   30829 calls)
     fft          :      1.01s CPU      1.08s WALL (     542 calls)
     ffts         :      0.13s CPU      0.13s WALL (      81 calls)
     fftw         :     96.81s CPU     98.90s WALL (  535972 calls)
     interpolate  :      0.15s CPU      0.16s WALL (      41 calls)

     Parallel routines

     PWSCF        :   4m34.55s CPU   4m39.32s WALL


   This run was terminated on:  17:27:58  23Jun2025            

=------------------------------------------------------------------------------=
   JOB DONE.
=------------------------------------------------------------------------------=
Note: The following floating-point exceptions are signalling: IEEE_INVALID_FLAG
