
     Program PWSCF v.7.2 starts on 23Jun2025 at 12:36:18 

     This program is part of the open-source Quantum ESPRESSO suite
     for quantum simulation of materials; please cite
         "P. Giannozzi et al., J. Phys.:Condens. Matter 21 395502 (2009);
         "P. Giannozzi et al., J. Phys.:Condens. Matter 29 465901 (2017);
         "P. Giannozzi et al., J. Chem. Phys. 152 154105 (2020);
          URL http://www.quantum-espresso.org", 
     in publications or presentations arising from this work. More details at
     http://www.quantum-espresso.org/quote

     Parallel version (MPI), running on     8 processors

     MPI processes distributed on     1 nodes
     91396 MiB available memory on the printing compute node when the environment starts

     Reading input from /home/jvc/QEspresso7.2/ZnO_DataBase/scfs_rnd025.in/scf-5.81-1.49-2.in

     Current dimensions of program PWSCF are:
     Max number of different atomic species (ntypx) = 10
     Max number of k-points (npk) =  40000
     Max angular momentum in pseudopotentials (lmaxx) =  4
     file Zn.upf: wavefunction(s)  3D renormalized

     R & G space division:  proc/nbgrp/npool/nimage =       8
     Subspace diagonalization in iterative solution of the eigenvalue problem:
     a serial algorithm will be used


     Parallelization info
     --------------------
     sticks:   dense  smooth     PW     G-vecs:    dense   smooth      PW
     Min         116      57     18                 4253     1500     259
     Max         118      59     19                 4256     1503     261
     Sum         931     463    151                34033    12009    2079

     Using Slab Decomposition



     bravais-lattice index     =            4
     lattice parameter (alat)  =       5.8081  a.u.
     unit-cell volume          =     252.0106 (a.u.)^3
     number of atoms/cell      =            4
     number of atomic types    =            2
     number of electrons       =        36.00
     number of Kohn-Sham states=           18
     kinetic-energy cutoff     =      50.0000  Ry
     charge density cutoff     =     400.0000  Ry
     scf convergence threshold =      1.0E-08
     mixing beta               =       0.3000
     number of iterations used =            8  plain     mixing
     Exchange-correlation= PBE
                           (   1   4   3   4   0   0   0)

     celldm(1)=   5.808092  celldm(2)=   0.000000  celldm(3)=   1.485210
     celldm(4)=   0.000000  celldm(5)=   0.000000  celldm(6)=   0.000000

     crystal axes: (cart. coord. in units of alat)
               a(1) = (   1.000000   0.000000   0.000000 )  
               a(2) = (  -0.500000   0.866025   0.000000 )  
               a(3) = (   0.000000   0.000000   1.485210 )  

     reciprocal axes: (cart. coord. in units 2 pi/alat)
               b(1) = (  1.000000  0.577350 -0.000000 )  
               b(2) = (  0.000000  1.154701  0.000000 )  
               b(3) = (  0.000000 -0.000000  0.673306 )  


     PseudoPot. # 1 for Zn read from file:
     ./pseudos/Zn.upf
     MD5 check sum: 7f56cabf9682ed8c977c2f7d0c5985c5
     Pseudo is Ultrasoft + core correction, Zval = 12.0
     Generated using &quot;atomic&quot; code by A. Dal Corso  v.6.2.2
     Using radial grid of 1201 points,  6 beta functions with: 
                l(1) =   0
                l(2) =   0
                l(3) =   1
                l(4) =   1
                l(5) =   2
                l(6) =   2
     Q(r) pseudized with 0 coefficients 


     PseudoPot. # 2 for O  read from file:
     ./pseudos/O.upf
     MD5 check sum: 91400c9766925bcf19f520983a725ff0
     Pseudo is Ultrasoft + core correction, Zval =  6.0
     Generated using &quot;atomic&quot; code by A. Dal Corso  v.6.3MaX
     Using radial grid of 1095 points,  4 beta functions with: 
                l(1) =   0
                l(2) =   0
                l(3) =   1
                l(4) =   1
     Q(r) pseudized with 0 coefficients 


     atomic species   valence    mass     pseudopotential
        Zn            12.00    63.38000     Zn( 1.00)
        O              6.00    15.99900     O ( 1.00)

     No symmetry found



   Cartesian axes

     site n.     atom                  positions (alat units)
         1           Zn  tau(   1) = (   0.4014775   0.4106316   0.3955393  )
         2           Zn  tau(   2) = (  -0.2148210   0.5919244  -0.2820268  )
         3           O   tau(   3) = (   0.3711311   0.3291910   1.5404566  )
         4           O   tau(   4) = (   0.1116314   0.5685737   0.3303999  )

     number of k points=   112

     Number of k-points >= 100: set verbosity='high' to print them.

     Dense  grid:    34033 G-vectors     FFT dimensions: (  40,  40,  60)

     Smooth grid:    12009 G-vectors     FFT dimensions: (  27,  27,  40)

     Estimated max dynamical RAM per process >      24.32 MB

     Estimated total dynamical RAM >     194.60 MB

     Check: negative core charge=   -0.000002

     Initial potential from superposition of free atoms

     starting charge      35.9925, renormalised to      36.0000
     Starting wfcs are   26 randomized atomic wfcs

     total cpu time spent up to now is        3.5 secs

     Self-consistent Calculation

     iteration #  1     ecut=    50.00 Ry     beta= 0.30
     Davidson diagonalization with overlap
     ethr =  1.00E-02,  avg # of iterations =  3.2

     total cpu time spent up to now is        9.0 secs

     total energy              =    -356.37526002 Ry
     estimated scf accuracy    <       1.61202008 Ry

     iteration #  2     ecut=    50.00 Ry     beta= 0.30
     Davidson diagonalization with overlap
     ethr =  4.48E-03,  avg # of iterations =  2.0

     total cpu time spent up to now is       13.9 secs

     total energy              =    -356.36780825 Ry
     estimated scf accuracy    <       0.35799809 Ry

     iteration #  3     ecut=    50.00 Ry     beta= 0.30
     Davidson diagonalization with overlap
     ethr =  9.94E-04,  avg # of iterations =  6.5

     total cpu time spent up to now is       22.8 secs

     total energy              =    -356.61154566 Ry
     estimated scf accuracy    <       0.30804814 Ry

     iteration #  4     ecut=    50.00 Ry     beta= 0.30
     Davidson diagonalization with overlap
     ethr =  8.56E-04,  avg # of iterations =  2.0

     total cpu time spent up to now is       27.2 secs

     total energy              =    -356.57123573 Ry
     estimated scf accuracy    <       0.08082040 Ry

     iteration #  5     ecut=    50.00 Ry     beta= 0.30
     Davidson diagonalization with overlap
     ethr =  2.25E-04,  avg # of iterations =  8.0

     total cpu time spent up to now is       39.5 secs

     total energy              =    -356.63582139 Ry
     estimated scf accuracy    <       0.31784429 Ry

     iteration #  6     ecut=    50.00 Ry     beta= 0.30
     Davidson diagonalization with overlap
     ethr =  2.25E-04,  avg # of iterations =  3.6

     total cpu time spent up to now is       45.0 secs

     total energy              =    -356.57743197 Ry
     estimated scf accuracy    <       0.09988436 Ry

     iteration #  7     ecut=    50.00 Ry     beta= 0.30
     Davidson diagonalization with overlap
     ethr =  2.25E-04,  avg # of iterations =  7.4

     total cpu time spent up to now is       55.2 secs

     total energy              =    -356.65708938 Ry
     estimated scf accuracy    <       0.12987778 Ry

     iteration #  8     ecut=    50.00 Ry     beta= 0.30
     Davidson diagonalization with overlap
     ethr =  2.25E-04,  avg # of iterations =  1.0

     total cpu time spent up to now is       59.0 secs

     total energy              =    -356.63211352 Ry
     estimated scf accuracy    <       0.08166726 Ry

     iteration #  9     ecut=    50.00 Ry     beta= 0.30
     Davidson diagonalization with overlap
     ethr =  2.25E-04,  avg # of iterations =  2.2

     total cpu time spent up to now is       63.5 secs

     total energy              =    -356.63772097 Ry
     estimated scf accuracy    <       0.02096131 Ry

     iteration # 10     ecut=    50.00 Ry     beta= 0.30
     Davidson diagonalization with overlap
     ethr =  5.82E-05,  avg # of iterations =  4.5

     total cpu time spent up to now is       69.2 secs

     total energy              =    -356.64255046 Ry
     estimated scf accuracy    <       0.00542836 Ry

     iteration # 11     ecut=    50.00 Ry     beta= 0.30
     Davidson diagonalization with overlap
     ethr =  1.51E-05,  avg # of iterations =  3.8

     total cpu time spent up to now is       74.8 secs

     total energy              =    -356.64223323 Ry
     estimated scf accuracy    <       0.00232466 Ry

     iteration # 12     ecut=    50.00 Ry     beta= 0.30
     Davidson diagonalization with overlap
     ethr =  6.46E-06,  avg # of iterations =  7.1

     total cpu time spent up to now is       84.0 secs

     total energy              =    -356.64314604 Ry
     estimated scf accuracy    <       0.00172981 Ry

     iteration # 13     ecut=    50.00 Ry     beta= 0.30
     Davidson diagonalization with overlap
     ethr =  4.81E-06,  avg # of iterations =  4.2

     total cpu time spent up to now is       90.1 secs

     total energy              =    -356.64454179 Ry
     estimated scf accuracy    <       0.00012270 Ry

     iteration # 14     ecut=    50.00 Ry     beta= 0.30
     Davidson diagonalization with overlap
     c_bands:  1 eigenvalues not converged
     c_bands:  1 eigenvalues not converged
     c_bands:  1 eigenvalues not converged
     c_bands:  1 eigenvalues not converged
     c_bands:  1 eigenvalues not converged
     ethr =  3.41E-07,  avg # of iterations = 12.4

     total cpu time spent up to now is      107.6 secs

     total energy              =    -356.64115274 Ry
     estimated scf accuracy    <       0.01033231 Ry

     iteration # 15     ecut=    50.00 Ry     beta= 0.30
     Davidson diagonalization with overlap
     c_bands:  1 eigenvalues not converged
     c_bands:  1 eigenvalues not converged
     c_bands:  1 eigenvalues not converged
     c_bands:  1 eigenvalues not converged
     c_bands:  1 eigenvalues not converged
     ethr =  3.41E-07,  avg # of iterations = 13.5

     total cpu time spent up to now is      126.4 secs

     total energy              =    -356.64359725 Ry
     estimated scf accuracy    <       0.00027107 Ry

     iteration # 16     ecut=    50.00 Ry     beta= 0.30
     Davidson diagonalization with overlap
     ethr =  3.41E-07,  avg # of iterations =  5.7

     total cpu time spent up to now is      134.3 secs

     total energy              =    -356.64366384 Ry
     estimated scf accuracy    <       0.00001217 Ry

     iteration # 17     ecut=    50.00 Ry     beta= 0.30
     Davidson diagonalization with overlap
     ethr =  3.38E-08,  avg # of iterations =  6.5

     total cpu time spent up to now is      142.4 secs

     total energy              =    -356.64366635 Ry
     estimated scf accuracy    <       0.00002279 Ry

     iteration # 18     ecut=    50.00 Ry     beta= 0.30
     Davidson diagonalization with overlap
     ethr =  3.38E-08,  avg # of iterations =  2.1

     total cpu time spent up to now is      146.8 secs

     total energy              =    -356.64366074 Ry
     estimated scf accuracy    <       0.00000979 Ry

     iteration # 19     ecut=    50.00 Ry     beta= 0.30
     Davidson diagonalization with overlap
     ethr =  2.72E-08,  avg # of iterations =  6.6

     total cpu time spent up to now is      155.5 secs

     total energy              =    -356.64366691 Ry
     estimated scf accuracy    <       0.00000700 Ry

     iteration # 20     ecut=    50.00 Ry     beta= 0.30
     Davidson diagonalization with overlap
     ethr =  1.94E-08,  avg # of iterations =  1.3

     total cpu time spent up to now is      159.5 secs

     total energy              =    -356.64366624 Ry
     estimated scf accuracy    <       0.00000377 Ry

     iteration # 21     ecut=    50.00 Ry     beta= 0.30
     Davidson diagonalization with overlap
     ethr =  1.05E-08,  avg # of iterations =  2.2

     total cpu time spent up to now is      164.1 secs

     total energy              =    -356.64366607 Ry
     estimated scf accuracy    <       0.00000113 Ry

     iteration # 22     ecut=    50.00 Ry     beta= 0.30
     Davidson diagonalization with overlap
     ethr =  3.13E-09,  avg # of iterations =  6.4

     total cpu time spent up to now is      171.9 secs

     total energy              =    -356.64366665 Ry
     estimated scf accuracy    <       0.00000026 Ry

     iteration # 23     ecut=    50.00 Ry     beta= 0.30
     Davidson diagonalization with overlap
     ethr =  7.18E-10,  avg # of iterations =  3.8

     total cpu time spent up to now is      177.3 secs

     total energy              =    -356.64366668 Ry
     estimated scf accuracy    <       0.00000002 Ry

     iteration # 24     ecut=    50.00 Ry     beta= 0.30
     Davidson diagonalization with overlap
     ethr =  6.45E-11,  avg # of iterations =  8.6

     total cpu time spent up to now is      189.0 secs

     total energy              =    -356.64366670 Ry
     estimated scf accuracy    <       0.00000007 Ry

     iteration # 25     ecut=    50.00 Ry     beta= 0.30
     Davidson diagonalization with overlap
     ethr =  6.45E-11,  avg # of iterations =  6.4

     total cpu time spent up to now is      196.6 secs

     End of self-consistent calculation

     Number of k-points >= 100: set verbosity='high' to print the bands.

     highest occupied level (ev):    14.5861

!    total energy              =    -356.64366671 Ry
     estimated scf accuracy    <          8.5E-10 Ry

     The total energy is the sum of the following terms:
     one-electron contribution =    -196.20155965 Ry
     hartree contribution      =     140.86642629 Ry
     xc contribution           =    -111.58761144 Ry
     ewald contribution        =    -189.72092191 Ry

     convergence has been achieved in  25 iterations

     Forces acting on atoms (cartesian axes, Ry/au):

     atom    1 type  1   force =     6.06494502   -1.86967247    6.43978945
     atom    2 type  1   force =     0.05060024    0.04454036   -0.23230579
     atom    3 type  2   force =    -0.06870003   -1.60546788   -5.44222775
     atom    4 type  2   force =    -6.04684523    3.43059999   -0.76525590
     The non-local contrib.  to forces
     atom    1 type  1   force =    -0.79587037    0.29036917   -1.10983113
     atom    2 type  1   force =     0.21732379    0.03773847    0.68568343
     atom    3 type  2   force =     0.18469598    0.55591062    1.22792061
     atom    4 type  2   force =     1.16512952   -0.87492789   -0.08397472
     The ionic contribution  to forces
     atom    1 type  1   force =    26.77520001   -7.89870359   47.01033098
     atom    2 type  1   force =     1.74024421    1.66935779  -21.52122836
     atom    3 type  2   force =    -0.67156977  -10.81897719  -30.59068299
     atom    4 type  2   force =   -27.84387444   17.04832299    5.10158037
     The local contribution  to forces
     atom    1 type  1   force =   -19.55250752    5.63282468  -39.06004750
     atom    2 type  1   force =    -1.88607026   -1.65293270   20.59290639
     atom    3 type  2   force =     0.41851755    8.65710942   23.91364336
     atom    4 type  2   force =    20.62385726  -12.74027107   -5.78631875
     The core correction contribution to forces
     atom    1 type  1   force =    -0.36190728    0.10582030   -0.40078787
     atom    2 type  1   force =    -0.02089115   -0.00963255    0.01036653
     atom    3 type  2   force =    -0.00035928    0.00049646    0.00688656
     atom    4 type  2   force =     0.00806965   -0.00254668    0.00341274
     The Hubbard contrib.    to forces
     atom    1 type  1   force =     0.00000000    0.00000000    0.00000000
     atom    2 type  1   force =     0.00000000    0.00000000    0.00000000
     atom    3 type  2   force =     0.00000000    0.00000000    0.00000000
     atom    4 type  2   force =     0.00000000    0.00000000    0.00000000
     The SCF correction term to forces
     atom    1 type  1   force =     0.00003443    0.00001904    0.00012062
     atom    2 type  1   force =    -0.00000209    0.00001142   -0.00003814
     atom    3 type  2   force =     0.00001973   -0.00000512    0.00000035
     atom    4 type  2   force =    -0.00002296    0.00002471    0.00004011

     Total force =    12.764313     Total SCF correction =     0.000144

     Writing all to output data dir ./ZnO_ANN.save/

     init_run     :      2.90s CPU      3.00s WALL (       1 calls)
     electrons    :    188.96s CPU    193.16s WALL (       1 calls)
     forces       :      0.86s CPU      0.87s WALL (       1 calls)

     Called by init_run:
     wfcinit      :      2.12s CPU      2.19s WALL (       1 calls)
     potinit      :      0.22s CPU      0.22s WALL (       1 calls)
     hinit0       :      0.50s CPU      0.51s WALL (       1 calls)

     Called by electrons:
     c_bands      :    172.48s CPU    176.21s WALL (      25 calls)
     sum_band     :     14.98s CPU     15.40s WALL (      25 calls)
     v_of_rho     :      0.35s CPU      0.38s WALL (      26 calls)
     newd         :      1.12s CPU      1.14s WALL (      26 calls)
     mix_rho      :      0.05s CPU      0.06s WALL (      25 calls)

     Called by c_bands:
     init_us_2    :      1.03s CPU      1.05s WALL (    5824 calls)
     init_us_2:cp :      1.01s CPU      1.04s WALL (    5824 calls)
     cegterg      :    169.31s CPU    172.96s WALL (    2800 calls)

     Called by *egterg:
     cdiaghg      :     21.22s CPU     21.41s WALL (   17462 calls)
     h_psi        :     99.26s CPU    102.01s WALL (   17574 calls)
     s_psi        :     11.93s CPU     12.03s WALL (   17574 calls)
     g_psi        :      0.33s CPU      0.34s WALL (   14662 calls)

     Called by h_psi:
     h_psi:calbec :     12.27s CPU     12.78s WALL (   17574 calls)
     vloc_psi     :     74.74s CPU     76.86s WALL (   17574 calls)
     add_vuspsi   :     11.93s CPU     12.06s WALL (   17574 calls)

     General routines
     calbec       :     15.74s CPU     16.38s WALL (   20822 calls)
     fft          :      0.48s CPU      0.51s WALL (     347 calls)
     ffts         :      0.11s CPU      0.11s WALL (      51 calls)
     fftw         :     74.49s CPU     76.62s WALL (  444316 calls)
     interpolate  :      0.12s CPU      0.12s WALL (      26 calls)

     Parallel routines

     PWSCF        :   3m13.46s CPU   3m17.90s WALL


   This run was terminated on:  12:39:36  23Jun2025            

=------------------------------------------------------------------------------=
   JOB DONE.
=------------------------------------------------------------------------------=
Note: The following floating-point exceptions are signalling: IEEE_INVALID_FLAG
