
     Program PWSCF v.7.2 starts on 23Jun2025 at 18:24:40 

     This program is part of the open-source Quantum ESPRESSO suite
     for quantum simulation of materials; please cite
         "P. Giannozzi et al., J. Phys.:Condens. Matter 21 395502 (2009);
         "P. Giannozzi et al., J. Phys.:Condens. Matter 29 465901 (2017);
         "P. Giannozzi et al., J. Chem. Phys. 152 154105 (2020);
          URL http://www.quantum-espresso.org", 
     in publications or presentations arising from this work. More details at
     http://www.quantum-espresso.org/quote

     Parallel version (MPI), running on     8 processors

     MPI processes distributed on     1 nodes
     90731 MiB available memory on the printing compute node when the environment starts

     Reading input from /home/jvc/QEspresso7.2/ZnO_DataBase/scfs_rnd025.in/scf-6.80-1.55-2.in

     Current dimensions of program PWSCF are:
     Max number of different atomic species (ntypx) = 10
     Max number of k-points (npk) =  40000
     Max angular momentum in pseudopotentials (lmaxx) =  4
     file Zn.upf: wavefunction(s)  3D renormalized

     R & G space division:  proc/nbgrp/npool/nimage =       8
     Subspace diagonalization in iterative solution of the eigenvalue problem:
     a serial algorithm will be used


     Parallelization info
     --------------------
     sticks:   dense  smooth     PW     G-vecs:    dense   smooth      PW
     Min         159      80     24                 7121     2515     418
     Max         163      82     26                 7122     2518     421
     Sum        1285     649    199                56971    20135    3357

     Using Slab Decomposition



     bravais-lattice index     =            4
     lattice parameter (alat)  =       6.7967  a.u.
     unit-cell volume          =     421.4022 (a.u.)^3
     number of atoms/cell      =            4
     number of atomic types    =            2
     number of electrons       =        36.00
     number of Kohn-Sham states=           18
     kinetic-energy cutoff     =      50.0000  Ry
     charge density cutoff     =     400.0000  Ry
     scf convergence threshold =      1.0E-08
     mixing beta               =       0.3000
     number of iterations used =            8  plain     mixing
     Exchange-correlation= PBE
                           (   1   4   3   4   0   0   0)

     celldm(1)=   6.796704  celldm(2)=   0.000000  celldm(3)=   1.549784
     celldm(4)=   0.000000  celldm(5)=   0.000000  celldm(6)=   0.000000

     crystal axes: (cart. coord. in units of alat)
               a(1) = (   1.000000   0.000000   0.000000 )  
               a(2) = (  -0.500000   0.866025   0.000000 )  
               a(3) = (   0.000000   0.000000   1.549784 )  

     reciprocal axes: (cart. coord. in units 2 pi/alat)
               b(1) = (  1.000000  0.577350 -0.000000 )  
               b(2) = (  0.000000  1.154701  0.000000 )  
               b(3) = (  0.000000 -0.000000  0.645251 )  


     PseudoPot. # 1 for Zn read from file:
     ./pseudos/Zn.upf
     MD5 check sum: 7f56cabf9682ed8c977c2f7d0c5985c5
     Pseudo is Ultrasoft + core correction, Zval = 12.0
     Generated using &quot;atomic&quot; code by A. Dal Corso  v.6.2.2
     Using radial grid of 1201 points,  6 beta functions with: 
                l(1) =   0
                l(2) =   0
                l(3) =   1
                l(4) =   1
                l(5) =   2
                l(6) =   2
     Q(r) pseudized with 0 coefficients 


     PseudoPot. # 2 for O  read from file:
     ./pseudos/O.upf
     MD5 check sum: 91400c9766925bcf19f520983a725ff0
     Pseudo is Ultrasoft + core correction, Zval =  6.0
     Generated using &quot;atomic&quot; code by A. Dal Corso  v.6.3MaX
     Using radial grid of 1095 points,  4 beta functions with: 
                l(1) =   0
                l(2) =   0
                l(3) =   1
                l(4) =   1
     Q(r) pseudized with 0 coefficients 


     atomic species   valence    mass     pseudopotential
        Zn            12.00    63.38000     Zn( 1.00)
        O              6.00    15.99900     O ( 1.00)

     No symmetry found



   Cartesian axes

     site n.     atom                  positions (alat units)
         1           Zn  tau(   1) = (   0.3844705   0.2832036   0.5929402  )
         2           Zn  tau(   2) = (   0.1371564   0.5652624   0.1083618  )
         3           O   tau(   3) = (   0.4609578   0.2244880   1.3811078  )
         4           O   tau(   4) = (  -0.1228314   0.6002241   0.7228625  )

     number of k points=   112

     Number of k-points >= 100: set verbosity='high' to print them.

     Dense  grid:    56971 G-vectors     FFT dimensions: (  45,  45,  72)

     Smooth grid:    20135 G-vectors     FFT dimensions: (  32,  32,  48)

     Estimated max dynamical RAM per process >      38.31 MB

     Estimated total dynamical RAM >     306.46 MB

     Check: negative core charge=   -0.000003

     Initial potential from superposition of free atoms

     starting charge      35.9925, renormalised to      36.0000
     Starting wfcs are   26 randomized atomic wfcs

     total cpu time spent up to now is        4.4 secs

     Self-consistent Calculation

     iteration #  1     ecut=    50.00 Ry     beta= 0.30
     Davidson diagonalization with overlap
     ethr =  1.00E-02,  avg # of iterations =  1.2

     total cpu time spent up to now is        9.6 secs

     total energy              =    -361.09359556 Ry
     estimated scf accuracy    <       0.93615874 Ry

     iteration #  2     ecut=    50.00 Ry     beta= 0.30
     Davidson diagonalization with overlap
     ethr =  2.60E-03,  avg # of iterations =  3.5

     total cpu time spent up to now is       16.5 secs

     total energy              =    -361.33363592 Ry
     estimated scf accuracy    <       0.04993912 Ry

     iteration #  3     ecut=    50.00 Ry     beta= 0.30
     Davidson diagonalization with overlap
     ethr =  1.39E-04,  avg # of iterations =  8.5

     total cpu time spent up to now is       29.1 secs

     total energy              =    -361.31925576 Ry
     estimated scf accuracy    <       0.14572011 Ry

     iteration #  4     ecut=    50.00 Ry     beta= 0.30
     Davidson diagonalization with overlap
     ethr =  1.39E-04,  avg # of iterations =  9.4

     total cpu time spent up to now is       44.0 secs

     total energy              =    -361.40037349 Ry
     estimated scf accuracy    <       0.22391343 Ry

     iteration #  5     ecut=    50.00 Ry     beta= 0.30
     Davidson diagonalization with overlap
     ethr =  1.39E-04,  avg # of iterations =  1.0

     total cpu time spent up to now is       49.1 secs

     total energy              =    -361.31909125 Ry
     estimated scf accuracy    <       0.16974150 Ry

     iteration #  6     ecut=    50.00 Ry     beta= 0.30
     Davidson diagonalization with overlap
     c_bands:  1 eigenvalues not converged
     ethr =  1.39E-04,  avg # of iterations =  9.4

     total cpu time spent up to now is       60.5 secs

     total energy              =    -361.38852800 Ry
     estimated scf accuracy    <       0.10193901 Ry

     iteration #  7     ecut=    50.00 Ry     beta= 0.30
     Davidson diagonalization with overlap
     ethr =  1.39E-04,  avg # of iterations =  1.1

     total cpu time spent up to now is       65.7 secs

     total energy              =    -361.34858829 Ry
     estimated scf accuracy    <       0.08275417 Ry

     iteration #  8     ecut=    50.00 Ry     beta= 0.30
     Davidson diagonalization with overlap
     ethr =  1.39E-04,  avg # of iterations =  8.3

     total cpu time spent up to now is       76.5 secs

     total energy              =    -361.38999864 Ry
     estimated scf accuracy    <       0.06168958 Ry

     iteration #  9     ecut=    50.00 Ry     beta= 0.30
     Davidson diagonalization with overlap
     ethr =  1.39E-04,  avg # of iterations =  1.0

     total cpu time spent up to now is       81.6 secs

     total energy              =    -361.37401217 Ry
     estimated scf accuracy    <       0.05779024 Ry

     iteration # 10     ecut=    50.00 Ry     beta= 0.30
     Davidson diagonalization with overlap
     ethr =  1.39E-04,  avg # of iterations =  2.7

     total cpu time spent up to now is       87.5 secs

     total energy              =    -361.37164793 Ry
     estimated scf accuracy    <       0.01890762 Ry

     iteration # 11     ecut=    50.00 Ry     beta= 0.30
     Davidson diagonalization with overlap
     ethr =  5.25E-05,  avg # of iterations =  7.3

     total cpu time spent up to now is       96.4 secs

     total energy              =    -361.38079982 Ry
     estimated scf accuracy    <       0.01572684 Ry

     iteration # 12     ecut=    50.00 Ry     beta= 0.30
     Davidson diagonalization with overlap
     ethr =  4.37E-05,  avg # of iterations =  1.0

     total cpu time spent up to now is      101.6 secs

     total energy              =    -361.37819715 Ry
     estimated scf accuracy    <       0.01241558 Ry

     iteration # 13     ecut=    50.00 Ry     beta= 0.30
     Davidson diagonalization with overlap
     ethr =  3.45E-05,  avg # of iterations =  3.8

     total cpu time spent up to now is      108.1 secs

     total energy              =    -361.37972140 Ry
     estimated scf accuracy    <       0.00091403 Ry

     iteration # 14     ecut=    50.00 Ry     beta= 0.30
     Davidson diagonalization with overlap
     ethr =  2.54E-06,  avg # of iterations =  8.0

     total cpu time spent up to now is      117.7 secs

     total energy              =    -361.38068067 Ry
     estimated scf accuracy    <       0.00066125 Ry

     iteration # 15     ecut=    50.00 Ry     beta= 0.30
     Davidson diagonalization with overlap
     ethr =  1.84E-06,  avg # of iterations =  3.9

     total cpu time spent up to now is      123.9 secs

     total energy              =    -361.38044317 Ry
     estimated scf accuracy    <       0.00169518 Ry

     iteration # 16     ecut=    50.00 Ry     beta= 0.30
     Davidson diagonalization with overlap
     ethr =  1.84E-06,  avg # of iterations =  1.4

     total cpu time spent up to now is      129.1 secs

     total energy              =    -361.37997712 Ry
     estimated scf accuracy    <       0.00120303 Ry

     iteration # 17     ecut=    50.00 Ry     beta= 0.30
     Davidson diagonalization with overlap
     ethr =  1.84E-06,  avg # of iterations =  7.6

     total cpu time spent up to now is      138.4 secs

     total energy              =    -361.38037960 Ry
     estimated scf accuracy    <       0.00073398 Ry

     iteration # 18     ecut=    50.00 Ry     beta= 0.30
     Davidson diagonalization with overlap
     ethr =  1.84E-06,  avg # of iterations =  1.1

     total cpu time spent up to now is      143.4 secs

     total energy              =    -361.38039070 Ry
     estimated scf accuracy    <       0.00049018 Ry

     iteration # 19     ecut=    50.00 Ry     beta= 0.30
     Davidson diagonalization with overlap
     ethr =  1.36E-06,  avg # of iterations =  1.0

     total cpu time spent up to now is      148.3 secs

     total energy              =    -361.38018854 Ry
     estimated scf accuracy    <       0.00046600 Ry

     iteration # 20     ecut=    50.00 Ry     beta= 0.30
     Davidson diagonalization with overlap
     ethr =  1.29E-06,  avg # of iterations =  6.6

     total cpu time spent up to now is      157.1 secs

     total energy              =    -361.38031173 Ry
     estimated scf accuracy    <       0.00046616 Ry

     iteration # 21     ecut=    50.00 Ry     beta= 0.30
     Davidson diagonalization with overlap
     ethr =  1.29E-06,  avg # of iterations =  2.0

     total cpu time spent up to now is      162.6 secs

     total energy              =    -361.38033283 Ry
     estimated scf accuracy    <       0.00016845 Ry

     iteration # 22     ecut=    50.00 Ry     beta= 0.30
     Davidson diagonalization with overlap
     ethr =  4.68E-07,  avg # of iterations =  6.4

     total cpu time spent up to now is      170.4 secs

     total energy              =    -361.38038150 Ry
     estimated scf accuracy    <       0.00001678 Ry

     iteration # 23     ecut=    50.00 Ry     beta= 0.30
     Davidson diagonalization with overlap
     ethr =  4.66E-08,  avg # of iterations =  8.1

     total cpu time spent up to now is      180.7 secs

     total energy              =    -361.38038327 Ry
     estimated scf accuracy    <       0.00010357 Ry

     iteration # 24     ecut=    50.00 Ry     beta= 0.30
     Davidson diagonalization with overlap
     ethr =  4.66E-08,  avg # of iterations =  5.0

     total cpu time spent up to now is      187.3 secs

     total energy              =    -361.38037867 Ry
     estimated scf accuracy    <       0.00004616 Ry

     iteration # 25     ecut=    50.00 Ry     beta= 0.30
     Davidson diagonalization with overlap
     ethr =  4.66E-08,  avg # of iterations =  6.0

     total cpu time spent up to now is      194.7 secs

     total energy              =    -361.38038468 Ry
     estimated scf accuracy    <       0.00000601 Ry

     iteration # 26     ecut=    50.00 Ry     beta= 0.30
     Davidson diagonalization with overlap
     ethr =  1.67E-08,  avg # of iterations =  2.0

     total cpu time spent up to now is      200.2 secs

     total energy              =    -361.38038581 Ry
     estimated scf accuracy    <       0.00000800 Ry

     iteration # 27     ecut=    50.00 Ry     beta= 0.30
     Davidson diagonalization with overlap
     ethr =  1.67E-08,  avg # of iterations =  4.6

     total cpu time spent up to now is      206.5 secs

     total energy              =    -361.38038698 Ry
     estimated scf accuracy    <       0.00001755 Ry

     iteration # 28     ecut=    50.00 Ry     beta= 0.30
     Davidson diagonalization with overlap
     ethr =  1.67E-08,  avg # of iterations =  1.6

     total cpu time spent up to now is      211.7 secs

     total energy              =    -361.38038394 Ry
     estimated scf accuracy    <       0.00001985 Ry

     iteration # 29     ecut=    50.00 Ry     beta= 0.30
     Davidson diagonalization with overlap
     ethr =  1.67E-08,  avg # of iterations =  1.6

     total cpu time spent up to now is      217.0 secs

     total energy              =    -361.38038271 Ry
     estimated scf accuracy    <       0.00001371 Ry

     iteration # 30     ecut=    50.00 Ry     beta= 0.30
     Davidson diagonalization with overlap
     ethr =  1.67E-08,  avg # of iterations =  2.6

     total cpu time spent up to now is      222.8 secs

     total energy              =    -361.38038155 Ry
     estimated scf accuracy    <       0.00000714 Ry

     iteration # 31     ecut=    50.00 Ry     beta= 0.30
     Davidson diagonalization with overlap
     ethr =  1.67E-08,  avg # of iterations =  5.8

     total cpu time spent up to now is      230.3 secs

     total energy              =    -361.38038333 Ry
     estimated scf accuracy    <       0.00000021 Ry

     iteration # 32     ecut=    50.00 Ry     beta= 0.30
     Davidson diagonalization with overlap
     c_bands:  2 eigenvalues not converged
     c_bands:  1 eigenvalues not converged
     ethr =  5.83E-10,  avg # of iterations =  7.6

     total cpu time spent up to now is      240.2 secs

     total energy              =    -361.38038354 Ry
     estimated scf accuracy    <       0.00000009 Ry

     iteration # 33     ecut=    50.00 Ry     beta= 0.30
     Davidson diagonalization with overlap
     c_bands:  1 eigenvalues not converged
     ethr =  2.61E-10,  avg # of iterations =  5.8

     total cpu time spent up to now is      248.6 secs

     total energy              =    -361.38038352 Ry
     estimated scf accuracy    <       0.00000013 Ry

     iteration # 34     ecut=    50.00 Ry     beta= 0.30
     Davidson diagonalization with overlap
     c_bands:  2 eigenvalues not converged
     ethr =  2.61E-10,  avg # of iterations = 12.0

     total cpu time spent up to now is      261.2 secs

     total energy              =    -361.38038363 Ry
     estimated scf accuracy    <       0.00000164 Ry

     iteration # 35     ecut=    50.00 Ry     beta= 0.30
     Davidson diagonalization with overlap
     ethr =  2.61E-10,  avg # of iterations =  4.9

     total cpu time spent up to now is      267.5 secs

     total energy              =    -361.38038355 Ry
     estimated scf accuracy    <       0.00000112 Ry

     iteration # 36     ecut=    50.00 Ry     beta= 0.30
     Davidson diagonalization with overlap
     ethr =  2.61E-10,  avg # of iterations =  7.2

     total cpu time spent up to now is      276.6 secs

     total energy              =    -361.38038346 Ry
     estimated scf accuracy    <       0.00000042 Ry

     iteration # 37     ecut=    50.00 Ry     beta= 0.30
     Davidson diagonalization with overlap
     c_bands:  1 eigenvalues not converged
     ethr =  2.61E-10,  avg # of iterations =  9.0

     total cpu time spent up to now is      287.0 secs

     total energy              =    -361.38038356 Ry
     estimated scf accuracy    <       0.00000008 Ry

     iteration # 38     ecut=    50.00 Ry     beta= 0.30
     Davidson diagonalization with overlap
     ethr =  2.12E-10,  avg # of iterations =  1.2

     total cpu time spent up to now is      292.1 secs

     total energy              =    -361.38038355 Ry
     estimated scf accuracy    <       0.00000007 Ry

     iteration # 39     ecut=    50.00 Ry     beta= 0.30
     Davidson diagonalization with overlap
     ethr =  1.99E-10,  avg # of iterations =  1.6

     total cpu time spent up to now is      297.3 secs

     total energy              =    -361.38038354 Ry
     estimated scf accuracy    <       0.00000004 Ry

     iteration # 40     ecut=    50.00 Ry     beta= 0.30
     Davidson diagonalization with overlap
     ethr =  1.14E-10,  avg # of iterations =  5.8

     total cpu time spent up to now is      304.2 secs

     End of self-consistent calculation

     Number of k-points >= 100: set verbosity='high' to print the bands.

     highest occupied level (ev):     4.0545

!    total energy              =    -361.38038354 Ry
     estimated scf accuracy    <          2.0E-09 Ry

     The total energy is the sum of the following terms:
     one-electron contribution =    -198.21625114 Ry
     hartree contribution      =     135.44040393 Ry
     xc contribution           =    -108.96289185 Ry
     ewald contribution        =    -189.64164448 Ry

     convergence has been achieved in  40 iterations

     Forces acting on atoms (cartesian axes, Ry/au):

     atom    1 type  1   force =     0.04052491   -0.03101705    0.12276649
     atom    2 type  1   force =    -0.05602899    0.05399962   -0.14069521
     atom    3 type  2   force =     0.00043957   -0.01023954    0.10343342
     atom    4 type  2   force =     0.01506450   -0.01274303   -0.08550470
     The non-local contrib.  to forces
     atom    1 type  1   force =    -0.03093288    0.13606065   -0.14117688
     atom    2 type  1   force =    -0.20737215    0.15678279    0.35434875
     atom    3 type  2   force =    -0.29377815    0.09997037    0.95542027
     atom    4 type  2   force =     0.06903918    0.10760126   -0.97783206
     The ionic contribution  to forces
     atom    1 type  1   force =     1.81993475   -1.16707451   10.93602570
     atom    2 type  1   force =    -3.11532980    3.16151022  -11.69308187
     atom    3 type  2   force =     2.08710232   -1.07242640   -7.92506273
     atom    4 type  2   force =    -0.79170727   -0.92200930    8.68211890
     The local contribution  to forces
     atom    1 type  1   force =    -1.74696935    1.00621172  -10.67277983
     atom    2 type  1   force =     3.25228067   -3.25243127   11.20800371
     atom    3 type  2   force =    -1.79556237    0.96301478    7.08250833
     atom    4 type  2   force =     0.73846785    0.80249975   -7.79923667
     The core correction contribution to forces
     atom    1 type  1   force =    -0.00150758   -0.00622582    0.00073211
     atom    2 type  1   force =     0.01439753   -0.01186527   -0.01002148
     atom    3 type  2   force =     0.00267857   -0.00078995   -0.00943905
     atom    4 type  2   force =    -0.00074121   -0.00083116    0.00948644
     The Hubbard contrib.    to forces
     atom    1 type  1   force =     0.00000000    0.00000000    0.00000000
     atom    2 type  1   force =     0.00000000    0.00000000    0.00000000
     atom    3 type  2   force =     0.00000000    0.00000000    0.00000000
     atom    4 type  2   force =     0.00000000    0.00000000    0.00000000
     The SCF correction term to forces
     atom    1 type  1   force =    -0.00000269    0.00001324   -0.00002785
     atom    2 type  1   force =    -0.00000791    0.00000547    0.00006244
     atom    3 type  2   force =    -0.00000348   -0.00000601    0.00001335
     atom    4 type  2   force =     0.00000329   -0.00000126   -0.00003455

     Total force =     0.249059     Total SCF correction =     0.000080

     Writing all to output data dir ./ZnO_ANN.save/

     init_run     :      3.78s CPU      3.90s WALL (       1 calls)
     electrons    :    294.80s CPU    299.86s WALL (       1 calls)
     forces       :      1.27s CPU      1.28s WALL (       1 calls)

     Called by init_run:
     wfcinit      :      2.81s CPU      2.89s WALL (       1 calls)
     potinit      :      0.33s CPU      0.34s WALL (       1 calls)
     hinit0       :      0.54s CPU      0.55s WALL (       1 calls)

     Called by electrons:
     c_bands      :    259.40s CPU    263.68s WALL (      40 calls)
     sum_band     :     31.49s CPU     32.17s WALL (      40 calls)
     v_of_rho     :      0.82s CPU      0.87s WALL (      41 calls)
     newd         :      2.95s CPU      2.99s WALL (      41 calls)
     mix_rho      :      0.13s CPU      0.15s WALL (      40 calls)

     Called by c_bands:
     init_us_2    :      2.54s CPU      2.58s WALL (    9184 calls)
     init_us_2:cp :      2.50s CPU      2.55s WALL (    9184 calls)
     cegterg      :    251.02s CPU    255.19s WALL (    4480 calls)

     Called by *egterg:
     cdiaghg      :     26.39s CPU     26.62s WALL (   25603 calls)
     h_psi        :    139.61s CPU    142.79s WALL (   25715 calls)
     s_psi        :     19.44s CPU     19.58s WALL (   25715 calls)
     g_psi        :      0.55s CPU      0.56s WALL (   21123 calls)

     Called by h_psi:
     h_psi:calbec :     22.85s CPU     23.53s WALL (   25715 calls)
     vloc_psi     :     96.69s CPU     99.02s WALL (   25715 calls)
     add_vuspsi   :     19.55s CPU     19.73s WALL (   25715 calls)

     General routines
     calbec       :     31.37s CPU     32.25s WALL (   30643 calls)
     fft          :      0.88s CPU      0.97s WALL (     542 calls)
     ffts         :      0.17s CPU      0.17s WALL (      81 calls)
     fftw         :     98.09s CPU    100.44s WALL (  538616 calls)
     interpolate  :      0.20s CPU      0.21s WALL (      41 calls)

     Parallel routines

     PWSCF        :   5m 0.58s CPU   5m 6.12s WALL


   This run was terminated on:  18:29:46  23Jun2025            

=------------------------------------------------------------------------------=
   JOB DONE.
=------------------------------------------------------------------------------=
Note: The following floating-point exceptions are signalling: IEEE_INVALID_FLAG
