
     Program PWSCF v.7.2 starts on 23Jun2025 at 17:10:11 

     This program is part of the open-source Quantum ESPRESSO suite
     for quantum simulation of materials; please cite
         "P. Giannozzi et al., J. Phys.:Condens. Matter 21 395502 (2009);
         "P. Giannozzi et al., J. Phys.:Condens. Matter 29 465901 (2017);
         "P. Giannozzi et al., J. Chem. Phys. 152 154105 (2020);
          URL http://www.quantum-espresso.org", 
     in publications or presentations arising from this work. More details at
     http://www.quantum-espresso.org/quote

     Parallel version (MPI), running on     8 processors

     MPI processes distributed on     1 nodes
     91122 MiB available memory on the printing compute node when the environment starts

     Reading input from /home/jvc/QEspresso7.2/ZnO_DataBase/scfs_rnd025.in/scf-6.55-1.74-2.in

     Current dimensions of program PWSCF are:
     Max number of different atomic species (ntypx) = 10
     Max number of k-points (npk) =  40000
     Max angular momentum in pseudopotentials (lmaxx) =  4
     file Zn.upf: wavefunction(s)  3D renormalized

     R & G space division:  proc/nbgrp/npool/nimage =       8
     Subspace diagonalization in iterative solution of the eigenvalue problem:
     a serial algorithm will be used


     Parallelization info
     --------------------
     sticks:   dense  smooth     PW     G-vecs:    dense   smooth      PW
     Min         147      72     22                 7149     2528     418
     Max         148      73     24                 7151     2537     420
     Sum        1177     583    187                57205    20277    3347

     Using Slab Decomposition



     bravais-lattice index     =            4
     lattice parameter (alat)  =       6.5496  a.u.
     unit-cell volume          =     424.2178 (a.u.)^3
     number of atoms/cell      =            4
     number of atomic types    =            2
     number of electrons       =        36.00
     number of Kohn-Sham states=           18
     kinetic-energy cutoff     =      50.0000  Ry
     charge density cutoff     =     400.0000  Ry
     scf convergence threshold =      1.0E-08
     mixing beta               =       0.3000
     number of iterations used =            8  plain     mixing
     Exchange-correlation= PBE
                           (   1   4   3   4   0   0   0)

     celldm(1)=   6.549551  celldm(2)=   0.000000  celldm(3)=   1.743507
     celldm(4)=   0.000000  celldm(5)=   0.000000  celldm(6)=   0.000000

     crystal axes: (cart. coord. in units of alat)
               a(1) = (   1.000000   0.000000   0.000000 )  
               a(2) = (  -0.500000   0.866025   0.000000 )  
               a(3) = (   0.000000   0.000000   1.743507 )  

     reciprocal axes: (cart. coord. in units 2 pi/alat)
               b(1) = (  1.000000  0.577350 -0.000000 )  
               b(2) = (  0.000000  1.154701  0.000000 )  
               b(3) = (  0.000000 -0.000000  0.573557 )  


     PseudoPot. # 1 for Zn read from file:
     ./pseudos/Zn.upf
     MD5 check sum: 7f56cabf9682ed8c977c2f7d0c5985c5
     Pseudo is Ultrasoft + core correction, Zval = 12.0
     Generated using &quot;atomic&quot; code by A. Dal Corso  v.6.2.2
     Using radial grid of 1201 points,  6 beta functions with: 
                l(1) =   0
                l(2) =   0
                l(3) =   1
                l(4) =   1
                l(5) =   2
                l(6) =   2
     Q(r) pseudized with 0 coefficients 


     PseudoPot. # 2 for O  read from file:
     ./pseudos/O.upf
     MD5 check sum: 91400c9766925bcf19f520983a725ff0
     Pseudo is Ultrasoft + core correction, Zval =  6.0
     Generated using &quot;atomic&quot; code by A. Dal Corso  v.6.3MaX
     Using radial grid of 1095 points,  4 beta functions with: 
                l(1) =   0
                l(2) =   0
                l(3) =   1
                l(4) =   1
     Q(r) pseudized with 0 coefficients 


     atomic species   valence    mass     pseudopotential
        Zn            12.00    63.38000     Zn( 1.00)
        O              6.00    15.99900     O ( 1.00)

     No symmetry found



   Cartesian axes

     site n.     atom                  positions (alat units)
         1           Zn  tau(   1) = (   0.5706973   0.3505476   1.2518303  )
         2           Zn  tau(   2) = (   0.2305017   0.5455883   0.1048495  )
         3           O   tau(   3) = (   0.4908448   0.4940647   1.3728673  )
         4           O   tau(   4) = (   0.0063033   0.5363760   0.6986985  )

     number of k points=   112

     Number of k-points >= 100: set verbosity='high' to print them.

     Dense  grid:    57205 G-vectors     FFT dimensions: (  45,  45,  75)

     Smooth grid:    20277 G-vectors     FFT dimensions: (  30,  30,  54)

     Estimated max dynamical RAM per process >      38.61 MB

     Estimated total dynamical RAM >     308.88 MB

     Check: negative core charge=   -0.000002

     Initial potential from superposition of free atoms

     starting charge      35.9925, renormalised to      36.0000
     Starting wfcs are   26 randomized atomic wfcs

     total cpu time spent up to now is        4.7 secs

     Self-consistent Calculation

     iteration #  1     ecut=    50.00 Ry     beta= 0.30
     Davidson diagonalization with overlap
     ethr =  1.00E-02,  avg # of iterations =  5.2

     total cpu time spent up to now is       14.9 secs

     total energy              =    -348.56897161 Ry
     estimated scf accuracy    <       1.60852610 Ry

     iteration #  2     ecut=    50.00 Ry     beta= 0.30
     Davidson diagonalization with overlap
     ethr =  4.47E-03,  avg # of iterations =  8.5

     total cpu time spent up to now is       24.2 secs

     total energy              =    -348.77342681 Ry
     estimated scf accuracy    <       0.87092464 Ry

     iteration #  3     ecut=    50.00 Ry     beta= 0.30
     Davidson diagonalization with overlap
     ethr =  2.42E-03,  avg # of iterations =  1.7

     total cpu time spent up to now is       30.3 secs

     total energy              =    -348.56266429 Ry
     estimated scf accuracy    <       0.41611168 Ry

     iteration #  4     ecut=    50.00 Ry     beta= 0.30
     Davidson diagonalization with overlap
     ethr =  1.16E-03,  avg # of iterations =  9.1

     total cpu time spent up to now is       44.2 secs

     total energy              =    -348.88998965 Ry
     estimated scf accuracy    <       1.81544750 Ry

     iteration #  5     ecut=    50.00 Ry     beta= 0.30
     Davidson diagonalization with overlap
     ethr =  1.16E-03,  avg # of iterations =  3.1

     total cpu time spent up to now is       51.3 secs

     total energy              =    -348.56012202 Ry
     estimated scf accuracy    <       0.92101364 Ry

     iteration #  6     ecut=    50.00 Ry     beta= 0.30
     Davidson diagonalization with overlap
     ethr =  1.16E-03,  avg # of iterations =  8.5

     total cpu time spent up to now is       61.8 secs

     total energy              =    -348.89220080 Ry
     estimated scf accuracy    <       1.21960457 Ry

     iteration #  7     ecut=    50.00 Ry     beta= 0.30
     Davidson diagonalization with overlap
     ethr =  1.16E-03,  avg # of iterations =  1.0

     total cpu time spent up to now is       67.5 secs

     total energy              =    -348.60690489 Ry
     estimated scf accuracy    <       0.99735705 Ry

     iteration #  8     ecut=    50.00 Ry     beta= 0.30
     Davidson diagonalization with overlap
     ethr =  1.16E-03,  avg # of iterations =  7.9

     total cpu time spent up to now is       77.6 secs

     total energy              =    -348.93502462 Ry
     estimated scf accuracy    <       0.31129217 Ry

     iteration #  9     ecut=    50.00 Ry     beta= 0.30
     Davidson diagonalization with overlap
     ethr =  8.65E-04,  avg # of iterations =  1.0

     total cpu time spent up to now is       83.4 secs

     total energy              =    -348.92201060 Ry
     estimated scf accuracy    <       0.31655709 Ry

     iteration # 10     ecut=    50.00 Ry     beta= 0.30
     Davidson diagonalization with overlap
     ethr =  8.65E-04,  avg # of iterations =  1.0

     total cpu time spent up to now is       89.2 secs

     total energy              =    -348.84902602 Ry
     estimated scf accuracy    <       0.29380998 Ry

     iteration # 11     ecut=    50.00 Ry     beta= 0.30
     Davidson diagonalization with overlap
     ethr =  8.16E-04,  avg # of iterations =  2.0

     total cpu time spent up to now is       95.5 secs

     total energy              =    -348.85478265 Ry
     estimated scf accuracy    <       0.13442806 Ry

     iteration # 12     ecut=    50.00 Ry     beta= 0.30
     Davidson diagonalization with overlap
     ethr =  3.73E-04,  avg # of iterations =  5.6

     total cpu time spent up to now is      102.9 secs

     total energy              =    -348.87121741 Ry
     estimated scf accuracy    <       0.03122946 Ry

     iteration # 13     ecut=    50.00 Ry     beta= 0.30
     Davidson diagonalization with overlap
     ethr =  8.67E-05,  avg # of iterations =  5.9

     total cpu time spent up to now is      110.7 secs

     total energy              =    -348.87768481 Ry
     estimated scf accuracy    <       0.01113913 Ry

     iteration # 14     ecut=    50.00 Ry     beta= 0.30
     Davidson diagonalization with overlap
     ethr =  3.09E-05,  avg # of iterations =  2.4

     total cpu time spent up to now is      117.3 secs

     total energy              =    -348.88205242 Ry
     estimated scf accuracy    <       0.01123227 Ry

     iteration # 15     ecut=    50.00 Ry     beta= 0.30
     Davidson diagonalization with overlap
     ethr =  3.09E-05,  avg # of iterations =  6.7

     total cpu time spent up to now is      125.1 secs

     total energy              =    -348.87554268 Ry
     estimated scf accuracy    <       0.03939196 Ry

     iteration # 16     ecut=    50.00 Ry     beta= 0.30
     Davidson diagonalization with overlap
     ethr =  3.09E-05,  avg # of iterations =  6.9

     total cpu time spent up to now is      133.4 secs

     total energy              =    -348.88449397 Ry
     estimated scf accuracy    <       0.00882767 Ry

     iteration # 17     ecut=    50.00 Ry     beta= 0.30
     Davidson diagonalization with overlap
     c_bands:  2 eigenvalues not converged
     c_bands:  2 eigenvalues not converged
     c_bands:  2 eigenvalues not converged
     c_bands:  2 eigenvalues not converged
     c_bands:  2 eigenvalues not converged
     c_bands:  2 eigenvalues not converged
     c_bands:  1 eigenvalues not converged
     c_bands:  1 eigenvalues not converged
     c_bands:  1 eigenvalues not converged
     c_bands:  3 eigenvalues not converged
     c_bands:  3 eigenvalues not converged
     c_bands:  1 eigenvalues not converged
     c_bands:  1 eigenvalues not converged
     c_bands:  2 eigenvalues not converged
     c_bands:  1 eigenvalues not converged
     c_bands:  2 eigenvalues not converged
     c_bands:  2 eigenvalues not converged
     c_bands:  2 eigenvalues not converged
     c_bands:  1 eigenvalues not converged
     c_bands:  1 eigenvalues not converged
     c_bands:  1 eigenvalues not converged
     c_bands:  1 eigenvalues not converged
     c_bands:  2 eigenvalues not converged
     c_bands:  2 eigenvalues not converged
     c_bands:  2 eigenvalues not converged
     c_bands:  2 eigenvalues not converged
     c_bands:  2 eigenvalues not converged
     c_bands:  1 eigenvalues not converged
     c_bands:  2 eigenvalues not converged
     c_bands:  2 eigenvalues not converged
     c_bands:  2 eigenvalues not converged
     c_bands:  2 eigenvalues not converged
     c_bands:  2 eigenvalues not converged
     c_bands:  2 eigenvalues not converged
     c_bands:  2 eigenvalues not converged
     c_bands:  2 eigenvalues not converged
     c_bands:  2 eigenvalues not converged
     c_bands:  1 eigenvalues not converged
     c_bands:  1 eigenvalues not converged
     c_bands:  3 eigenvalues not converged
     c_bands:  1 eigenvalues not converged
     c_bands:  1 eigenvalues not converged
     c_bands:  2 eigenvalues not converged
     c_bands:  2 eigenvalues not converged
     c_bands:  2 eigenvalues not converged
     c_bands:  1 eigenvalues not converged
     c_bands:  2 eigenvalues not converged
     c_bands:  3 eigenvalues not converged
     c_bands:  2 eigenvalues not converged
     c_bands:  1 eigenvalues not converged
     c_bands:  2 eigenvalues not converged
     c_bands:  1 eigenvalues not converged
     c_bands:  1 eigenvalues not converged
     c_bands:  1 eigenvalues not converged
     c_bands:  1 eigenvalues not converged
     c_bands:  1 eigenvalues not converged
     c_bands:  1 eigenvalues not converged
     c_bands:  1 eigenvalues not converged
     c_bands:  1 eigenvalues not converged
     c_bands:  1 eigenvalues not converged
     c_bands:  2 eigenvalues not converged
     c_bands:  2 eigenvalues not converged
     c_bands:  2 eigenvalues not converged
     c_bands:  1 eigenvalues not converged
     c_bands:  2 eigenvalues not converged
     c_bands:  2 eigenvalues not converged
     c_bands:  2 eigenvalues not converged
     c_bands:  2 eigenvalues not converged
     c_bands:  1 eigenvalues not converged
     c_bands:  2 eigenvalues not converged
     c_bands:  2 eigenvalues not converged
     c_bands:  2 eigenvalues not converged
     c_bands:  2 eigenvalues not converged
     c_bands:  2 eigenvalues not converged
     c_bands:  1 eigenvalues not converged
     c_bands:  1 eigenvalues not converged
     c_bands:  2 eigenvalues not converged
     c_bands:  1 eigenvalues not converged
     c_bands:  2 eigenvalues not converged
     c_bands:  1 eigenvalues not converged
     c_bands:  2 eigenvalues not converged
     c_bands:  1 eigenvalues not converged
     c_bands:  3 eigenvalues not converged
     c_bands:  1 eigenvalues not converged
     c_bands:  1 eigenvalues not converged
     c_bands:  1 eigenvalues not converged
     c_bands:  1 eigenvalues not converged
     c_bands:  1 eigenvalues not converged
     c_bands:  1 eigenvalues not converged
     c_bands:  1 eigenvalues not converged
     c_bands:  1 eigenvalues not converged
     c_bands:  1 eigenvalues not converged
     c_bands:  1 eigenvalues not converged
     c_bands:  2 eigenvalues not converged
     c_bands:  1 eigenvalues not converged
     c_bands:  1 eigenvalues not converged
     c_bands:  1 eigenvalues not converged
     c_bands:  1 eigenvalues not converged
     c_bands:  1 eigenvalues not converged
     c_bands:  1 eigenvalues not converged
     c_bands:  1 eigenvalues not converged
     c_bands:  1 eigenvalues not converged
     c_bands:  2 eigenvalues not converged
     ethr =  2.45E-05,  avg # of iterations = 19.8

     total cpu time spent up to now is      154.1 secs

     total energy              =    -348.60393398 Ry
     estimated scf accuracy    <       3.08382044 Ry

     iteration # 18     ecut=    50.00 Ry     beta= 0.30
     Davidson diagonalization with overlap
     c_bands:  2 eigenvalues not converged
     c_bands:  1 eigenvalues not converged
     c_bands:  1 eigenvalues not converged
     c_bands:  2 eigenvalues not converged
     c_bands:  2 eigenvalues not converged
     c_bands:  2 eigenvalues not converged
     c_bands:  1 eigenvalues not converged
     c_bands:  1 eigenvalues not converged
     c_bands:  1 eigenvalues not converged
     c_bands:  1 eigenvalues not converged
     c_bands:  1 eigenvalues not converged
     c_bands:  2 eigenvalues not converged
     c_bands:  1 eigenvalues not converged
     c_bands:  1 eigenvalues not converged
     c_bands:  2 eigenvalues not converged
     c_bands:  2 eigenvalues not converged
     c_bands:  1 eigenvalues not converged
     c_bands:  1 eigenvalues not converged
     c_bands:  2 eigenvalues not converged
     c_bands:  1 eigenvalues not converged
     c_bands:  1 eigenvalues not converged
     c_bands:  2 eigenvalues not converged
     c_bands:  1 eigenvalues not converged
     c_bands:  3 eigenvalues not converged
     c_bands:  2 eigenvalues not converged
     c_bands:  1 eigenvalues not converged
     c_bands:  2 eigenvalues not converged
     c_bands:  2 eigenvalues not converged
     c_bands:  2 eigenvalues not converged
     c_bands:  1 eigenvalues not converged
     c_bands:  1 eigenvalues not converged
     c_bands:  1 eigenvalues not converged
     c_bands:  3 eigenvalues not converged
     c_bands:  1 eigenvalues not converged
     c_bands:  2 eigenvalues not converged
     c_bands:  1 eigenvalues not converged
     c_bands:  1 eigenvalues not converged
     c_bands:  1 eigenvalues not converged
     c_bands:  1 eigenvalues not converged
     c_bands:  2 eigenvalues not converged
     c_bands:  2 eigenvalues not converged
     c_bands:  1 eigenvalues not converged
     c_bands:  2 eigenvalues not converged
     c_bands:  2 eigenvalues not converged
     c_bands:  1 eigenvalues not converged
     c_bands:  1 eigenvalues not converged
     c_bands:  1 eigenvalues not converged
     c_bands:  2 eigenvalues not converged
     c_bands:  1 eigenvalues not converged
     c_bands:  2 eigenvalues not converged
     c_bands:  1 eigenvalues not converged
     c_bands:  2 eigenvalues not converged
     c_bands:  1 eigenvalues not converged
     c_bands:  2 eigenvalues not converged
     c_bands:  1 eigenvalues not converged
     c_bands:  2 eigenvalues not converged
     c_bands:  1 eigenvalues not converged
     c_bands:  2 eigenvalues not converged
     c_bands:  1 eigenvalues not converged
     c_bands:  3 eigenvalues not converged
     c_bands:  1 eigenvalues not converged
     c_bands:  2 eigenvalues not converged
     c_bands:  2 eigenvalues not converged
     c_bands:  1 eigenvalues not converged
     c_bands:  1 eigenvalues not converged
     c_bands:  1 eigenvalues not converged
     c_bands:  1 eigenvalues not converged
     c_bands:  1 eigenvalues not converged
     c_bands:  1 eigenvalues not converged
     c_bands:  3 eigenvalues not converged
     c_bands:  1 eigenvalues not converged
     ethr =  2.45E-05,  avg # of iterations = 18.9

     total cpu time spent up to now is      174.8 secs

     total energy              =    -348.87430302 Ry
     estimated scf accuracy    <       0.00158411 Ry

     iteration # 19     ecut=    50.00 Ry     beta= 0.30
     Davidson diagonalization with overlap
     c_bands:  1 eigenvalues not converged
     c_bands:  1 eigenvalues not converged
     c_bands:  1 eigenvalues not converged
     ethr =  4.40E-06,  avg # of iterations = 10.3

     total cpu time spent up to now is      183.8 secs

     total energy              =    -348.87670864 Ry
     estimated scf accuracy    <       0.00878723 Ry

     iteration # 20     ecut=    50.00 Ry     beta= 0.30
     Davidson diagonalization with overlap
     c_bands:  2 eigenvalues not converged
     ethr =  4.40E-06,  avg # of iterations =  9.8

     total cpu time spent up to now is      195.2 secs

     total energy              =    -348.87740112 Ry
     estimated scf accuracy    <       0.01013790 Ry

     iteration # 21     ecut=    50.00 Ry     beta= 0.30
     Davidson diagonalization with overlap
     ethr =  4.40E-06,  avg # of iterations =  7.3

     total cpu time spent up to now is      205.2 secs

     total energy              =    -348.87936781 Ry
     estimated scf accuracy    <       0.00461452 Ry

     iteration # 22     ecut=    50.00 Ry     beta= 0.30
     Davidson diagonalization with overlap
     c_bands:  1 eigenvalues not converged
     c_bands:  2 eigenvalues not converged
     ethr =  4.40E-06,  avg # of iterations =  7.4

     total cpu time spent up to now is      215.4 secs

     total energy              =    -348.87802924 Ry
     estimated scf accuracy    <       0.02030788 Ry

     iteration # 23     ecut=    50.00 Ry     beta= 0.30
     Davidson diagonalization with overlap
     ethr =  4.40E-06,  avg # of iterations =  7.3

     total cpu time spent up to now is      224.9 secs

     total energy              =    -348.87966562 Ry
     estimated scf accuracy    <       0.00671021 Ry

     iteration # 24     ecut=    50.00 Ry     beta= 0.30
     Davidson diagonalization with overlap
     ethr =  4.40E-06,  avg # of iterations =  7.2

     total cpu time spent up to now is      234.6 secs

     total energy              =    -348.87924179 Ry
     estimated scf accuracy    <       0.02014084 Ry

     iteration # 25     ecut=    50.00 Ry     beta= 0.30
     Davidson diagonalization with overlap
     ethr =  4.40E-06,  avg # of iterations =  1.1

     total cpu time spent up to now is      240.4 secs

     total energy              =    -348.87560869 Ry
     estimated scf accuracy    <       0.01787326 Ry

     iteration # 26     ecut=    50.00 Ry     beta= 0.30
     Davidson diagonalization with overlap
     c_bands:  2 eigenvalues not converged
     c_bands:  2 eigenvalues not converged
     ethr =  4.40E-06,  avg # of iterations =  8.5

     total cpu time spent up to now is      251.4 secs

     total energy              =    -348.87908331 Ry
     estimated scf accuracy    <       0.00288743 Ry

     iteration # 27     ecut=    50.00 Ry     beta= 0.30
     Davidson diagonalization with overlap
     c_bands:  2 eigenvalues not converged
     c_bands:  2 eigenvalues not converged
     c_bands:  1 eigenvalues not converged
     c_bands:  1 eigenvalues not converged
     c_bands:  2 eigenvalues not converged
     c_bands:  1 eigenvalues not converged
     c_bands:  2 eigenvalues not converged
     c_bands:  2 eigenvalues not converged
     c_bands:  2 eigenvalues not converged
     c_bands:  2 eigenvalues not converged
     c_bands:  2 eigenvalues not converged
     c_bands:  1 eigenvalues not converged
     c_bands:  2 eigenvalues not converged
     c_bands:  2 eigenvalues not converged
     ethr =  4.40E-06,  avg # of iterations = 12.4

     total cpu time spent up to now is      264.2 secs

     total energy              =    -348.88828143 Ry
     estimated scf accuracy    <       0.05251201 Ry

     iteration # 28     ecut=    50.00 Ry     beta= 0.30
     Davidson diagonalization with overlap
     c_bands:  1 eigenvalues not converged
     c_bands:  2 eigenvalues not converged
     c_bands:  1 eigenvalues not converged
     c_bands:  2 eigenvalues not converged
     c_bands:  1 eigenvalues not converged
     c_bands:  1 eigenvalues not converged
     ethr =  4.40E-06,  avg # of iterations =  9.5

     total cpu time spent up to now is      274.8 secs

     total energy              =    -348.86231903 Ry
     estimated scf accuracy    <       0.12300852 Ry

     iteration # 29     ecut=    50.00 Ry     beta= 0.30
     Davidson diagonalization with overlap
     c_bands:  1 eigenvalues not converged
     c_bands:  2 eigenvalues not converged
     c_bands:  2 eigenvalues not converged
     c_bands:  2 eigenvalues not converged
     c_bands:  2 eigenvalues not converged
     c_bands:  1 eigenvalues not converged
     c_bands:  1 eigenvalues not converged
     c_bands:  1 eigenvalues not converged
     c_bands:  2 eigenvalues not converged
     c_bands:  1 eigenvalues not converged
     c_bands:  2 eigenvalues not converged
     c_bands:  2 eigenvalues not converged
     c_bands:  1 eigenvalues not converged
     c_bands:  2 eigenvalues not converged
     c_bands:  2 eigenvalues not converged
     c_bands:  2 eigenvalues not converged
     c_bands:  2 eigenvalues not converged
     c_bands:  2 eigenvalues not converged
     c_bands:  1 eigenvalues not converged
     c_bands:  2 eigenvalues not converged
     c_bands:  1 eigenvalues not converged
     c_bands:  1 eigenvalues not converged
     ethr =  4.40E-06,  avg # of iterations = 15.4

     total cpu time spent up to now is      291.3 secs

     total energy              =    -348.87880180 Ry
     estimated scf accuracy    <       0.00443853 Ry

     iteration # 30     ecut=    50.00 Ry     beta= 0.30
     Davidson diagonalization with overlap
     c_bands:  1 eigenvalues not converged
     ethr =  4.40E-06,  avg # of iterations =  3.9

     total cpu time spent up to now is      298.3 secs

     total energy              =    -348.87928423 Ry
     estimated scf accuracy    <       0.01009468 Ry

     iteration # 31     ecut=    50.00 Ry     beta= 0.30
     Davidson diagonalization with overlap
     ethr =  4.40E-06,  avg # of iterations =  1.1

     total cpu time spent up to now is      304.1 secs

     total energy              =    -348.87689340 Ry
     estimated scf accuracy    <       0.00960756 Ry

     iteration # 32     ecut=    50.00 Ry     beta= 0.30
     Davidson diagonalization with overlap
     c_bands:  2 eigenvalues not converged
     ethr =  4.40E-06,  avg # of iterations =  7.7

     total cpu time spent up to now is      314.2 secs

     total energy              =    -348.87824500 Ry
     estimated scf accuracy    <       0.00438646 Ry

     iteration # 33     ecut=    50.00 Ry     beta= 0.30
     Davidson diagonalization with overlap
     ethr =  4.40E-06,  avg # of iterations =  1.2

     total cpu time spent up to now is      319.9 secs

     total energy              =    -348.87829734 Ry
     estimated scf accuracy    <       0.00453149 Ry

     iteration # 34     ecut=    50.00 Ry     beta= 0.30
     Davidson diagonalization with overlap
     ethr =  4.40E-06,  avg # of iterations =  1.3

     total cpu time spent up to now is      325.7 secs

     total energy              =    -348.87902131 Ry
     estimated scf accuracy    <       0.00481591 Ry

     iteration # 35     ecut=    50.00 Ry     beta= 0.30
     Davidson diagonalization with overlap
     c_bands:  1 eigenvalues not converged
     c_bands:  2 eigenvalues not converged
     c_bands:  2 eigenvalues not converged
     c_bands:  1 eigenvalues not converged
     c_bands:  1 eigenvalues not converged
     c_bands:  1 eigenvalues not converged
     c_bands:  1 eigenvalues not converged
     c_bands:  2 eigenvalues not converged
     c_bands:  2 eigenvalues not converged
     c_bands:  2 eigenvalues not converged
     c_bands:  2 eigenvalues not converged
     c_bands:  2 eigenvalues not converged
     c_bands:  2 eigenvalues not converged
     c_bands:  2 eigenvalues not converged
     c_bands:  2 eigenvalues not converged
     ethr =  4.40E-06,  avg # of iterations = 11.0

     total cpu time spent up to now is      337.7 secs

     total energy              =    -348.87399404 Ry
     estimated scf accuracy    <       0.05208555 Ry

     iteration # 36     ecut=    50.00 Ry     beta= 0.30
     Davidson diagonalization with overlap
     c_bands:  1 eigenvalues not converged
     c_bands:  1 eigenvalues not converged
     c_bands:  1 eigenvalues not converged
     c_bands:  1 eigenvalues not converged
     c_bands:  2 eigenvalues not converged
     c_bands:  2 eigenvalues not converged
     c_bands:  1 eigenvalues not converged
     ethr =  4.40E-06,  avg # of iterations = 11.6

     total cpu time spent up to now is      349.7 secs

     total energy              =    -348.87648204 Ry
     estimated scf accuracy    <       0.00288964 Ry

     iteration # 37     ecut=    50.00 Ry     beta= 0.30
     Davidson diagonalization with overlap
     c_bands:  2 eigenvalues not converged
     c_bands:  2 eigenvalues not converged
     c_bands:  1 eigenvalues not converged
     c_bands:  1 eigenvalues not converged
     ethr =  4.40E-06,  avg # of iterations =  8.6

     total cpu time spent up to now is      360.1 secs

     total energy              =    -348.87548254 Ry
     estimated scf accuracy    <       0.00955864 Ry

     iteration # 38     ecut=    50.00 Ry     beta= 0.30
     Davidson diagonalization with overlap
     c_bands:  2 eigenvalues not converged
     c_bands:  2 eigenvalues not converged
     c_bands:  2 eigenvalues not converged
     ethr =  4.40E-06,  avg # of iterations =  9.8

     total cpu time spent up to now is      371.3 secs

     total energy              =    -348.87779185 Ry
     estimated scf accuracy    <       0.00341389 Ry

     iteration # 39     ecut=    50.00 Ry     beta= 0.30
     Davidson diagonalization with overlap
     ethr =  4.40E-06,  avg # of iterations =  2.0

     total cpu time spent up to now is      377.4 secs

     total energy              =    -348.87679484 Ry
     estimated scf accuracy    <       0.00407289 Ry

     iteration # 40     ecut=    50.00 Ry     beta= 0.30
     Davidson diagonalization with overlap
     ethr =  4.40E-06,  avg # of iterations =  7.1

     total cpu time spent up to now is      385.5 secs

     total energy              =    -348.87723477 Ry
     estimated scf accuracy    <       0.00029063 Ry

     iteration # 41     ecut=    50.00 Ry     beta= 0.30
     Davidson diagonalization with overlap
     c_bands:  1 eigenvalues not converged
     ethr =  8.07E-07,  avg # of iterations =  5.9

     total cpu time spent up to now is      393.4 secs

     total energy              =    -348.87723570 Ry
     estimated scf accuracy    <       0.00076832 Ry

     iteration # 42     ecut=    50.00 Ry     beta= 0.30
     Davidson diagonalization with overlap
     ethr =  8.07E-07,  avg # of iterations =  1.2

     total cpu time spent up to now is      398.9 secs

     total energy              =    -348.87710912 Ry
     estimated scf accuracy    <       0.00063596 Ry

     iteration # 43     ecut=    50.00 Ry     beta= 0.30
     Davidson diagonalization with overlap
     ethr =  8.07E-07,  avg # of iterations =  6.0

     total cpu time spent up to now is      406.8 secs

     total energy              =    -348.87717362 Ry
     estimated scf accuracy    <       0.00003354 Ry

     iteration # 44     ecut=    50.00 Ry     beta= 0.30
     Davidson diagonalization with overlap
     c_bands:  2 eigenvalues not converged
     ethr =  9.32E-08,  avg # of iterations =  7.2

     total cpu time spent up to now is      416.0 secs

     total energy              =    -348.87718809 Ry
     estimated scf accuracy    <       0.00003328 Ry

     iteration # 45     ecut=    50.00 Ry     beta= 0.30
     Davidson diagonalization with overlap
     ethr =  9.24E-08,  avg # of iterations =  4.6

     total cpu time spent up to now is      423.2 secs

     total energy              =    -348.87719116 Ry
     estimated scf accuracy    <       0.00000208 Ry

     iteration # 46     ecut=    50.00 Ry     beta= 0.30
     Davidson diagonalization with overlap
     c_bands:  2 eigenvalues not converged
     c_bands:  2 eigenvalues not converged
     c_bands:  2 eigenvalues not converged
     c_bands:  2 eigenvalues not converged
     c_bands:  2 eigenvalues not converged
     c_bands:  1 eigenvalues not converged
     c_bands:  1 eigenvalues not converged
     c_bands:  1 eigenvalues not converged
     c_bands:  2 eigenvalues not converged
     c_bands:  1 eigenvalues not converged
     c_bands:  1 eigenvalues not converged
     c_bands:  2 eigenvalues not converged
     c_bands:  1 eigenvalues not converged
     c_bands:  1 eigenvalues not converged
     c_bands:  2 eigenvalues not converged
     c_bands:  2 eigenvalues not converged
     c_bands:  2 eigenvalues not converged
     c_bands:  2 eigenvalues not converged
     c_bands:  2 eigenvalues not converged
     c_bands:  2 eigenvalues not converged
     c_bands:  2 eigenvalues not converged
     c_bands:  2 eigenvalues not converged
     c_bands:  1 eigenvalues not converged
     c_bands:  1 eigenvalues not converged
     c_bands:  1 eigenvalues not converged
     c_bands:  1 eigenvalues not converged
     c_bands:  2 eigenvalues not converged
     c_bands:  1 eigenvalues not converged
     c_bands:  1 eigenvalues not converged
     c_bands:  2 eigenvalues not converged
     c_bands:  2 eigenvalues not converged
     c_bands:  2 eigenvalues not converged
     c_bands:  1 eigenvalues not converged
     c_bands:  2 eigenvalues not converged
     ethr =  5.78E-09,  avg # of iterations = 14.8

     total cpu time spent up to now is      439.2 secs

     total energy              =    -348.87719403 Ry
     estimated scf accuracy    <       0.00007190 Ry

     iteration # 47     ecut=    50.00 Ry     beta= 0.30
     Davidson diagonalization with overlap
     c_bands:  1 eigenvalues not converged
     c_bands:  2 eigenvalues not converged
     c_bands:  2 eigenvalues not converged
     c_bands:  1 eigenvalues not converged
     ethr =  5.78E-09,  avg # of iterations =  8.6

     total cpu time spent up to now is      449.8 secs

     total energy              =    -348.87719308 Ry
     estimated scf accuracy    <       0.00001983 Ry

     iteration # 48     ecut=    50.00 Ry     beta= 0.30
     Davidson diagonalization with overlap
     c_bands:  1 eigenvalues not converged
     c_bands:  1 eigenvalues not converged
     c_bands:  2 eigenvalues not converged
     c_bands:  1 eigenvalues not converged
     ethr =  5.78E-09,  avg # of iterations =  7.8

     total cpu time spent up to now is      459.7 secs

     total energy              =    -348.87719453 Ry
     estimated scf accuracy    <       0.00000079 Ry

     iteration # 49     ecut=    50.00 Ry     beta= 0.30
     Davidson diagonalization with overlap
     ethr =  2.20E-09,  avg # of iterations =  4.1

     total cpu time spent up to now is      466.7 secs

     total energy              =    -348.87719478 Ry
     estimated scf accuracy    <       0.00000007 Ry

     iteration # 50     ecut=    50.00 Ry     beta= 0.30
     Davidson diagonalization with overlap
     c_bands:  1 eigenvalues not converged
     c_bands:  1 eigenvalues not converged
     c_bands:  1 eigenvalues not converged
     ethr =  2.03E-10,  avg # of iterations =  8.3

     total cpu time spent up to now is      477.0 secs

     total energy              =    -348.87719480 Ry
     estimated scf accuracy    <       0.00000006 Ry

     iteration # 51     ecut=    50.00 Ry     beta= 0.30
     Davidson diagonalization with overlap
     c_bands:  1 eigenvalues not converged
     c_bands:  2 eigenvalues not converged
     c_bands:  2 eigenvalues not converged
     c_bands:  2 eigenvalues not converged
     c_bands:  1 eigenvalues not converged
     c_bands:  2 eigenvalues not converged
     c_bands:  2 eigenvalues not converged
     c_bands:  2 eigenvalues not converged
     c_bands:  2 eigenvalues not converged
     ethr =  1.74E-10,  avg # of iterations =  9.0

     total cpu time spent up to now is      487.7 secs

     total energy              =    -348.87719479 Ry
     estimated scf accuracy    <       0.00000031 Ry

     iteration # 52     ecut=    50.00 Ry     beta= 0.30
     Davidson diagonalization with overlap
     c_bands:  2 eigenvalues not converged
     ethr =  1.74E-10,  avg # of iterations =  7.7

     total cpu time spent up to now is      497.5 secs

     End of self-consistent calculation

     Number of k-points >= 100: set verbosity='high' to print the bands.

     highest occupied level (ev):     5.9689

!    total energy              =    -348.87719482 Ry
     estimated scf accuracy    <          6.8E-09 Ry

     The total energy is the sum of the following terms:
     one-electron contribution =    -269.83738376 Ry
     hartree contribution      =     166.61121630 Ry
     xc contribution           =    -111.38544659 Ry
     ewald contribution        =    -134.26558077 Ry

     convergence has been achieved in  52 iterations

     Forces acting on atoms (cartesian axes, Ry/au):

     atom    1 type  1   force =    12.29798899  -22.04693014  -18.71533829
     atom    2 type  1   force =    -0.06946199    0.02045374    0.24527722
     atom    3 type  2   force =   -12.25069269   22.02345264   18.58105349
     atom    4 type  2   force =     0.02216569    0.00302376   -0.11099241
     The non-local contrib.  to forces
     atom    1 type  1   force =    -4.99907855    8.95958069    7.94586783
     atom    2 type  1   force =     0.20804695   -0.06240107   -0.60854091
     atom    3 type  2   force =     1.08936528   -2.52032849   -1.34112374
     atom    4 type  2   force =     0.14907540   -0.02509204   -0.54387246
     The ionic contribution  to forces
     atom    1 type  1   force =    31.06644318  -55.23305823  -55.68728767
     atom    2 type  1   force =    -2.90007040    1.39310148   18.06359727
     atom    3 type  2   force =   -27.38476527   53.55483518   39.52274601
     atom    4 type  2   force =    -0.78160751    0.28512157   -1.89905561
     The local contribution  to forces
     atom    1 type  1   force =   -13.34641034   23.46722270   28.38316870
     atom    2 type  1   force =     2.61745976   -1.30783513  -17.20594565
     atom    3 type  2   force =    14.01970760  -28.96975646  -19.56174780
     atom    4 type  2   force =     0.65621156   -0.25717444    2.32571786
     The core correction contribution to forces
     atom    1 type  1   force =    -0.42293512    0.75930660    0.64281033
     atom    2 type  1   force =     0.00507770   -0.00241145   -0.00375839
     atom    3 type  2   force =     0.02499013   -0.04128137   -0.03880623
     atom    4 type  2   force =    -0.00151757    0.00018957    0.00627669
     The Hubbard contrib.    to forces
     atom    1 type  1   force =     0.00000000    0.00000000    0.00000000
     atom    2 type  1   force =     0.00000000    0.00000000    0.00000000
     atom    3 type  2   force =     0.00000000    0.00000000    0.00000000
     atom    4 type  2   force =     0.00000000    0.00000000    0.00000000
     The SCF correction term to forces
     atom    1 type  1   force =    -0.00004081    0.00003473    0.00013883
     atom    2 type  1   force =     0.00001337    0.00001653   -0.00003879
     atom    3 type  2   force =    -0.00000106    0.00000040    0.00002154
     atom    4 type  2   force =    -0.00000683   -0.00000428   -0.00002258

     Total force =    44.362341     Total SCF correction =     0.000159

     Writing all to output data dir ./ZnO_ANN.save/

     init_run     :      4.12s CPU      4.22s WALL (       1 calls)
     electrons    :    485.68s CPU    492.84s WALL (       1 calls)
     forces       :      1.30s CPU      1.31s WALL (       1 calls)

     Called by init_run:
     wfcinit      :      3.25s CPU      3.30s WALL (       1 calls)
     potinit      :      0.32s CPU      0.32s WALL (       1 calls)
     hinit0       :      0.45s CPU      0.47s WALL (       1 calls)

     Called by electrons:
     c_bands      :    432.86s CPU    439.08s WALL (      52 calls)
     sum_band     :     47.67s CPU     48.49s WALL (      52 calls)
     v_of_rho     :      1.13s CPU      1.21s WALL (      53 calls)
     newd         :      3.80s CPU      3.84s WALL (      53 calls)
     mix_rho      :      0.19s CPU      0.21s WALL (      52 calls)

     Called by c_bands:
     init_us_2    :      3.37s CPU      3.42s WALL (   11872 calls)
     init_us_2:cp :      3.32s CPU      3.38s WALL (   11872 calls)
     cegterg      :    421.87s CPU    427.94s WALL (    5824 calls)

     Called by *egterg:
     cdiaghg      :     49.21s CPU     49.58s WALL (   46360 calls)
     h_psi        :    244.28s CPU    248.81s WALL (   46472 calls)
     s_psi        :     29.03s CPU     29.25s WALL (   46472 calls)
     g_psi        :      0.84s CPU      0.85s WALL (   40536 calls)

     Called by h_psi:
     h_psi:calbec :     33.34s CPU     34.23s WALL (   46472 calls)
     vloc_psi     :    181.04s CPU    184.44s WALL (   46472 calls)
     add_vuspsi   :     29.01s CPU     29.27s WALL (   46472 calls)

     General routines
     calbec       :     44.35s CPU     45.48s WALL (   52744 calls)
     fft          :      1.12s CPU      1.23s WALL (     698 calls)
     ffts         :      0.17s CPU      0.17s WALL (     105 calls)
     fftw         :    184.85s CPU    188.31s WALL (  755270 calls)
     interpolate  :      0.20s CPU      0.21s WALL (      53 calls)

     Parallel routines

     PWSCF        :   8m11.79s CPU   8m19.34s WALL


   This run was terminated on:  17:18:30  23Jun2025            

=------------------------------------------------------------------------------=
   JOB DONE.
=------------------------------------------------------------------------------=
Note: The following floating-point exceptions are signalling: IEEE_INVALID_FLAG
