
     Program PWSCF v.7.2 starts on 23Jun2025 at 16:26:50 

     This program is part of the open-source Quantum ESPRESSO suite
     for quantum simulation of materials; please cite
         "P. Giannozzi et al., J. Phys.:Condens. Matter 21 395502 (2009);
         "P. Giannozzi et al., J. Phys.:Condens. Matter 29 465901 (2017);
         "P. Giannozzi et al., J. Chem. Phys. 152 154105 (2020);
          URL http://www.quantum-espresso.org", 
     in publications or presentations arising from this work. More details at
     http://www.quantum-espresso.org/quote

     Parallel version (MPI), running on     8 processors

     MPI processes distributed on     1 nodes
     90758 MiB available memory on the printing compute node when the environment starts

     Reading input from /home/jvc/QEspresso7.2/ZnO_DataBase/scfs_rnd025.in/scf-6.43-1.78-5.in

     Current dimensions of program PWSCF are:
     Max number of different atomic species (ntypx) = 10
     Max number of k-points (npk) =  40000
     Max angular momentum in pseudopotentials (lmaxx) =  4
     file Zn.upf: wavefunction(s)  3D renormalized

     R & G space division:  proc/nbgrp/npool/nimage =       8
     Subspace diagonalization in iterative solution of the eigenvalue problem:
     a serial algorithm will be used


     Parallelization info
     --------------------
     sticks:   dense  smooth     PW     G-vecs:    dense   smooth      PW
     Min         143      71     20                 6903     2439     398
     Max         145      73     21                 6906     2442     407
     Sum        1147     571    163                55231    19521    3215

     Using Slab Decomposition



     bravais-lattice index     =            4
     lattice parameter (alat)  =       6.4260  a.u.
     unit-cell volume          =     408.0752 (a.u.)^3
     number of atoms/cell      =            4
     number of atomic types    =            2
     number of electrons       =        36.00
     number of Kohn-Sham states=           18
     kinetic-energy cutoff     =      50.0000  Ry
     charge density cutoff     =     400.0000  Ry
     scf convergence threshold =      1.0E-08
     mixing beta               =       0.3000
     number of iterations used =            8  plain     mixing
     Exchange-correlation= PBE
                           (   1   4   3   4   0   0   0)

     celldm(1)=   6.425974  celldm(2)=   0.000000  celldm(3)=   1.775794
     celldm(4)=   0.000000  celldm(5)=   0.000000  celldm(6)=   0.000000

     crystal axes: (cart. coord. in units of alat)
               a(1) = (   1.000000   0.000000   0.000000 )  
               a(2) = (  -0.500000   0.866025   0.000000 )  
               a(3) = (   0.000000   0.000000   1.775794 )  

     reciprocal axes: (cart. coord. in units 2 pi/alat)
               b(1) = (  1.000000  0.577350 -0.000000 )  
               b(2) = (  0.000000  1.154701  0.000000 )  
               b(3) = (  0.000000 -0.000000  0.563128 )  


     PseudoPot. # 1 for Zn read from file:
     ./pseudos/Zn.upf
     MD5 check sum: 7f56cabf9682ed8c977c2f7d0c5985c5
     Pseudo is Ultrasoft + core correction, Zval = 12.0
     Generated using &quot;atomic&quot; code by A. Dal Corso  v.6.2.2
     Using radial grid of 1201 points,  6 beta functions with: 
                l(1) =   0
                l(2) =   0
                l(3) =   1
                l(4) =   1
                l(5) =   2
                l(6) =   2
     Q(r) pseudized with 0 coefficients 


     PseudoPot. # 2 for O  read from file:
     ./pseudos/O.upf
     MD5 check sum: 91400c9766925bcf19f520983a725ff0
     Pseudo is Ultrasoft + core correction, Zval =  6.0
     Generated using &quot;atomic&quot; code by A. Dal Corso  v.6.3MaX
     Using radial grid of 1095 points,  4 beta functions with: 
                l(1) =   0
                l(2) =   0
                l(3) =   1
                l(4) =   1
     Q(r) pseudized with 0 coefficients 


     atomic species   valence    mass     pseudopotential
        Zn            12.00    63.38000     Zn( 1.00)
        O              6.00    15.99900     O ( 1.00)

     No symmetry found



   Cartesian axes

     site n.     atom                  positions (alat units)
         1           Zn  tau(   1) = (   0.2972219   0.2996892   0.9069702  )
         2           Zn  tau(   2) = (  -0.1891123   0.7666967  -0.1712375  )
         3           O   tau(   3) = (   0.3380207   0.4063447   1.2481293  )
         4           O   tau(   4) = (  -0.2642039   0.6492606   0.2586661  )

     number of k points=   112

     Number of k-points >= 100: set verbosity='high' to print them.

     Dense  grid:    55231 G-vectors     FFT dimensions: (  45,  45,  75)

     Smooth grid:    19521 G-vectors     FFT dimensions: (  30,  30,  54)

     Estimated max dynamical RAM per process >      37.40 MB

     Estimated total dynamical RAM >     299.24 MB

     Check: negative core charge=   -0.000002

     Initial potential from superposition of free atoms

     starting charge      35.9925, renormalised to      36.0000
     Starting wfcs are   26 randomized atomic wfcs

     total cpu time spent up to now is        4.6 secs

     Self-consistent Calculation

     iteration #  1     ecut=    50.00 Ry     beta= 0.30
     Davidson diagonalization with overlap
     ethr =  1.00E-02,  avg # of iterations =  2.3

     total cpu time spent up to now is       11.4 secs

     total energy              =    -360.16189903 Ry
     estimated scf accuracy    <       1.52499623 Ry

     iteration #  2     ecut=    50.00 Ry     beta= 0.30
     Davidson diagonalization with overlap
     ethr =  4.24E-03,  avg # of iterations =  2.0

     total cpu time spent up to now is       18.3 secs

     total energy              =    -360.20527644 Ry
     estimated scf accuracy    <       0.27694571 Ry

     iteration #  3     ecut=    50.00 Ry     beta= 0.30
     Davidson diagonalization with overlap
     c_bands:  1 eigenvalues not converged
     c_bands:  1 eigenvalues not converged
     c_bands:  2 eigenvalues not converged
     ethr =  7.69E-04,  avg # of iterations = 10.6

     total cpu time spent up to now is       33.8 secs

     total energy              =    -360.35721943 Ry
     estimated scf accuracy    <       1.02406126 Ry

     iteration #  4     ecut=    50.00 Ry     beta= 0.30
     Davidson diagonalization with overlap
     ethr =  7.69E-04,  avg # of iterations =  6.5

     total cpu time spent up to now is       43.1 secs

     total energy              =    -360.44185412 Ry
     estimated scf accuracy    <       0.05956409 Ry

     iteration #  5     ecut=    50.00 Ry     beta= 0.30
     Davidson diagonalization with overlap
     c_bands:  1 eigenvalues not converged
     c_bands:  1 eigenvalues not converged
     ethr =  1.65E-04,  avg # of iterations =  7.3

     total cpu time spent up to now is       55.8 secs

     total energy              =    -360.50017081 Ry
     estimated scf accuracy    <       0.07427986 Ry

     iteration #  6     ecut=    50.00 Ry     beta= 0.30
     Davidson diagonalization with overlap
     ethr =  1.65E-04,  avg # of iterations =  1.5

     total cpu time spent up to now is       61.8 secs

     total energy              =    -360.47620402 Ry
     estimated scf accuracy    <       0.07868661 Ry

     iteration #  7     ecut=    50.00 Ry     beta= 0.30
     Davidson diagonalization with overlap
     ethr =  1.65E-04,  avg # of iterations =  1.1

     total cpu time spent up to now is       67.5 secs

     total energy              =    -360.46999653 Ry
     estimated scf accuracy    <       0.03603078 Ry

     iteration #  8     ecut=    50.00 Ry     beta= 0.30
     Davidson diagonalization with overlap
     ethr =  1.00E-04,  avg # of iterations =  5.0

     total cpu time spent up to now is       75.6 secs

     total energy              =    -360.47925449 Ry
     estimated scf accuracy    <       0.00096952 Ry

     iteration #  9     ecut=    50.00 Ry     beta= 0.30
     Davidson diagonalization with overlap
     ethr =  2.69E-06,  avg # of iterations =  7.3

     total cpu time spent up to now is       88.2 secs

     total energy              =    -360.48013591 Ry
     estimated scf accuracy    <       0.00086197 Ry

     iteration # 10     ecut=    50.00 Ry     beta= 0.30
     Davidson diagonalization with overlap
     c_bands:  1 eigenvalues not converged
     ethr =  2.39E-06,  avg # of iterations =  6.9

     total cpu time spent up to now is      100.7 secs

     total energy              =    -360.47993045 Ry
     estimated scf accuracy    <       0.00270906 Ry

     iteration # 11     ecut=    50.00 Ry     beta= 0.30
     Davidson diagonalization with overlap
     ethr =  2.39E-06,  avg # of iterations =  5.3

     total cpu time spent up to now is      108.7 secs

     total energy              =    -360.47995522 Ry
     estimated scf accuracy    <       0.00037179 Ry

     iteration # 12     ecut=    50.00 Ry     beta= 0.30
     Davidson diagonalization with overlap
     c_bands:  1 eigenvalues not converged
     c_bands:  1 eigenvalues not converged
     ethr =  1.03E-06,  avg # of iterations =  7.6

     total cpu time spent up to now is      121.1 secs

     total energy              =    -360.48017465 Ry
     estimated scf accuracy    <       0.00051622 Ry

     iteration # 13     ecut=    50.00 Ry     beta= 0.30
     Davidson diagonalization with overlap
     ethr =  1.03E-06,  avg # of iterations =  1.4

     total cpu time spent up to now is      126.6 secs

     total energy              =    -360.48012973 Ry
     estimated scf accuracy    <       0.00022178 Ry

     iteration # 14     ecut=    50.00 Ry     beta= 0.30
     Davidson diagonalization with overlap
     ethr =  6.16E-07,  avg # of iterations =  4.2

     total cpu time spent up to now is      134.5 secs

     total energy              =    -360.48019493 Ry
     estimated scf accuracy    <       0.00001399 Ry

     iteration # 15     ecut=    50.00 Ry     beta= 0.30
     Davidson diagonalization with overlap
     ethr =  3.89E-08,  avg # of iterations =  5.9

     total cpu time spent up to now is      143.7 secs

     total energy              =    -360.48020140 Ry
     estimated scf accuracy    <       0.00000601 Ry

     iteration # 16     ecut=    50.00 Ry     beta= 0.30
     Davidson diagonalization with overlap
     ethr =  1.67E-08,  avg # of iterations =  2.0

     total cpu time spent up to now is      149.5 secs

     total energy              =    -360.48020053 Ry
     estimated scf accuracy    <       0.00000371 Ry

     iteration # 17     ecut=    50.00 Ry     beta= 0.30
     Davidson diagonalization with overlap
     ethr =  1.03E-08,  avg # of iterations =  7.1

     total cpu time spent up to now is      158.4 secs

     total energy              =    -360.48020289 Ry
     estimated scf accuracy    <       0.00000770 Ry

     iteration # 18     ecut=    50.00 Ry     beta= 0.30
     Davidson diagonalization with overlap
     ethr =  1.03E-08,  avg # of iterations =  1.5

     total cpu time spent up to now is      164.0 secs

     total energy              =    -360.48020108 Ry
     estimated scf accuracy    <       0.00000760 Ry

     iteration # 19     ecut=    50.00 Ry     beta= 0.30
     Davidson diagonalization with overlap
     ethr =  1.03E-08,  avg # of iterations =  5.6

     total cpu time spent up to now is      170.9 secs

     total energy              =    -360.48020197 Ry
     estimated scf accuracy    <       0.00000169 Ry

     iteration # 20     ecut=    50.00 Ry     beta= 0.30
     Davidson diagonalization with overlap
     ethr =  4.69E-09,  avg # of iterations =  2.3

     total cpu time spent up to now is      177.1 secs

     total energy              =    -360.48020202 Ry
     estimated scf accuracy    <       0.00000207 Ry

     iteration # 21     ecut=    50.00 Ry     beta= 0.30
     Davidson diagonalization with overlap
     ethr =  4.69E-09,  avg # of iterations =  1.3

     total cpu time spent up to now is      182.7 secs

     total energy              =    -360.48020164 Ry
     estimated scf accuracy    <       0.00000200 Ry

     iteration # 22     ecut=    50.00 Ry     beta= 0.30
     Davidson diagonalization with overlap
     ethr =  4.69E-09,  avg # of iterations =  1.9

     total cpu time spent up to now is      188.7 secs

     total energy              =    -360.48020164 Ry
     estimated scf accuracy    <       0.00000112 Ry

     iteration # 23     ecut=    50.00 Ry     beta= 0.30
     Davidson diagonalization with overlap
     c_bands:  1 eigenvalues not converged
     ethr =  3.11E-09,  avg # of iterations =  6.7

     total cpu time spent up to now is      197.0 secs

     total energy              =    -360.48020153 Ry
     estimated scf accuracy    <       0.00000169 Ry

     iteration # 24     ecut=    50.00 Ry     beta= 0.30
     Davidson diagonalization with overlap
     ethr =  3.11E-09,  avg # of iterations =  6.4

     total cpu time spent up to now is      209.0 secs

     total energy              =    -360.48020108 Ry
     estimated scf accuracy    <       0.00000339 Ry

     iteration # 25     ecut=    50.00 Ry     beta= 0.30
     Davidson diagonalization with overlap
     ethr =  3.11E-09,  avg # of iterations =  5.9

     total cpu time spent up to now is      219.5 secs

     total energy              =    -360.48020165 Ry
     estimated scf accuracy    <       0.00000005 Ry

     iteration # 26     ecut=    50.00 Ry     beta= 0.30
     Davidson diagonalization with overlap
     c_bands:  2 eigenvalues not converged
     c_bands:  1 eigenvalues not converged
     ethr =  1.38E-10,  avg # of iterations =  9.3

     total cpu time spent up to now is      232.0 secs

     total energy              =    -360.48020172 Ry
     estimated scf accuracy    <       0.00000011 Ry

     iteration # 27     ecut=    50.00 Ry     beta= 0.30
     Davidson diagonalization with overlap
     ethr =  1.38E-10,  avg # of iterations =  1.3

     total cpu time spent up to now is      237.6 secs

     total energy              =    -360.48020170 Ry
     estimated scf accuracy    <       0.00000017 Ry

     iteration # 28     ecut=    50.00 Ry     beta= 0.30
     Davidson diagonalization with overlap
     ethr =  1.38E-10,  avg # of iterations =  2.4

     total cpu time spent up to now is      244.0 secs

     total energy              =    -360.48020168 Ry
     estimated scf accuracy    <       0.00000011 Ry

     iteration # 29     ecut=    50.00 Ry     beta= 0.30
     Davidson diagonalization with overlap
     ethr =  1.38E-10,  avg # of iterations =  6.0

     total cpu time spent up to now is      254.4 secs

     total energy              =    -360.48020171 Ry
     estimated scf accuracy    <       0.00000009 Ry

     iteration # 30     ecut=    50.00 Ry     beta= 0.30
     Davidson diagonalization with overlap
     ethr =  1.38E-10,  avg # of iterations =  1.1

     total cpu time spent up to now is      260.0 secs

     total energy              =    -360.48020172 Ry
     estimated scf accuracy    <       0.00000009 Ry

     iteration # 31     ecut=    50.00 Ry     beta= 0.30
     Davidson diagonalization with overlap
     ethr =  1.38E-10,  avg # of iterations =  1.3

     total cpu time spent up to now is      265.6 secs

     total energy              =    -360.48020172 Ry
     estimated scf accuracy    <       0.00000011 Ry

     iteration # 32     ecut=    50.00 Ry     beta= 0.30
     Davidson diagonalization with overlap
     ethr =  1.38E-10,  avg # of iterations =  1.1

     total cpu time spent up to now is      271.1 secs

     total energy              =    -360.48020171 Ry
     estimated scf accuracy    <       0.00000012 Ry

     iteration # 33     ecut=    50.00 Ry     beta= 0.30
     Davidson diagonalization with overlap
     ethr =  1.38E-10,  avg # of iterations =  1.0

     total cpu time spent up to now is      276.6 secs

     total energy              =    -360.48020169 Ry
     estimated scf accuracy    <       0.00000011 Ry

     iteration # 34     ecut=    50.00 Ry     beta= 0.30
     Davidson diagonalization with overlap
     c_bands:  1 eigenvalues not converged
     ethr =  1.38E-10,  avg # of iterations =  6.7

     total cpu time spent up to now is      285.2 secs

     total energy              =    -360.48020171 Ry
     estimated scf accuracy    <       0.00000008 Ry

     iteration # 35     ecut=    50.00 Ry     beta= 0.30
     Davidson diagonalization with overlap
     ethr =  1.38E-10,  avg # of iterations =  1.3

     total cpu time spent up to now is      290.9 secs

     total energy              =    -360.48020292 Ry
     estimated scf accuracy    <       0.00000008 Ry

     iteration # 36     ecut=    50.00 Ry     beta= 0.30
     Davidson diagonalization with overlap
     c_bands:  1 eigenvalues not converged
     c_bands:  3 eigenvalues not converged
     c_bands:  1 eigenvalues not converged
     c_bands:  1 eigenvalues not converged
     c_bands:  3 eigenvalues not converged
     c_bands:  1 eigenvalues not converged
     c_bands:  1 eigenvalues not converged
     c_bands:  1 eigenvalues not converged
     c_bands:  2 eigenvalues not converged
     c_bands:  3 eigenvalues not converged
     c_bands:  3 eigenvalues not converged
     c_bands:  2 eigenvalues not converged
     c_bands:  2 eigenvalues not converged
     c_bands:  3 eigenvalues not converged
     c_bands:  2 eigenvalues not converged
     c_bands:  2 eigenvalues not converged
     c_bands:  1 eigenvalues not converged
     c_bands:  3 eigenvalues not converged
     c_bands:  2 eigenvalues not converged
     c_bands:  3 eigenvalues not converged
     c_bands:  3 eigenvalues not converged
     c_bands:  1 eigenvalues not converged
     c_bands:  3 eigenvalues not converged
     c_bands:  1 eigenvalues not converged
     c_bands:  2 eigenvalues not converged
     c_bands:  1 eigenvalues not converged
     c_bands:  1 eigenvalues not converged
     ethr =  1.38E-10,  avg # of iterations = 17.8

     total cpu time spent up to now is      320.8 secs

     total energy              =    -360.48020220 Ry
     estimated scf accuracy    <       0.00002268 Ry

     iteration # 37     ecut=    50.00 Ry     beta= 0.30
     Davidson diagonalization with overlap
     c_bands:  2 eigenvalues not converged
     c_bands:  2 eigenvalues not converged
     c_bands:  1 eigenvalues not converged
     c_bands:  1 eigenvalues not converged
     c_bands:  2 eigenvalues not converged
     c_bands:  1 eigenvalues not converged
     c_bands:  1 eigenvalues not converged
     c_bands:  2 eigenvalues not converged
     c_bands:  1 eigenvalues not converged
     c_bands:  1 eigenvalues not converged
     ethr =  1.38E-10,  avg # of iterations = 15.2

     total cpu time spent up to now is      345.6 secs

     total energy              =    -360.48020085 Ry
     estimated scf accuracy    <       0.00000708 Ry

     iteration # 38     ecut=    50.00 Ry     beta= 0.30
     Davidson diagonalization with overlap
     c_bands:  2 eigenvalues not converged
     c_bands:  1 eigenvalues not converged
     c_bands:  2 eigenvalues not converged
     c_bands:  1 eigenvalues not converged
     c_bands:  1 eigenvalues not converged
     c_bands:  1 eigenvalues not converged
     c_bands:  1 eigenvalues not converged
     c_bands:  2 eigenvalues not converged
     c_bands:  1 eigenvalues not converged
     c_bands:  1 eigenvalues not converged
     c_bands:  2 eigenvalues not converged
     c_bands:  1 eigenvalues not converged
     c_bands:  1 eigenvalues not converged
     c_bands:  2 eigenvalues not converged
     c_bands:  1 eigenvalues not converged
     ethr =  1.38E-10,  avg # of iterations = 15.5

     total cpu time spent up to now is      369.5 secs

     total energy              =    -360.48020170 Ry
     estimated scf accuracy    <       0.00000012 Ry

     iteration # 39     ecut=    50.00 Ry     beta= 0.30
     Davidson diagonalization with overlap
     ethr =  1.38E-10,  avg # of iterations =  1.5

     total cpu time spent up to now is      375.1 secs

     total energy              =    -360.48020166 Ry
     estimated scf accuracy    <       0.00000011 Ry

     iteration # 40     ecut=    50.00 Ry     beta= 0.30
     Davidson diagonalization with overlap
     ethr =  1.38E-10,  avg # of iterations =  7.2

     total cpu time spent up to now is      387.8 secs

     total energy              =    -360.48020170 Ry
     estimated scf accuracy    <       0.00000007 Ry

     iteration # 41     ecut=    50.00 Ry     beta= 0.30
     Davidson diagonalization with overlap
     ethr =  1.38E-10,  avg # of iterations =  4.4

     total cpu time spent up to now is      395.1 secs

     total energy              =    -360.48020168 Ry
     estimated scf accuracy    <       0.00000007 Ry

     iteration # 42     ecut=    50.00 Ry     beta= 0.30
     Davidson diagonalization with overlap
     ethr =  1.38E-10,  avg # of iterations =  5.0

     total cpu time spent up to now is      403.1 secs

     total energy              =    -360.48020168 Ry
     estimated scf accuracy    <       0.00000002 Ry

     iteration # 43     ecut=    50.00 Ry     beta= 0.30
     Davidson diagonalization with overlap
     ethr =  5.45E-11,  avg # of iterations =  4.8

     total cpu time spent up to now is      411.8 secs

     total energy              =    -360.48020169 Ry
     estimated scf accuracy    <       0.00000001 Ry

     iteration # 44     ecut=    50.00 Ry     beta= 0.30
     Davidson diagonalization with overlap
     ethr =  3.33E-11,  avg # of iterations =  1.7

     total cpu time spent up to now is      417.7 secs

     End of self-consistent calculation

     Number of k-points >= 100: set verbosity='high' to print the bands.

     highest occupied level (ev):     5.4569

!    total energy              =    -360.48020168 Ry
     estimated scf accuracy    <          7.4E-09 Ry

     The total energy is the sum of the following terms:
     one-electron contribution =    -218.45366194 Ry
     hartree contribution      =     145.25755640 Ry
     xc contribution           =    -109.63508867 Ry
     ewald contribution        =    -177.64900747 Ry

     convergence has been achieved in  44 iterations

     Forces acting on atoms (cartesian axes, Ry/au):

     atom    1 type  1   force =    -0.26771849   -0.71126534   -2.38007473
     atom    2 type  1   force =     0.06491246    0.12074340   -0.30774729
     atom    3 type  2   force =     0.26541465    0.68915082    2.26444586
     atom    4 type  2   force =    -0.06260862   -0.09862888    0.42337616
     The non-local contrib.  to forces
     atom    1 type  1   force =    -0.13586751   -0.34576644   -0.87279151
     atom    2 type  1   force =     0.22572730    0.23034921   -1.41115092
     atom    3 type  2   force =    -0.13891064   -0.63143524   -0.86641519
     atom    4 type  2   force =     0.24771660    0.43027174   -0.83082022
     The ionic contribution  to forces
     atom    1 type  1   force =    -2.56964535   -5.51892986  -32.03616845
     atom    2 type  1   force =     2.11795259    1.00471377    2.83370556
     atom    3 type  2   force =     2.23692650    7.63707142   15.63464963
     atom    4 type  2   force =    -1.78523374   -3.12285533   13.56781326
     The local contribution  to forces
     atom    1 type  1   force =     2.40747568    5.07806541   30.28538934
     atom    2 type  1   force =    -2.25880076   -1.09927448   -1.82649032
     atom    3 type  2   force =    -1.83264534   -6.31896030  -12.50138320
     atom    4 type  2   force =     1.47680425    2.59730007  -12.31817096
     The core correction contribution to forces
     atom    1 type  1   force =     0.03032425    0.07537499    0.24341447
     atom    2 type  1   force =    -0.01999212   -0.01507300    0.09644304
     atom    3 type  2   force =     0.00005241    0.00249380   -0.00231713
     atom    4 type  2   force =    -0.00190004   -0.00335199    0.00450338
     The Hubbard contrib.    to forces
     atom    1 type  1   force =     0.00000000    0.00000000    0.00000000
     atom    2 type  1   force =     0.00000000    0.00000000    0.00000000
     atom    3 type  2   force =     0.00000000    0.00000000    0.00000000
     atom    4 type  2   force =     0.00000000    0.00000000    0.00000000
     The SCF correction term to forces
     atom    1 type  1   force =    -0.00000323   -0.00001026    0.00006017
     atom    2 type  1   force =     0.00002778    0.00002707   -0.00027591
     atom    3 type  2   force =    -0.00000594   -0.00001969   -0.00010951
     atom    4 type  2   force =     0.00000665    0.00000581    0.00002945

     Total force =     3.495971     Total SCF correction =     0.000308

     Writing all to output data dir ./ZnO_ANN.save/

     init_run     :      4.03s CPU      4.14s WALL (       1 calls)
     electrons    :    406.61s CPU    413.16s WALL (       1 calls)
     forces       :      1.29s CPU      1.31s WALL (       1 calls)

     Called by init_run:
     wfcinit      :      3.14s CPU      3.20s WALL (       1 calls)
     potinit      :      0.31s CPU      0.32s WALL (       1 calls)
     hinit0       :      0.49s CPU      0.50s WALL (       1 calls)

     Called by electrons:
     c_bands      :    363.74s CPU    369.48s WALL (      44 calls)
     sum_band     :     38.61s CPU     39.34s WALL (      44 calls)
     v_of_rho     :      0.97s CPU      1.02s WALL (      45 calls)
     newd         :      3.11s CPU      3.15s WALL (      45 calls)
     mix_rho      :      0.16s CPU      0.17s WALL (      44 calls)

     Called by c_bands:
     init_us_2    :      2.76s CPU      2.80s WALL (   10080 calls)
     init_us_2:cp :      2.72s CPU      2.76s WALL (   10080 calls)
     cegterg      :    354.68s CPU    360.30s WALL (    4928 calls)

     Called by *egterg:
     cdiaghg      :     33.04s CPU     33.29s WALL (   29592 calls)
     h_psi        :    210.19s CPU    214.40s WALL (   29704 calls)
     s_psi        :     25.45s CPU     25.62s WALL (   29704 calls)
     g_psi        :      0.73s CPU      0.74s WALL (   24664 calls)

     Called by h_psi:
     h_psi:calbec :     28.49s CPU     29.30s WALL (   29704 calls)
     vloc_psi     :    155.47s CPU    158.69s WALL (   29704 calls)
     add_vuspsi   :     25.58s CPU     25.76s WALL (   29704 calls)

     General routines
     calbec       :     37.53s CPU     38.57s WALL (   35080 calls)
     fft          :      0.89s CPU      0.96s WALL (     594 calls)
     ffts         :      0.16s CPU      0.17s WALL (      89 calls)
     fftw         :    156.85s CPU    160.09s WALL (  676540 calls)
     interpolate  :      0.19s CPU      0.20s WALL (      45 calls)

     Parallel routines

     PWSCF        :   6m52.69s CPU   6m59.67s WALL


   This run was terminated on:  16:33:49  23Jun2025            

=------------------------------------------------------------------------------=
   JOB DONE.
=------------------------------------------------------------------------------=
Note: The following floating-point exceptions are signalling: IEEE_INVALID_FLAG
