
     Program PWSCF v.7.2 starts on 23Jun2025 at 12:41:52 

     This program is part of the open-source Quantum ESPRESSO suite
     for quantum simulation of materials; please cite
         "P. Giannozzi et al., J. Phys.:Condens. Matter 21 395502 (2009);
         "P. Giannozzi et al., J. Phys.:Condens. Matter 29 465901 (2017);
         "P. Giannozzi et al., J. Chem. Phys. 152 154105 (2020);
          URL http://www.quantum-espresso.org", 
     in publications or presentations arising from this work. More details at
     http://www.quantum-espresso.org/quote

     Parallel version (MPI), running on     8 processors

     MPI processes distributed on     1 nodes
     91326 MiB available memory on the printing compute node when the environment starts

     Reading input from /home/jvc/QEspresso7.2/ZnO_DataBase/scfs_rnd025.in/scf-5.81-1.55-3.in

     Current dimensions of program PWSCF are:
     Max number of different atomic species (ntypx) = 10
     Max number of k-points (npk) =  40000
     Max angular momentum in pseudopotentials (lmaxx) =  4
     file Zn.upf: wavefunction(s)  3D renormalized

     R & G space division:  proc/nbgrp/npool/nimage =       8
     Subspace diagonalization in iterative solution of the eigenvalue problem:
     a serial algorithm will be used


     Parallelization info
     --------------------
     sticks:   dense  smooth     PW     G-vecs:    dense   smooth      PW
     Min         116      57     18                 4446     1554     273
     Max         118      58     19                 4448     1556     275
     Sum         931     463    151                35571    12443    2189

     Using Slab Decomposition



     bravais-lattice index     =            4
     lattice parameter (alat)  =       5.8081  a.u.
     unit-cell volume          =     262.9676 (a.u.)^3
     number of atoms/cell      =            4
     number of atomic types    =            2
     number of electrons       =        36.00
     number of Kohn-Sham states=           18
     kinetic-energy cutoff     =      50.0000  Ry
     charge density cutoff     =     400.0000  Ry
     scf convergence threshold =      1.0E-08
     mixing beta               =       0.3000
     number of iterations used =            8  plain     mixing
     Exchange-correlation= PBE
                           (   1   4   3   4   0   0   0)

     celldm(1)=   5.808092  celldm(2)=   0.000000  celldm(3)=   1.549784
     celldm(4)=   0.000000  celldm(5)=   0.000000  celldm(6)=   0.000000

     crystal axes: (cart. coord. in units of alat)
               a(1) = (   1.000000   0.000000   0.000000 )  
               a(2) = (  -0.500000   0.866025   0.000000 )  
               a(3) = (   0.000000   0.000000   1.549784 )  

     reciprocal axes: (cart. coord. in units 2 pi/alat)
               b(1) = (  1.000000  0.577350 -0.000000 )  
               b(2) = (  0.000000  1.154701  0.000000 )  
               b(3) = (  0.000000 -0.000000  0.645251 )  


     PseudoPot. # 1 for Zn read from file:
     ./pseudos/Zn.upf
     MD5 check sum: 7f56cabf9682ed8c977c2f7d0c5985c5
     Pseudo is Ultrasoft + core correction, Zval = 12.0
     Generated using &quot;atomic&quot; code by A. Dal Corso  v.6.2.2
     Using radial grid of 1201 points,  6 beta functions with: 
                l(1) =   0
                l(2) =   0
                l(3) =   1
                l(4) =   1
                l(5) =   2
                l(6) =   2
     Q(r) pseudized with 0 coefficients 


     PseudoPot. # 2 for O  read from file:
     ./pseudos/O.upf
     MD5 check sum: 91400c9766925bcf19f520983a725ff0
     Pseudo is Ultrasoft + core correction, Zval =  6.0
     Generated using &quot;atomic&quot; code by A. Dal Corso  v.6.3MaX
     Using radial grid of 1095 points,  4 beta functions with: 
                l(1) =   0
                l(2) =   0
                l(3) =   1
                l(4) =   1
     Q(r) pseudized with 0 coefficients 


     atomic species   valence    mass     pseudopotential
        Zn            12.00    63.38000     Zn( 1.00)
        O              6.00    15.99900     O ( 1.00)

     No symmetry found



   Cartesian axes

     site n.     atom                  positions (alat units)
         1           Zn  tau(   1) = (   0.2927922   0.4244488   1.0315341  )
         2           Zn  tau(   2) = (  -0.0586394   0.4816315   0.0072540  )
         3           O   tau(   3) = (   0.3549377   0.1129311   1.2663703  )
         4           O   tau(   4) = (   0.0728853   0.4361121   0.2953181  )

     number of k points=   112

     Number of k-points >= 100: set verbosity='high' to print them.

     Dense  grid:    35571 G-vectors     FFT dimensions: (  40,  40,  60)

     Smooth grid:    12443 G-vectors     FFT dimensions: (  27,  27,  45)

     Estimated max dynamical RAM per process >      25.23 MB

     Estimated total dynamical RAM >     201.80 MB

     Check: negative core charge=   -0.000002

     Initial potential from superposition of free atoms

     starting charge      35.9925, renormalised to      36.0000
     Starting wfcs are   26 randomized atomic wfcs

     total cpu time spent up to now is        3.6 secs

     Self-consistent Calculation

     iteration #  1     ecut=    50.00 Ry     beta= 0.30
     Davidson diagonalization with overlap
     ethr =  1.00E-02,  avg # of iterations =  3.2

     total cpu time spent up to now is        9.7 secs

     total energy              =    -356.91279604 Ry
     estimated scf accuracy    <       1.62982717 Ry

     iteration #  2     ecut=    50.00 Ry     beta= 0.30
     Davidson diagonalization with overlap
     ethr =  4.53E-03,  avg # of iterations =  2.0

     total cpu time spent up to now is       14.8 secs

     total energy              =    -356.85812072 Ry
     estimated scf accuracy    <       0.36286335 Ry

     iteration #  3     ecut=    50.00 Ry     beta= 0.30
     Davidson diagonalization with overlap
     ethr =  1.01E-03,  avg # of iterations =  8.0

     total cpu time spent up to now is       25.6 secs

     total energy              =    -357.17941369 Ry
     estimated scf accuracy    <       0.66415582 Ry

     iteration #  4     ecut=    50.00 Ry     beta= 0.30
     Davidson diagonalization with overlap
     ethr =  1.01E-03,  avg # of iterations =  1.7

     total cpu time spent up to now is       30.0 secs

     total energy              =    -356.95588861 Ry
     estimated scf accuracy    <       0.32032566 Ry

     iteration #  5     ecut=    50.00 Ry     beta= 0.30
     Davidson diagonalization with overlap
     ethr =  8.90E-04,  avg # of iterations =  8.9

     total cpu time spent up to now is       41.4 secs

     total energy              =    -357.10440606 Ry
     estimated scf accuracy    <       0.77470245 Ry

     iteration #  6     ecut=    50.00 Ry     beta= 0.30
     Davidson diagonalization with overlap
     ethr =  8.90E-04,  avg # of iterations =  4.2

     total cpu time spent up to now is       47.4 secs

     total energy              =    -357.16365628 Ry
     estimated scf accuracy    <       0.13084592 Ry

     iteration #  7     ecut=    50.00 Ry     beta= 0.30
     Davidson diagonalization with overlap
     ethr =  3.63E-04,  avg # of iterations =  2.9

     total cpu time spent up to now is       52.5 secs

     total energy              =    -357.16793909 Ry
     estimated scf accuracy    <       0.06734968 Ry

     iteration #  8     ecut=    50.00 Ry     beta= 0.30
     Davidson diagonalization with overlap
     ethr =  1.87E-04,  avg # of iterations =  3.4

     total cpu time spent up to now is       58.0 secs

     total energy              =    -357.16845506 Ry
     estimated scf accuracy    <       0.02129402 Ry

     iteration #  9     ecut=    50.00 Ry     beta= 0.30
     Davidson diagonalization with overlap
     ethr =  5.92E-05,  avg # of iterations =  7.5

     total cpu time spent up to now is       66.6 secs

     total energy              =    -357.18367233 Ry
     estimated scf accuracy    <       0.00576138 Ry

     iteration # 10     ecut=    50.00 Ry     beta= 0.30
     Davidson diagonalization with overlap
     ethr =  1.60E-05,  avg # of iterations =  3.8

     total cpu time spent up to now is       72.0 secs

     total energy              =    -357.18488529 Ry
     estimated scf accuracy    <       0.01031566 Ry

     iteration # 11     ecut=    50.00 Ry     beta= 0.30
     Davidson diagonalization with overlap
     ethr =  1.60E-05,  avg # of iterations =  1.7

     total cpu time spent up to now is       76.5 secs

     total energy              =    -357.18137396 Ry
     estimated scf accuracy    <       0.01240749 Ry

     iteration # 12     ecut=    50.00 Ry     beta= 0.30
     Davidson diagonalization with overlap
     ethr =  1.60E-05,  avg # of iterations =  2.3

     total cpu time spent up to now is       81.3 secs

     total energy              =    -357.18153109 Ry
     estimated scf accuracy    <       0.00457473 Ry

     iteration # 13     ecut=    50.00 Ry     beta= 0.30
     Davidson diagonalization with overlap
     ethr =  1.27E-05,  avg # of iterations =  1.6

     total cpu time spent up to now is       85.7 secs

     total energy              =    -357.18131522 Ry
     estimated scf accuracy    <       0.00319726 Ry

     iteration # 14     ecut=    50.00 Ry     beta= 0.30
     Davidson diagonalization with overlap
     ethr =  8.88E-06,  avg # of iterations =  4.5

     total cpu time spent up to now is       91.1 secs

     total energy              =    -357.18161700 Ry
     estimated scf accuracy    <       0.00067730 Ry

     iteration # 15     ecut=    50.00 Ry     beta= 0.30
     Davidson diagonalization with overlap
     ethr =  1.88E-06,  avg # of iterations =  6.1

     total cpu time spent up to now is       98.2 secs

     total energy              =    -357.18192104 Ry
     estimated scf accuracy    <       0.00002900 Ry

     iteration # 16     ecut=    50.00 Ry     beta= 0.30
     Davidson diagonalization with overlap
     ethr =  8.06E-08,  avg # of iterations =  6.5

     total cpu time spent up to now is      105.8 secs

     total energy              =    -357.18195260 Ry
     estimated scf accuracy    <       0.00002448 Ry

     iteration # 17     ecut=    50.00 Ry     beta= 0.30
     Davidson diagonalization with overlap
     ethr =  6.80E-08,  avg # of iterations = 12.2

     total cpu time spent up to now is      118.3 secs

     total energy              =    -357.18196018 Ry
     estimated scf accuracy    <       0.00029802 Ry

     iteration # 18     ecut=    50.00 Ry     beta= 0.30
     Davidson diagonalization with overlap
     ethr =  6.80E-08,  avg # of iterations =  3.4

     total cpu time spent up to now is      123.7 secs

     total energy              =    -357.18189491 Ry
     estimated scf accuracy    <       0.00020109 Ry

     iteration # 19     ecut=    50.00 Ry     beta= 0.30
     Davidson diagonalization with overlap
     ethr =  6.80E-08,  avg # of iterations = 10.8

     total cpu time spent up to now is      134.8 secs

     total energy              =    -357.18193225 Ry
     estimated scf accuracy    <       0.00001070 Ry

     iteration # 20     ecut=    50.00 Ry     beta= 0.30
     Davidson diagonalization with overlap
     ethr =  2.97E-08,  avg # of iterations =  5.1

     total cpu time spent up to now is      141.4 secs

     total energy              =    -357.18197454 Ry
     estimated scf accuracy    <       0.00001420 Ry

     iteration # 21     ecut=    50.00 Ry     beta= 0.30
     Davidson diagonalization with overlap
     c_bands:  1 eigenvalues not converged
     c_bands:  1 eigenvalues not converged
     c_bands:  1 eigenvalues not converged
     ethr =  2.97E-08,  avg # of iterations = 14.1

     total cpu time spent up to now is      157.0 secs

     total energy              =    -357.18196771 Ry
     estimated scf accuracy    <       0.00048744 Ry

     iteration # 22     ecut=    50.00 Ry     beta= 0.30
     Davidson diagonalization with overlap
     ethr =  2.97E-08,  avg # of iterations =  7.1

     total cpu time spent up to now is      165.8 secs

     total energy              =    -357.18196479 Ry
     estimated scf accuracy    <       0.00024628 Ry

     iteration # 23     ecut=    50.00 Ry     beta= 0.30
     Davidson diagonalization with overlap
     ethr =  2.97E-08,  avg # of iterations =  2.8

     total cpu time spent up to now is      170.5 secs

     total energy              =    -357.18191270 Ry
     estimated scf accuracy    <       0.00020808 Ry

     iteration # 24     ecut=    50.00 Ry     beta= 0.30
     Davidson diagonalization with overlap
     ethr =  2.97E-08,  avg # of iterations = 11.8

     total cpu time spent up to now is      182.2 secs

     total energy              =    -357.18193386 Ry
     estimated scf accuracy    <       0.00001348 Ry

     iteration # 25     ecut=    50.00 Ry     beta= 0.30
     Davidson diagonalization with overlap
     ethr =  2.97E-08,  avg # of iterations =  1.0

     total cpu time spent up to now is      186.4 secs

     total energy              =    -357.18192962 Ry
     estimated scf accuracy    <       0.00001381 Ry

     iteration # 26     ecut=    50.00 Ry     beta= 0.30
     Davidson diagonalization with overlap
     ethr =  2.97E-08,  avg # of iterations =  4.0

     total cpu time spent up to now is      191.6 secs

     total energy              =    -357.18193095 Ry
     estimated scf accuracy    <       0.00000207 Ry

     iteration # 27     ecut=    50.00 Ry     beta= 0.30
     Davidson diagonalization with overlap
     ethr =  5.75E-09,  avg # of iterations =  5.9

     total cpu time spent up to now is      198.1 secs

     total energy              =    -357.18193172 Ry
     estimated scf accuracy    <       0.00000015 Ry

     iteration # 28     ecut=    50.00 Ry     beta= 0.30
     Davidson diagonalization with overlap
     ethr =  4.05E-10,  avg # of iterations =  5.8

     total cpu time spent up to now is      205.4 secs

     total energy              =    -357.18193179 Ry
     estimated scf accuracy    <       0.00000008 Ry

     iteration # 29     ecut=    50.00 Ry     beta= 0.30
     Davidson diagonalization with overlap
     ethr =  2.21E-10,  avg # of iterations =  1.7

     total cpu time spent up to now is      210.0 secs

     total energy              =    -357.18193178 Ry
     estimated scf accuracy    <       0.00000008 Ry

     iteration # 30     ecut=    50.00 Ry     beta= 0.30
     Davidson diagonalization with overlap
     ethr =  2.10E-10,  avg # of iterations =  2.7

     total cpu time spent up to now is      214.7 secs

     total energy              =    -357.18193177 Ry
     estimated scf accuracy    <       0.00000003 Ry

     iteration # 31     ecut=    50.00 Ry     beta= 0.30
     Davidson diagonalization with overlap
     ethr =  7.01E-11,  avg # of iterations =  8.5

     total cpu time spent up to now is      222.5 secs

     total energy              =    -357.18193179 Ry
     estimated scf accuracy    <       0.00000002 Ry

     iteration # 32     ecut=    50.00 Ry     beta= 0.30
     Davidson diagonalization with overlap
     ethr =  5.36E-11,  avg # of iterations =  1.8

     total cpu time spent up to now is      226.9 secs

     End of self-consistent calculation

     Number of k-points >= 100: set verbosity='high' to print the bands.

     highest occupied level (ev):    12.4780

!    total energy              =    -357.18193178 Ry
     estimated scf accuracy    <          9.8E-09 Ry

     The total energy is the sum of the following terms:
     one-electron contribution =    -208.42646142 Ry
     hartree contribution      =     146.19522740 Ry
     xc contribution           =    -111.35366737 Ry
     ewald contribution        =    -183.59703039 Ry

     convergence has been achieved in  32 iterations

     Forces acting on atoms (cartesian axes, Ry/au):

     atom    1 type  1   force =    -0.29096889    2.01839944   -1.92286286
     atom    2 type  1   force =    -3.72033645    1.29101857   -7.33057161
     atom    3 type  2   force =     0.47095409   -2.06681345    1.28859802
     atom    4 type  2   force =     3.54035126   -1.24260456    7.96483644
     The non-local contrib.  to forces
     atom    1 type  1   force =    -0.09703307    0.82824698   -0.04507747
     atom    2 type  1   force =     0.32220983   -0.30022105   -0.09600365
     atom    3 type  2   force =    -0.02447985    0.11739840   -0.70650712
     atom    4 type  2   force =    -0.31113659    0.07827725   -0.05706808
     The ionic contribution  to forces
     atom    1 type  1   force =     1.62864339   14.32116390  -36.16675977
     atom    2 type  1   force =   -19.11883505    4.03532607   -8.09257419
     atom    3 type  2   force =     3.93903295  -13.57943513    3.51346734
     atom    4 type  2   force =    13.55115871   -4.77705484   40.74586661
     The local contribution  to forces
     atom    1 type  1   force =    -1.84684841  -12.91864272   34.11962381
     atom    2 type  1   force =    14.84717494   -2.40123824    0.42218078
     atom    3 type  2   force =    -3.44171663   11.38793594   -1.51987790
     atom    4 type  2   force =    -9.69268546    3.45370548  -32.70148094
     The core correction contribution to forces
     atom    1 type  1   force =     0.02422853   -0.21239966    0.16935151
     atom    2 type  1   force =     0.22925905   -0.04289824    0.43624732
     atom    3 type  2   force =    -0.00192698    0.00730488    0.00159619
     atom    4 type  2   force =    -0.00703047    0.00248392   -0.02265242
     The Hubbard contrib.    to forces
     atom    1 type  1   force =     0.00000000    0.00000000    0.00000000
     atom    2 type  1   force =     0.00000000    0.00000000    0.00000000
     atom    3 type  2   force =     0.00000000    0.00000000    0.00000000
     atom    4 type  2   force =     0.00000000    0.00000000    0.00000000
     The SCF correction term to forces
     atom    1 type  1   force =     0.00000841    0.00004797   -0.00009359
     atom    2 type  1   force =    -0.00017749    0.00006706   -0.00051451
     atom    3 type  2   force =     0.00001234   -0.00000050   -0.00017313
     atom    4 type  2   force =     0.00001282    0.00000067    0.00007863

     Total force =    12.679578     Total SCF correction =     0.000590

     Writing all to output data dir ./ZnO_ANN.save/

     init_run     :      3.08s CPU      3.17s WALL (       1 calls)
     electrons    :    218.90s CPU    223.31s WALL (       1 calls)
     forces       :      0.89s CPU      0.90s WALL (       1 calls)

     Called by init_run:
     wfcinit      :      2.33s CPU      2.38s WALL (       1 calls)
     potinit      :      0.20s CPU      0.20s WALL (       1 calls)
     hinit0       :      0.49s CPU      0.51s WALL (       1 calls)

     Called by electrons:
     c_bands      :    195.47s CPU    199.34s WALL (      32 calls)
     sum_band     :     21.41s CPU     21.88s WALL (      32 calls)
     v_of_rho     :      0.44s CPU      0.49s WALL (      33 calls)
     newd         :      1.51s CPU      1.53s WALL (      33 calls)
     mix_rho      :      0.08s CPU      0.08s WALL (      32 calls)

     Called by c_bands:
     init_us_2    :      1.33s CPU      1.35s WALL (    7392 calls)
     init_us_2:cp :      1.31s CPU      1.33s WALL (    7392 calls)
     cegterg      :    191.19s CPU    194.98s WALL (    3584 calls)

     Called by *egterg:
     cdiaghg      :     23.89s CPU     24.12s WALL (   22283 calls)
     h_psi        :    114.67s CPU    117.47s WALL (   22395 calls)
     s_psi        :     11.57s CPU     11.70s WALL (   22395 calls)
     g_psi        :      0.34s CPU      0.35s WALL (   18699 calls)

     Called by h_psi:
     h_psi:calbec :     13.57s CPU     14.06s WALL (   22395 calls)
     vloc_psi     :     89.29s CPU     91.47s WALL (   22395 calls)
     add_vuspsi   :     11.45s CPU     11.58s WALL (   22395 calls)

     General routines
     calbec       :     18.15s CPU     18.77s WALL (   26427 calls)
     fft          :      0.65s CPU      0.71s WALL (     438 calls)
     ffts         :      0.08s CPU      0.08s WALL (      65 calls)
     fftw         :     93.29s CPU     95.55s WALL (  477484 calls)
     interpolate  :      0.09s CPU      0.10s WALL (      33 calls)

     Parallel routines

     PWSCF        :   3m43.61s CPU   3m48.24s WALL


   This run was terminated on:  12:45:40  23Jun2025            

=------------------------------------------------------------------------------=
   JOB DONE.
=------------------------------------------------------------------------------=
Note: The following floating-point exceptions are signalling: IEEE_INVALID_FLAG
