
     Program PWSCF v.7.2 starts on 23Jun2025 at 16: 6:20 

     This program is part of the open-source Quantum ESPRESSO suite
     for quantum simulation of materials; please cite
         "P. Giannozzi et al., J. Phys.:Condens. Matter 21 395502 (2009);
         "P. Giannozzi et al., J. Phys.:Condens. Matter 29 465901 (2017);
         "P. Giannozzi et al., J. Chem. Phys. 152 154105 (2020);
          URL http://www.quantum-espresso.org", 
     in publications or presentations arising from this work. More details at
     http://www.quantum-espresso.org/quote

     Parallel version (MPI), running on     8 processors

     MPI processes distributed on     1 nodes
     90895 MiB available memory on the printing compute node when the environment starts

     Reading input from /home/jvc/QEspresso7.2/ZnO_DataBase/scfs_rnd025.in/scf-6.43-1.65-4.in

     Current dimensions of program PWSCF are:
     Max number of different atomic species (ntypx) = 10
     Max number of k-points (npk) =  40000
     Max angular momentum in pseudopotentials (lmaxx) =  4
     file Zn.upf: wavefunction(s)  3D renormalized

     R & G space division:  proc/nbgrp/npool/nimage =       8
     Subspace diagonalization in iterative solution of the eigenvalue problem:
     a serial algorithm will be used


     Parallelization info
     --------------------
     sticks:   dense  smooth     PW     G-vecs:    dense   smooth      PW
     Min         143      71     20                 6387     2261     372
     Max         145      73     21                 6390     2262     381
     Sum        1147     571    163                51109    18089    3009

     Using Slab Decomposition



     bravais-lattice index     =            4
     lattice parameter (alat)  =       6.4260  a.u.
     unit-cell volume          =     378.3970 (a.u.)^3
     number of atoms/cell      =            4
     number of atomic types    =            2
     number of electrons       =        36.00
     number of Kohn-Sham states=           18
     kinetic-energy cutoff     =      50.0000  Ry
     charge density cutoff     =     400.0000  Ry
     scf convergence threshold =      1.0E-08
     mixing beta               =       0.3000
     number of iterations used =            8  plain     mixing
     Exchange-correlation= PBE
                           (   1   4   3   4   0   0   0)

     celldm(1)=   6.425974  celldm(2)=   0.000000  celldm(3)=   1.646646
     celldm(4)=   0.000000  celldm(5)=   0.000000  celldm(6)=   0.000000

     crystal axes: (cart. coord. in units of alat)
               a(1) = (   1.000000   0.000000   0.000000 )  
               a(2) = (  -0.500000   0.866025   0.000000 )  
               a(3) = (   0.000000   0.000000   1.646646 )  

     reciprocal axes: (cart. coord. in units 2 pi/alat)
               b(1) = (  1.000000  0.577350 -0.000000 )  
               b(2) = (  0.000000  1.154701  0.000000 )  
               b(3) = (  0.000000 -0.000000  0.607295 )  


     PseudoPot. # 1 for Zn read from file:
     ./pseudos/Zn.upf
     MD5 check sum: 7f56cabf9682ed8c977c2f7d0c5985c5
     Pseudo is Ultrasoft + core correction, Zval = 12.0
     Generated using &quot;atomic&quot; code by A. Dal Corso  v.6.2.2
     Using radial grid of 1201 points,  6 beta functions with: 
                l(1) =   0
                l(2) =   0
                l(3) =   1
                l(4) =   1
                l(5) =   2
                l(6) =   2
     Q(r) pseudized with 0 coefficients 


     PseudoPot. # 2 for O  read from file:
     ./pseudos/O.upf
     MD5 check sum: 91400c9766925bcf19f520983a725ff0
     Pseudo is Ultrasoft + core correction, Zval =  6.0
     Generated using &quot;atomic&quot; code by A. Dal Corso  v.6.3MaX
     Using radial grid of 1095 points,  4 beta functions with: 
                l(1) =   0
                l(2) =   0
                l(3) =   1
                l(4) =   1
     Q(r) pseudized with 0 coefficients 


     atomic species   valence    mass     pseudopotential
        Zn            12.00    63.38000     Zn( 1.00)
        O              6.00    15.99900     O ( 1.00)

     No symmetry found



   Cartesian axes

     site n.     atom                  positions (alat units)
         1           Zn  tau(   1) = (   0.3554554   0.1801568   0.4618451  )
         2           Zn  tau(   2) = (  -0.1461643   0.6205739   0.2765078  )
         3           O   tau(   3) = (   0.4461016   0.4670130   1.1466640  )
         4           O   tau(   4) = (   0.1058349   0.5571075   0.9721229  )

     number of k points=   112

     Number of k-points >= 100: set verbosity='high' to print them.

     Dense  grid:    51109 G-vectors     FFT dimensions: (  45,  45,  72)

     Smooth grid:    18089 G-vectors     FFT dimensions: (  30,  30,  48)

     Estimated max dynamical RAM per process >      34.84 MB

     Estimated total dynamical RAM >     278.70 MB

     Check: negative core charge=   -0.000003

     Initial potential from superposition of free atoms

     starting charge      35.9925, renormalised to      36.0000
     Starting wfcs are   26 randomized atomic wfcs

     total cpu time spent up to now is        4.3 secs

     Self-consistent Calculation

     iteration #  1     ecut=    50.00 Ry     beta= 0.30
     Davidson diagonalization with overlap
     ethr =  1.00E-02,  avg # of iterations =  2.0

     total cpu time spent up to now is       10.2 secs

     total energy              =    -360.29167433 Ry
     estimated scf accuracy    <       0.61588503 Ry

     iteration #  2     ecut=    50.00 Ry     beta= 0.30
     Davidson diagonalization with overlap
     ethr =  1.71E-03,  avg # of iterations =  7.7

     total cpu time spent up to now is       19.0 secs

     total energy              =    -360.47994807 Ry
     estimated scf accuracy    <       0.74302206 Ry

     iteration #  3     ecut=    50.00 Ry     beta= 0.30
     Davidson diagonalization with overlap
     ethr =  1.71E-03,  avg # of iterations =  1.8

     total cpu time spent up to now is       24.6 secs

     total energy              =    -360.28997848 Ry
     estimated scf accuracy    <       0.41386315 Ry

     iteration #  4     ecut=    50.00 Ry     beta= 0.30
     Davidson diagonalization with overlap
     ethr =  1.15E-03,  avg # of iterations =  8.2

     total cpu time spent up to now is       33.6 secs

     total energy              =    -360.44201583 Ry
     estimated scf accuracy    <       1.33487804 Ry

     iteration #  5     ecut=    50.00 Ry     beta= 0.30
     Davidson diagonalization with overlap
     ethr =  1.15E-03,  avg # of iterations =  5.6

     total cpu time spent up to now is       40.5 secs

     total energy              =    -360.50696149 Ry
     estimated scf accuracy    <       0.12094136 Ry

     iteration #  6     ecut=    50.00 Ry     beta= 0.30
     Davidson diagonalization with overlap
     ethr =  3.36E-04,  avg # of iterations =  6.0

     total cpu time spent up to now is       48.1 secs

     total energy              =    -360.55480596 Ry
     estimated scf accuracy    <       0.00910775 Ry

     iteration #  7     ecut=    50.00 Ry     beta= 0.30
     Davidson diagonalization with overlap
     ethr =  2.53E-05,  avg # of iterations =  7.9

     total cpu time spent up to now is       56.8 secs

     total energy              =    -360.55892847 Ry
     estimated scf accuracy    <       0.00197420 Ry

     iteration #  8     ecut=    50.00 Ry     beta= 0.30
     Davidson diagonalization with overlap
     c_bands:  1 eigenvalues not converged
     c_bands:  2 eigenvalues not converged
     c_bands:  1 eigenvalues not converged
     c_bands:  1 eigenvalues not converged
     ethr =  5.48E-06,  avg # of iterations = 13.4

     total cpu time spent up to now is       70.3 secs

     total energy              =    -360.55256847 Ry
     estimated scf accuracy    <       0.03015195 Ry

     iteration #  9     ecut=    50.00 Ry     beta= 0.30
     Davidson diagonalization with overlap
     c_bands:  1 eigenvalues not converged
     c_bands:  1 eigenvalues not converged
     c_bands:  2 eigenvalues not converged
     c_bands:  1 eigenvalues not converged
     c_bands:  1 eigenvalues not converged
     c_bands:  1 eigenvalues not converged
     c_bands:  1 eigenvalues not converged
     c_bands:  1 eigenvalues not converged
     c_bands:  1 eigenvalues not converged
     c_bands:  1 eigenvalues not converged
     c_bands:  1 eigenvalues not converged
     c_bands:  1 eigenvalues not converged
     c_bands:  1 eigenvalues not converged
     c_bands:  1 eigenvalues not converged
     c_bands:  1 eigenvalues not converged
     ethr =  5.48E-06,  avg # of iterations = 14.8

     total cpu time spent up to now is       83.6 secs

     total energy              =    -360.56096768 Ry
     estimated scf accuracy    <       0.00933964 Ry

     iteration # 10     ecut=    50.00 Ry     beta= 0.30
     Davidson diagonalization with overlap
     ethr =  5.48E-06,  avg # of iterations =  1.2

     total cpu time spent up to now is       88.7 secs

     total energy              =    -360.55998192 Ry
     estimated scf accuracy    <       0.00940316 Ry

     iteration # 11     ecut=    50.00 Ry     beta= 0.30
     Davidson diagonalization with overlap
     ethr =  5.48E-06,  avg # of iterations =  2.2

     total cpu time spent up to now is       94.4 secs

     total energy              =    -360.55814792 Ry
     estimated scf accuracy    <       0.00724566 Ry

     iteration # 12     ecut=    50.00 Ry     beta= 0.30
     Davidson diagonalization with overlap
     c_bands:  1 eigenvalues not converged
     c_bands:  1 eigenvalues not converged
     ethr =  5.48E-06,  avg # of iterations =  9.4

     total cpu time spent up to now is      103.9 secs

     total energy              =    -360.55998950 Ry
     estimated scf accuracy    <       0.00131702 Ry

     iteration # 13     ecut=    50.00 Ry     beta= 0.30
     Davidson diagonalization with overlap
     ethr =  3.66E-06,  avg # of iterations =  1.5

     total cpu time spent up to now is      109.1 secs

     total energy              =    -360.56000624 Ry
     estimated scf accuracy    <       0.00158222 Ry

     iteration # 14     ecut=    50.00 Ry     beta= 0.30
     Davidson diagonalization with overlap
     ethr =  3.66E-06,  avg # of iterations =  1.2

     total cpu time spent up to now is      114.2 secs

     total energy              =    -360.55996254 Ry
     estimated scf accuracy    <       0.00164638 Ry

     iteration # 15     ecut=    50.00 Ry     beta= 0.30
     Davidson diagonalization with overlap
     ethr =  3.66E-06,  avg # of iterations =  3.0

     total cpu time spent up to now is      120.0 secs

     total energy              =    -360.55983045 Ry
     estimated scf accuracy    <       0.00216368 Ry

     iteration # 16     ecut=    50.00 Ry     beta= 0.30
     Davidson diagonalization with overlap
     ethr =  3.66E-06,  avg # of iterations =  1.9

     total cpu time spent up to now is      125.6 secs

     total energy              =    -360.55974428 Ry
     estimated scf accuracy    <       0.00181563 Ry

     iteration # 17     ecut=    50.00 Ry     beta= 0.30
     Davidson diagonalization with overlap
     ethr =  3.66E-06,  avg # of iterations =  1.2

     total cpu time spent up to now is      130.7 secs

     total energy              =    -360.55970252 Ry
     estimated scf accuracy    <       0.00146743 Ry

     iteration # 18     ecut=    50.00 Ry     beta= 0.30
     Davidson diagonalization with overlap
     ethr =  3.66E-06,  avg # of iterations =  1.2

     total cpu time spent up to now is      135.8 secs

     total energy              =    -360.55963121 Ry
     estimated scf accuracy    <       0.00126877 Ry

     iteration # 19     ecut=    50.00 Ry     beta= 0.30
     Davidson diagonalization with overlap
     ethr =  3.52E-06,  avg # of iterations =  1.2

     total cpu time spent up to now is      140.8 secs

     total energy              =    -360.55960990 Ry
     estimated scf accuracy    <       0.00102376 Ry

     iteration # 20     ecut=    50.00 Ry     beta= 0.30
     Davidson diagonalization with overlap
     ethr =  2.84E-06,  avg # of iterations =  1.3

     total cpu time spent up to now is      145.9 secs

     total energy              =    -360.55938005 Ry
     estimated scf accuracy    <       0.00080003 Ry

     iteration # 21     ecut=    50.00 Ry     beta= 0.30
     Davidson diagonalization with overlap
     ethr =  2.22E-06,  avg # of iterations =  7.2

     total cpu time spent up to now is      153.5 secs

     total energy              =    -360.55943453 Ry
     estimated scf accuracy    <       0.00066505 Ry

     iteration # 22     ecut=    50.00 Ry     beta= 0.30
     Davidson diagonalization with overlap
     ethr =  1.85E-06,  avg # of iterations =  6.6

     total cpu time spent up to now is      160.9 secs

     total energy              =    -360.55962362 Ry
     estimated scf accuracy    <       0.00007754 Ry

     iteration # 23     ecut=    50.00 Ry     beta= 0.30
     Davidson diagonalization with overlap
     c_bands:  1 eigenvalues not converged
     ethr =  2.15E-07,  avg # of iterations =  8.4

     total cpu time spent up to now is      171.0 secs

     total energy              =    -360.55968955 Ry
     estimated scf accuracy    <       0.00027155 Ry

     iteration # 24     ecut=    50.00 Ry     beta= 0.30
     Davidson diagonalization with overlap
     ethr =  2.15E-07,  avg # of iterations =  2.0

     total cpu time spent up to now is      176.5 secs

     total energy              =    -360.55968878 Ry
     estimated scf accuracy    <       0.00027730 Ry

     iteration # 25     ecut=    50.00 Ry     beta= 0.30
     Davidson diagonalization with overlap
     ethr =  2.15E-07,  avg # of iterations =  4.6

     total cpu time spent up to now is      183.0 secs

     total energy              =    -360.55970922 Ry
     estimated scf accuracy    <       0.00034648 Ry

     iteration # 26     ecut=    50.00 Ry     beta= 0.30
     Davidson diagonalization with overlap
     ethr =  2.15E-07,  avg # of iterations =  1.5

     total cpu time spent up to now is      188.3 secs

     total energy              =    -360.55972720 Ry
     estimated scf accuracy    <       0.00037297 Ry

     iteration # 27     ecut=    50.00 Ry     beta= 0.30
     Davidson diagonalization with overlap
     ethr =  2.15E-07,  avg # of iterations =  2.5

     total cpu time spent up to now is      193.9 secs

     total energy              =    -360.55971482 Ry
     estimated scf accuracy    <       0.00045565 Ry

     iteration # 28     ecut=    50.00 Ry     beta= 0.30
     Davidson diagonalization with overlap
     ethr =  2.15E-07,  avg # of iterations =  7.4

     total cpu time spent up to now is      203.1 secs

     total energy              =    -360.55976638 Ry
     estimated scf accuracy    <       0.00065554 Ry

     iteration # 29     ecut=    50.00 Ry     beta= 0.30
     Davidson diagonalization with overlap
     ethr =  2.15E-07,  avg # of iterations =  1.4

     total cpu time spent up to now is      208.2 secs

     total energy              =    -360.55973855 Ry
     estimated scf accuracy    <       0.00069854 Ry

     iteration # 30     ecut=    50.00 Ry     beta= 0.30
     Davidson diagonalization with overlap
     ethr =  2.15E-07,  avg # of iterations =  1.0

     total cpu time spent up to now is      213.0 secs

     total energy              =    -360.55974707 Ry
     estimated scf accuracy    <       0.00065643 Ry

     iteration # 31     ecut=    50.00 Ry     beta= 0.30
     Davidson diagonalization with overlap
     ethr =  2.15E-07,  avg # of iterations =  2.3

     total cpu time spent up to now is      218.6 secs

     total energy              =    -360.55963820 Ry
     estimated scf accuracy    <       0.00068435 Ry

     iteration # 32     ecut=    50.00 Ry     beta= 0.30
     Davidson diagonalization with overlap
     ethr =  2.15E-07,  avg # of iterations =  7.8

     total cpu time spent up to now is      226.4 secs

     total energy              =    -360.55962042 Ry
     estimated scf accuracy    <       0.00019038 Ry

     iteration # 33     ecut=    50.00 Ry     beta= 0.30
     Davidson diagonalization with overlap
     ethr =  2.15E-07,  avg # of iterations =  5.6

     total cpu time spent up to now is      234.3 secs

     total energy              =    -360.55963152 Ry
     estimated scf accuracy    <       0.00002353 Ry

     iteration # 34     ecut=    50.00 Ry     beta= 0.30
     Davidson diagonalization with overlap
     ethr =  6.54E-08,  avg # of iterations =  9.7

     total cpu time spent up to now is      244.7 secs

     total energy              =    -360.55964480 Ry
     estimated scf accuracy    <       0.00003004 Ry

     iteration # 35     ecut=    50.00 Ry     beta= 0.30
     Davidson diagonalization with overlap
     ethr =  6.54E-08,  avg # of iterations =  1.4

     total cpu time spent up to now is      249.9 secs

     total energy              =    -360.55964138 Ry
     estimated scf accuracy    <       0.00001677 Ry

     iteration # 36     ecut=    50.00 Ry     beta= 0.30
     Davidson diagonalization with overlap
     ethr =  4.66E-08,  avg # of iterations =  5.3

     total cpu time spent up to now is      257.6 secs

     total energy              =    -360.55964664 Ry
     estimated scf accuracy    <       0.00000023 Ry

     iteration # 37     ecut=    50.00 Ry     beta= 0.30
     Davidson diagonalization with overlap
     c_bands:  1 eigenvalues not converged
     c_bands:  1 eigenvalues not converged
     c_bands:  1 eigenvalues not converged
     c_bands:  1 eigenvalues not converged
     c_bands:  2 eigenvalues not converged
     c_bands:  2 eigenvalues not converged
     c_bands:  1 eigenvalues not converged
     c_bands:  1 eigenvalues not converged
     c_bands:  1 eigenvalues not converged
     c_bands:  1 eigenvalues not converged
     c_bands:  2 eigenvalues not converged
     c_bands:  1 eigenvalues not converged
     c_bands:  2 eigenvalues not converged
     c_bands:  1 eigenvalues not converged
     c_bands:  1 eigenvalues not converged
     c_bands:  2 eigenvalues not converged
     c_bands:  1 eigenvalues not converged
     c_bands:  2 eigenvalues not converged
     c_bands:  1 eigenvalues not converged
     c_bands:  2 eigenvalues not converged
     c_bands:  1 eigenvalues not converged
     c_bands:  1 eigenvalues not converged
     c_bands:  2 eigenvalues not converged
     ethr =  6.30E-10,  avg # of iterations = 15.3

     total cpu time spent up to now is      274.1 secs

     total energy              =    -360.55964677 Ry
     estimated scf accuracy    <       0.00000380 Ry

     iteration # 38     ecut=    50.00 Ry     beta= 0.30
     Davidson diagonalization with overlap
     c_bands:  1 eigenvalues not converged
     c_bands:  1 eigenvalues not converged
     c_bands:  1 eigenvalues not converged
     c_bands:  1 eigenvalues not converged
     c_bands:  1 eigenvalues not converged
     c_bands:  1 eigenvalues not converged
     c_bands:  1 eigenvalues not converged
     c_bands:  1 eigenvalues not converged
     c_bands:  1 eigenvalues not converged
     ethr =  6.30E-10,  avg # of iterations = 13.8

     total cpu time spent up to now is      286.5 secs

     total energy              =    -360.55964697 Ry
     estimated scf accuracy    <       0.00000146 Ry

     iteration # 39     ecut=    50.00 Ry     beta= 0.30
     Davidson diagonalization with overlap
     ethr =  6.30E-10,  avg # of iterations =  7.0

     total cpu time spent up to now is      296.6 secs

     total energy              =    -360.55964720 Ry
     estimated scf accuracy    <       0.00000036 Ry

     iteration # 40     ecut=    50.00 Ry     beta= 0.30
     Davidson diagonalization with overlap
     ethr =  6.30E-10,  avg # of iterations =  3.6

     total cpu time spent up to now is      302.6 secs

     total energy              =    -360.55964713 Ry
     estimated scf accuracy    <       0.00000029 Ry

     iteration # 41     ecut=    50.00 Ry     beta= 0.30
     Davidson diagonalization with overlap
     ethr =  6.30E-10,  avg # of iterations =  3.9

     total cpu time spent up to now is      308.6 secs

     total energy              =    -360.55964716 Ry
     estimated scf accuracy    <       0.00000007 Ry

     iteration # 42     ecut=    50.00 Ry     beta= 0.30
     Davidson diagonalization with overlap
     ethr =  2.02E-10,  avg # of iterations =  5.7

     total cpu time spent up to now is      315.5 secs

     total energy              =    -360.55964718 Ry
     estimated scf accuracy    <       0.00000003 Ry

     iteration # 43     ecut=    50.00 Ry     beta= 0.30
     Davidson diagonalization with overlap
     ethr =  9.42E-11,  avg # of iterations =  2.6

     total cpu time spent up to now is      321.0 secs

     total energy              =    -360.55964718 Ry
     estimated scf accuracy    <       0.00000003 Ry

     iteration # 44     ecut=    50.00 Ry     beta= 0.30
     Davidson diagonalization with overlap
     ethr =  8.83E-11,  avg # of iterations =  1.2

     total cpu time spent up to now is      326.0 secs

     total energy              =    -360.55964718 Ry
     estimated scf accuracy    <       0.00000003 Ry

     iteration # 45     ecut=    50.00 Ry     beta= 0.30
     Davidson diagonalization with overlap
     ethr =  8.62E-11,  avg # of iterations =  1.2

     total cpu time spent up to now is      331.0 secs

     total energy              =    -360.55964717 Ry
     estimated scf accuracy    <       0.00000003 Ry

     iteration # 46     ecut=    50.00 Ry     beta= 0.30
     Davidson diagonalization with overlap
     ethr =  7.33E-11,  avg # of iterations =  2.5

     total cpu time spent up to now is      336.7 secs

     End of self-consistent calculation

     Number of k-points >= 100: set verbosity='high' to print the bands.

     highest occupied level (ev):     6.8236

!    total energy              =    -360.55964717 Ry
     estimated scf accuracy    <          8.5E-09 Ry

     The total energy is the sum of the following terms:
     one-electron contribution =    -219.50716187 Ry
     hartree contribution      =     146.40670204 Ry
     xc contribution           =    -109.32013721 Ry
     ewald contribution        =    -178.13905012 Ry

     convergence has been achieved in  46 iterations

     Forces acting on atoms (cartesian axes, Ry/au):

     atom    1 type  1   force =     0.00278524    1.12543275    0.55262911
     atom    2 type  1   force =    -0.00572998   -1.11939744   -0.54724180
     atom    3 type  2   force =     0.00389526    0.00559496    0.01701670
     atom    4 type  2   force =    -0.00095052   -0.01163027   -0.02240401
     The non-local contrib.  to forces
     atom    1 type  1   force =     0.01521892   -0.56727946    0.12696828
     atom    2 type  1   force =     0.10594482    0.50721075    0.02015277
     atom    3 type  2   force =    -1.83418380    0.53336747   -1.00469384
     atom    4 type  2   force =     1.94081221   -0.49855716    0.44083288
     The ionic contribution  to forces
     atom    1 type  1   force =     0.23117764   13.49410331    6.26882065
     atom    2 type  1   force =    -0.45161037  -14.31561788  -21.89968239
     atom    3 type  2   force =     6.50361637   -1.34350924    9.20830365
     atom    4 type  2   force =    -6.28318365    2.16502382    6.42255809
     The local contribution  to forces
     atom    1 type  1   force =    -0.24152715  -11.74820438   -5.80547771
     atom    2 type  1   force =     0.34145596   12.63100692   21.29133099
     atom    3 type  2   force =    -4.68292269    0.82099232   -8.19599094
     atom    4 type  2   force =     4.35964804   -1.68249586   -6.88147498
     The core correction contribution to forces
     atom    1 type  1   force =    -0.00210544   -0.05318243   -0.03755357
     atom    2 type  1   force =    -0.00152464    0.05800746    0.04101455
     atom    3 type  2   force =     0.01728160   -0.00522033    0.00924467
     atom    4 type  2   force =    -0.01828532    0.00441185   -0.00439037
     The Hubbard contrib.    to forces
     atom    1 type  1   force =     0.00000000    0.00000000    0.00000000
     atom    2 type  1   force =     0.00000000    0.00000000    0.00000000
     atom    3 type  2   force =     0.00000000    0.00000000    0.00000000
     atom    4 type  2   force =     0.00000000    0.00000000    0.00000000
     The SCF correction term to forces
     atom    1 type  1   force =     0.00000318    0.00000223   -0.00016883
     atom    2 type  1   force =    -0.00001385    0.00000182   -0.00009800
     atom    3 type  2   force =     0.00008568   -0.00002875    0.00011288
     atom    4 type  2   force =     0.00004011   -0.00000640    0.00003008

     Total force =     1.767919     Total SCF correction =     0.000249

     Writing all to output data dir ./ZnO_ANN.save/

     init_run     :      3.76s CPU      3.87s WALL (       1 calls)
     electrons    :    326.63s CPU    332.38s WALL (       1 calls)
     forces       :      1.17s CPU      1.19s WALL (       1 calls)

     Called by init_run:
     wfcinit      :      2.80s CPU      2.87s WALL (       1 calls)
     potinit      :      0.31s CPU      0.32s WALL (       1 calls)
     hinit0       :      0.55s CPU      0.57s WALL (       1 calls)

     Called by electrons:
     c_bands      :    286.37s CPU    291.24s WALL (      46 calls)
     sum_band     :     36.15s CPU     36.93s WALL (      46 calls)
     v_of_rho     :      0.91s CPU      0.97s WALL (      47 calls)
     newd         :      3.03s CPU      3.06s WALL (      47 calls)
     mix_rho      :      0.15s CPU      0.17s WALL (      46 calls)

     Called by c_bands:
     init_us_2    :      2.69s CPU      2.73s WALL (   10528 calls)
     init_us_2:cp :      2.65s CPU      2.70s WALL (   10528 calls)
     cegterg      :    277.61s CPU    282.37s WALL (    5152 calls)

     Called by *egterg:
     cdiaghg      :     31.93s CPU     32.22s WALL (   30256 calls)
     h_psi        :    162.57s CPU    166.10s WALL (   30368 calls)
     s_psi        :     20.62s CPU     20.78s WALL (   30368 calls)
     g_psi        :      0.55s CPU      0.55s WALL (   25104 calls)

     Called by h_psi:
     h_psi:calbec :     22.76s CPU     23.39s WALL (   30368 calls)
     vloc_psi     :    118.56s CPU    121.29s WALL (   30368 calls)
     add_vuspsi   :     20.66s CPU     20.84s WALL (   30368 calls)

     General routines
     calbec       :     31.44s CPU     32.30s WALL (   35968 calls)
     fft          :      0.88s CPU      0.95s WALL (     620 calls)
     ffts         :      0.17s CPU      0.17s WALL (      93 calls)
     fftw         :    122.58s CPU    125.41s WALL (  597888 calls)
     interpolate  :      0.20s CPU      0.21s WALL (      47 calls)

     Parallel routines

     PWSCF        :   5m32.29s CPU   5m38.39s WALL


   This run was terminated on:  16:11:59  23Jun2025            

=------------------------------------------------------------------------------=
   JOB DONE.
=------------------------------------------------------------------------------=
Note: The following floating-point exceptions are signalling: IEEE_INVALID_FLAG
