
     Program PWSCF v.7.2 starts on 23Jun2025 at 13:14:15 

     This program is part of the open-source Quantum ESPRESSO suite
     for quantum simulation of materials; please cite
         "P. Giannozzi et al., J. Phys.:Condens. Matter 21 395502 (2009);
         "P. Giannozzi et al., J. Phys.:Condens. Matter 29 465901 (2017);
         "P. Giannozzi et al., J. Chem. Phys. 152 154105 (2020);
          URL http://www.quantum-espresso.org", 
     in publications or presentations arising from this work. More details at
     http://www.quantum-espresso.org/quote

     Parallel version (MPI), running on     8 processors

     MPI processes distributed on     1 nodes
     91298 MiB available memory on the printing compute node when the environment starts

     Reading input from /home/jvc/QEspresso7.2/ZnO_DataBase/scfs_rnd025.in/scf-5.93-1.55-2.in

     Current dimensions of program PWSCF are:
     Max number of different atomic species (ntypx) = 10
     Max number of k-points (npk) =  40000
     Max angular momentum in pseudopotentials (lmaxx) =  4
     file Zn.upf: wavefunction(s)  3D renormalized

     R & G space division:  proc/nbgrp/npool/nimage =       8
     Subspace diagonalization in iterative solution of the eigenvalue problem:
     a serial algorithm will be used


     Parallelization info
     --------------------
     sticks:   dense  smooth     PW     G-vecs:    dense   smooth      PW
     Min         119      61     18                 4719     1671     286
     Max         120      63     19                 4730     1673     289
     Sum         955     499    151                37793    13379    2309

     Using Slab Decomposition



     bravais-lattice index     =            4
     lattice parameter (alat)  =       5.9317  a.u.
     unit-cell volume          =     280.1125 (a.u.)^3
     number of atoms/cell      =            4
     number of atomic types    =            2
     number of electrons       =        36.00
     number of Kohn-Sham states=           18
     kinetic-energy cutoff     =      50.0000  Ry
     charge density cutoff     =     400.0000  Ry
     scf convergence threshold =      1.0E-08
     mixing beta               =       0.3000
     number of iterations used =            8  plain     mixing
     Exchange-correlation= PBE
                           (   1   4   3   4   0   0   0)

     celldm(1)=   5.931669  celldm(2)=   0.000000  celldm(3)=   1.549784
     celldm(4)=   0.000000  celldm(5)=   0.000000  celldm(6)=   0.000000

     crystal axes: (cart. coord. in units of alat)
               a(1) = (   1.000000   0.000000   0.000000 )  
               a(2) = (  -0.500000   0.866025   0.000000 )  
               a(3) = (   0.000000   0.000000   1.549784 )  

     reciprocal axes: (cart. coord. in units 2 pi/alat)
               b(1) = (  1.000000  0.577350 -0.000000 )  
               b(2) = (  0.000000  1.154701  0.000000 )  
               b(3) = (  0.000000 -0.000000  0.645251 )  


     PseudoPot. # 1 for Zn read from file:
     ./pseudos/Zn.upf
     MD5 check sum: 7f56cabf9682ed8c977c2f7d0c5985c5
     Pseudo is Ultrasoft + core correction, Zval = 12.0
     Generated using &quot;atomic&quot; code by A. Dal Corso  v.6.2.2
     Using radial grid of 1201 points,  6 beta functions with: 
                l(1) =   0
                l(2) =   0
                l(3) =   1
                l(4) =   1
                l(5) =   2
                l(6) =   2
     Q(r) pseudized with 0 coefficients 


     PseudoPot. # 2 for O  read from file:
     ./pseudos/O.upf
     MD5 check sum: 91400c9766925bcf19f520983a725ff0
     Pseudo is Ultrasoft + core correction, Zval =  6.0
     Generated using &quot;atomic&quot; code by A. Dal Corso  v.6.3MaX
     Using radial grid of 1095 points,  4 beta functions with: 
                l(1) =   0
                l(2) =   0
                l(3) =   1
                l(4) =   1
     Q(r) pseudized with 0 coefficients 


     atomic species   valence    mass     pseudopotential
        Zn            12.00    63.38000     Zn( 1.00)
        O              6.00    15.99900     O ( 1.00)

     No symmetry found



   Cartesian axes

     site n.     atom                  positions (alat units)
         1           Zn  tau(   1) = (   0.3384984   0.3828983   0.9856359  )
         2           Zn  tau(   2) = (  -0.2555642   0.6153089  -0.2911050  )
         3           O   tau(   3) = (   0.2471493   0.3097692   1.3393422  )
         4           O   tau(   4) = (   0.0646956   0.6062261   0.4888982  )

     number of k points=   112

     Number of k-points >= 100: set verbosity='high' to print them.

     Dense  grid:    37793 G-vectors     FFT dimensions: (  40,  40,  60)

     Smooth grid:    13379 G-vectors     FFT dimensions: (  27,  27,  45)

     Estimated max dynamical RAM per process >      26.56 MB

     Estimated total dynamical RAM >     212.45 MB

     Check: negative core charge=   -0.000002

     Initial potential from superposition of free atoms

     starting charge      35.9925, renormalised to      36.0000
     Starting wfcs are   26 randomized atomic wfcs

     total cpu time spent up to now is        3.7 secs

     Self-consistent Calculation

     iteration #  1     ecut=    50.00 Ry     beta= 0.30
     Davidson diagonalization with overlap
     ethr =  1.00E-02,  avg # of iterations =  2.1

     total cpu time spent up to now is        8.8 secs

     total energy              =    -359.26503363 Ry
     estimated scf accuracy    <       1.36397800 Ry

     iteration #  2     ecut=    50.00 Ry     beta= 0.30
     Davidson diagonalization with overlap
     ethr =  3.79E-03,  avg # of iterations =  5.8

     total cpu time spent up to now is       15.5 secs

     total energy              =    -359.56634290 Ry
     estimated scf accuracy    <       0.23363295 Ry

     iteration #  3     ecut=    50.00 Ry     beta= 0.30
     Davidson diagonalization with overlap
     ethr =  6.49E-04,  avg # of iterations =  4.7

     total cpu time spent up to now is       22.1 secs

     total energy              =    -359.61592741 Ry
     estimated scf accuracy    <       0.03882128 Ry

     iteration #  4     ecut=    50.00 Ry     beta= 0.30
     Davidson diagonalization with overlap
     ethr =  1.08E-04,  avg # of iterations =  7.5

     total cpu time spent up to now is       29.7 secs

     total energy              =    -359.61744571 Ry
     estimated scf accuracy    <       0.03638517 Ry

     iteration #  5     ecut=    50.00 Ry     beta= 0.30
     Davidson diagonalization with overlap
     c_bands:  2 eigenvalues not converged
     ethr =  1.01E-04,  avg # of iterations =  7.9

     total cpu time spent up to now is       37.5 secs

     total energy              =    -359.62281337 Ry
     estimated scf accuracy    <       0.17445073 Ry

     iteration #  6     ecut=    50.00 Ry     beta= 0.30
     Davidson diagonalization with overlap
     ethr =  1.01E-04,  avg # of iterations =  7.6

     total cpu time spent up to now is       44.3 secs

     total energy              =    -359.62769778 Ry
     estimated scf accuracy    <       0.01377432 Ry

     iteration #  7     ecut=    50.00 Ry     beta= 0.30
     Davidson diagonalization with overlap
     c_bands:  1 eigenvalues not converged
     ethr =  3.83E-05,  avg # of iterations =  7.1

     total cpu time spent up to now is       51.6 secs

     total energy              =    -359.63166106 Ry
     estimated scf accuracy    <       0.02097770 Ry

     iteration #  8     ecut=    50.00 Ry     beta= 0.30
     Davidson diagonalization with overlap
     ethr =  3.83E-05,  avg # of iterations =  1.8

     total cpu time spent up to now is       56.2 secs

     total energy              =    -359.63135359 Ry
     estimated scf accuracy    <       0.01145569 Ry

     iteration #  9     ecut=    50.00 Ry     beta= 0.30
     Davidson diagonalization with overlap
     ethr =  3.18E-05,  avg # of iterations =  6.2

     total cpu time spent up to now is       61.8 secs

     total energy              =    -359.63276237 Ry
     estimated scf accuracy    <       0.00151754 Ry

     iteration # 10     ecut=    50.00 Ry     beta= 0.30
     Davidson diagonalization with overlap
     ethr =  4.22E-06,  avg # of iterations =  7.4

     total cpu time spent up to now is       68.4 secs

     total energy              =    -359.63373182 Ry
     estimated scf accuracy    <       0.00028656 Ry

     iteration # 11     ecut=    50.00 Ry     beta= 0.30
     Davidson diagonalization with overlap
     ethr =  7.96E-07,  avg # of iterations =  2.9

     total cpu time spent up to now is       73.3 secs

     total energy              =    -359.63366386 Ry
     estimated scf accuracy    <       0.00013361 Ry

     iteration # 12     ecut=    50.00 Ry     beta= 0.30
     Davidson diagonalization with overlap
     c_bands:  2 eigenvalues not converged
     ethr =  3.71E-07,  avg # of iterations =  9.4

     total cpu time spent up to now is       81.8 secs

     total energy              =    -359.63374757 Ry
     estimated scf accuracy    <       0.00079466 Ry

     iteration # 13     ecut=    50.00 Ry     beta= 0.30
     Davidson diagonalization with overlap
     ethr =  3.71E-07,  avg # of iterations =  6.6

     total cpu time spent up to now is       88.0 secs

     total energy              =    -359.63375010 Ry
     estimated scf accuracy    <       0.00018661 Ry

     iteration # 14     ecut=    50.00 Ry     beta= 0.30
     Davidson diagonalization with overlap
     ethr =  3.71E-07,  avg # of iterations =  2.6

     total cpu time spent up to now is       92.7 secs

     total energy              =    -359.63375139 Ry
     estimated scf accuracy    <       0.00009694 Ry

     iteration # 15     ecut=    50.00 Ry     beta= 0.30
     Davidson diagonalization with overlap
     ethr =  2.69E-07,  avg # of iterations =  3.3

     total cpu time spent up to now is       97.8 secs

     total energy              =    -359.63375130 Ry
     estimated scf accuracy    <       0.00003420 Ry

     iteration # 16     ecut=    50.00 Ry     beta= 0.30
     Davidson diagonalization with overlap
     ethr =  9.50E-08,  avg # of iterations =  7.0

     total cpu time spent up to now is      104.6 secs

     total energy              =    -359.63376743 Ry
     estimated scf accuracy    <       0.00001119 Ry

     iteration # 17     ecut=    50.00 Ry     beta= 0.30
     Davidson diagonalization with overlap
     ethr =  3.11E-08,  avg # of iterations =  2.1

     total cpu time spent up to now is      109.3 secs

     total energy              =    -359.63377298 Ry
     estimated scf accuracy    <       0.00001738 Ry

     iteration # 18     ecut=    50.00 Ry     beta= 0.30
     Davidson diagonalization with overlap
     ethr =  3.11E-08,  avg # of iterations =  6.2

     total cpu time spent up to now is      115.1 secs

     total energy              =    -359.63376092 Ry
     estimated scf accuracy    <       0.00005232 Ry

     iteration # 19     ecut=    50.00 Ry     beta= 0.30
     Davidson diagonalization with overlap
     ethr =  3.11E-08,  avg # of iterations =  7.5

     total cpu time spent up to now is      121.6 secs

     total energy              =    -359.63376394 Ry
     estimated scf accuracy    <       0.00000320 Ry

     iteration # 20     ecut=    50.00 Ry     beta= 0.30
     Davidson diagonalization with overlap
     ethr =  8.90E-09,  avg # of iterations =  7.2

     total cpu time spent up to now is      128.5 secs

     total energy              =    -359.63376507 Ry
     estimated scf accuracy    <       0.00000183 Ry

     iteration # 21     ecut=    50.00 Ry     beta= 0.30
     Davidson diagonalization with overlap
     ethr =  5.10E-09,  avg # of iterations =  1.1

     total cpu time spent up to now is      132.8 secs

     total energy              =    -359.63376496 Ry
     estimated scf accuracy    <       0.00000109 Ry

     iteration # 22     ecut=    50.00 Ry     beta= 0.30
     Davidson diagonalization with overlap
     ethr =  3.02E-09,  avg # of iterations =  7.1

     total cpu time spent up to now is      139.1 secs

     total energy              =    -359.63376519 Ry
     estimated scf accuracy    <       0.00000001 Ry

     iteration # 23     ecut=    50.00 Ry     beta= 0.30
     Davidson diagonalization with overlap
     c_bands:  2 eigenvalues not converged
     ethr =  4.09E-11,  avg # of iterations =  8.9

     total cpu time spent up to now is      148.0 secs

     End of self-consistent calculation

     Number of k-points >= 100: set verbosity='high' to print the bands.

     highest occupied level (ev):    10.8285

!    total energy              =    -359.63376521 Ry
     estimated scf accuracy    <          8.6E-09 Ry

     The total energy is the sum of the following terms:
     one-electron contribution =    -222.86363483 Ry
     hartree contribution      =     151.76882185 Ry
     xc contribution           =    -110.46302105 Ry
     ewald contribution        =    -178.07593119 Ry

     convergence has been achieved in  23 iterations

     Forces acting on atoms (cartesian axes, Ry/au):

     atom    1 type  1   force =     0.30223599    0.38745377   -3.81906119
     atom    2 type  1   force =     0.51136301    0.24516535    0.49365156
     atom    3 type  2   force =    -0.79667462   -0.65307987    3.23374289
     atom    4 type  2   force =    -0.01692438    0.02046075    0.09166674
     The non-local contrib.  to forces
     atom    1 type  1   force =     0.53823203    0.06312265    0.56486317
     atom    2 type  1   force =    -0.22753027   -0.21688919   -0.19621574
     atom    3 type  2   force =     0.27064728    0.02411348   -1.47981911
     atom    4 type  2   force =     0.20120375   -0.14320415    0.86441221
     The ionic contribution  to forces
     atom    1 type  1   force =     1.02238562   -0.59192461  -41.71353375
     atom    2 type  1   force =     5.97456717    3.00899021   18.66767820
     atom    3 type  2   force =    -5.66549736   -4.09125857   31.96142031
     atom    4 type  2   force =    -1.33145543    1.67419296   -8.91556475
     The local contribution  to forces
     atom    1 type  1   force =    -1.18095032    0.94934594   37.04057068
     atom    2 type  1   force =    -5.21009208   -2.54251510  -17.94746075
     atom    3 type  2   force =     4.59758519    3.41208402  -27.24813257
     atom    4 type  2   force =     1.11499053   -1.51149419    8.15070064
     The core correction contribution to forces
     atom    1 type  1   force =    -0.07756403   -0.03313613    0.28917280
     atom    2 type  1   force =    -0.02556483   -0.00440711   -0.03046983
     atom    3 type  2   force =     0.00063170    0.00198746    0.00020420
     atom    4 type  2   force =    -0.00163837    0.00097240   -0.00778286
     The Hubbard contrib.    to forces
     atom    1 type  1   force =     0.00000000    0.00000000    0.00000000
     atom    2 type  1   force =     0.00000000    0.00000000    0.00000000
     atom    3 type  2   force =     0.00000000    0.00000000    0.00000000
     atom    4 type  2   force =     0.00000000    0.00000000    0.00000000
     The SCF correction term to forces
     atom    1 type  1   force =     0.00015800    0.00005168   -0.00014551
     atom    2 type  1   force =     0.00000832   -0.00000769    0.00010825
     atom    3 type  2   force =    -0.00001613   -0.00000049    0.00005863
     atom    4 type  2   force =     0.00000045   -0.00000051   -0.00010992

     Total force =     5.188390     Total SCF correction =     0.000276

     Writing all to output data dir ./ZnO_ANN.save/

     init_run     :      3.18s CPU      3.27s WALL (       1 calls)
     electrons    :    141.59s CPU    144.27s WALL (       1 calls)
     forces       :      0.89s CPU      0.91s WALL (       1 calls)

     Called by init_run:
     wfcinit      :      2.36s CPU      2.42s WALL (       1 calls)
     potinit      :      0.20s CPU      0.20s WALL (       1 calls)
     hinit0       :      0.56s CPU      0.57s WALL (       1 calls)

     Called by electrons:
     c_bands      :    124.57s CPU    126.85s WALL (      23 calls)
     sum_band     :     15.49s CPU     15.85s WALL (      23 calls)
     v_of_rho     :      0.34s CPU      0.36s WALL (      24 calls)
     newd         :      1.15s CPU      1.18s WALL (      24 calls)
     mix_rho      :      0.06s CPU      0.06s WALL (      23 calls)

     Called by c_bands:
     init_us_2    :      0.92s CPU      0.94s WALL (    5376 calls)
     init_us_2:cp :      0.90s CPU      0.92s WALL (    5376 calls)
     cegterg      :    121.39s CPU    123.60s WALL (    2576 calls)

     Called by *egterg:
     cdiaghg      :     17.02s CPU     17.21s WALL (   17162 calls)
     h_psi        :     72.32s CPU     73.94s WALL (   17274 calls)
     s_psi        :      6.74s CPU      6.82s WALL (   17274 calls)
     g_psi        :      0.20s CPU      0.21s WALL (   14586 calls)

     Called by h_psi:
     h_psi:calbec :      8.99s CPU      9.26s WALL (   17274 calls)
     vloc_psi     :     56.33s CPU     57.60s WALL (   17274 calls)
     add_vuspsi   :      6.77s CPU      6.84s WALL (   17274 calls)

     General routines
     calbec       :     12.60s CPU     12.97s WALL (   20298 calls)
     fft          :      0.55s CPU      0.57s WALL (     321 calls)
     ffts         :      0.08s CPU      0.08s WALL (      47 calls)
     fftw         :     60.42s CPU     61.81s WALL (  304370 calls)
     interpolate  :      0.09s CPU      0.09s WALL (      24 calls)

     Parallel routines

     PWSCF        :   2m26.39s CPU   2m29.33s WALL


   This run was terminated on:  13:16:44  23Jun2025            

=------------------------------------------------------------------------------=
   JOB DONE.
=------------------------------------------------------------------------------=
Note: The following floating-point exceptions are signalling: IEEE_INVALID_FLAG
