
     Program PWSCF v.7.2 starts on 23Jun2025 at 14:46: 4 

     This program is part of the open-source Quantum ESPRESSO suite
     for quantum simulation of materials; please cite
         "P. Giannozzi et al., J. Phys.:Condens. Matter 21 395502 (2009);
         "P. Giannozzi et al., J. Phys.:Condens. Matter 29 465901 (2017);
         "P. Giannozzi et al., J. Chem. Phys. 152 154105 (2020);
          URL http://www.quantum-espresso.org", 
     in publications or presentations arising from this work. More details at
     http://www.quantum-espresso.org/quote

     Parallel version (MPI), running on     8 processors

     MPI processes distributed on     1 nodes
     90989 MiB available memory on the printing compute node when the environment starts

     Reading input from /home/jvc/QEspresso7.2/ZnO_DataBase/scfs_rnd025.in/scf-6.18-1.71-4.in

     Current dimensions of program PWSCF are:
     Max number of different atomic species (ntypx) = 10
     Max number of k-points (npk) =  40000
     Max angular momentum in pseudopotentials (lmaxx) =  4
     file Zn.upf: wavefunction(s)  3D renormalized

     R & G space division:  proc/nbgrp/npool/nimage =       8
     Subspace diagonalization in iterative solution of the eigenvalue problem:
     a serial algorithm will be used


     Parallelization info
     --------------------
     sticks:   dense  smooth     PW     G-vecs:    dense   smooth      PW
     Min         130      64     20                 5890     2080     354
     Max         131      65     21                 5895     2085     357
     Sum        1045     517    163                47143    16667    2841

     Using Slab Decomposition



     bravais-lattice index     =            4
     lattice parameter (alat)  =       6.1788  a.u.
     unit-cell volume          =     349.5855 (a.u.)^3
     number of atoms/cell      =            4
     number of atomic types    =            2
     number of electrons       =        36.00
     number of Kohn-Sham states=           18
     kinetic-energy cutoff     =      50.0000  Ry
     charge density cutoff     =     400.0000  Ry
     scf convergence threshold =      1.0E-08
     mixing beta               =       0.3000
     number of iterations used =            8  plain     mixing
     Exchange-correlation= PBE
                           (   1   4   3   4   0   0   0)

     celldm(1)=   6.178821  celldm(2)=   0.000000  celldm(3)=   1.711220
     celldm(4)=   0.000000  celldm(5)=   0.000000  celldm(6)=   0.000000

     crystal axes: (cart. coord. in units of alat)
               a(1) = (   1.000000   0.000000   0.000000 )  
               a(2) = (  -0.500000   0.866025   0.000000 )  
               a(3) = (   0.000000   0.000000   1.711220 )  

     reciprocal axes: (cart. coord. in units 2 pi/alat)
               b(1) = (  1.000000  0.577350 -0.000000 )  
               b(2) = (  0.000000  1.154701  0.000000 )  
               b(3) = (  0.000000 -0.000000  0.584378 )  


     PseudoPot. # 1 for Zn read from file:
     ./pseudos/Zn.upf
     MD5 check sum: 7f56cabf9682ed8c977c2f7d0c5985c5
     Pseudo is Ultrasoft + core correction, Zval = 12.0
     Generated using &quot;atomic&quot; code by A. Dal Corso  v.6.2.2
     Using radial grid of 1201 points,  6 beta functions with: 
                l(1) =   0
                l(2) =   0
                l(3) =   1
                l(4) =   1
                l(5) =   2
                l(6) =   2
     Q(r) pseudized with 0 coefficients 


     PseudoPot. # 2 for O  read from file:
     ./pseudos/O.upf
     MD5 check sum: 91400c9766925bcf19f520983a725ff0
     Pseudo is Ultrasoft + core correction, Zval =  6.0
     Generated using &quot;atomic&quot; code by A. Dal Corso  v.6.3MaX
     Using radial grid of 1095 points,  4 beta functions with: 
                l(1) =   0
                l(2) =   0
                l(3) =   1
                l(4) =   1
     Q(r) pseudized with 0 coefficients 


     atomic species   valence    mass     pseudopotential
        Zn            12.00    63.38000     Zn( 1.00)
        O              6.00    15.99900     O ( 1.00)

     No symmetry found



   Cartesian axes

     site n.     atom                  positions (alat units)
         1           Zn  tau(   1) = (   0.5169119   0.2332672   0.4992663  )
         2           Zn  tau(   2) = (   0.2066685   0.4086352   0.2298597  )
         3           O   tau(   3) = (   0.7793266   0.1575976   1.5217190  )
         4           O   tau(   4) = (  -0.0154083   0.7434798   0.7924671  )

     number of k points=   112

     Number of k-points >= 100: set verbosity='high' to print them.

     Dense  grid:    47143 G-vectors     FFT dimensions: (  40,  40,  72)

     Smooth grid:    16667 G-vectors     FFT dimensions: (  27,  27,  48)

     Estimated max dynamical RAM per process >      32.21 MB

     Estimated total dynamical RAM >     257.69 MB

     Check: negative core charge=   -0.000003

     Initial potential from superposition of free atoms

     starting charge      35.9925, renormalised to      36.0000
     Starting wfcs are   26 randomized atomic wfcs

     total cpu time spent up to now is        4.1 secs

     Self-consistent Calculation

     iteration #  1     ecut=    50.00 Ry     beta= 0.30
     Davidson diagonalization with overlap
     ethr =  1.00E-02,  avg # of iterations =  2.0

     total cpu time spent up to now is        9.8 secs

     total energy              =    -359.86499152 Ry
     estimated scf accuracy    <       0.94660990 Ry

     iteration #  2     ecut=    50.00 Ry     beta= 0.30
     Davidson diagonalization with overlap
     ethr =  2.63E-03,  avg # of iterations =  5.7

     total cpu time spent up to now is       17.5 secs

     total energy              =    -360.17550733 Ry
     estimated scf accuracy    <       0.15270537 Ry

     iteration #  3     ecut=    50.00 Ry     beta= 0.30
     Davidson diagonalization with overlap
     ethr =  4.24E-04,  avg # of iterations =  3.0

     total cpu time spent up to now is       23.6 secs

     total energy              =    -360.16653577 Ry
     estimated scf accuracy    <       0.06609514 Ry

     iteration #  4     ecut=    50.00 Ry     beta= 0.30
     Davidson diagonalization with overlap
     ethr =  1.84E-04,  avg # of iterations =  8.6

     total cpu time spent up to now is       34.1 secs

     total energy              =    -360.21951431 Ry
     estimated scf accuracy    <       0.11895268 Ry

     iteration #  5     ecut=    50.00 Ry     beta= 0.30
     Davidson diagonalization with overlap
     ethr =  1.84E-04,  avg # of iterations =  1.0

     total cpu time spent up to now is       39.0 secs

     total energy              =    -360.14124242 Ry
     estimated scf accuracy    <       0.11145012 Ry

     iteration #  6     ecut=    50.00 Ry     beta= 0.30
     Davidson diagonalization with overlap
     ethr =  1.84E-04,  avg # of iterations = 13.4

     total cpu time spent up to now is       50.7 secs

     total energy              =    -360.21944429 Ry
     estimated scf accuracy    <       0.94093292 Ry

     iteration #  7     ecut=    50.00 Ry     beta= 0.30
     Davidson diagonalization with overlap
     ethr =  1.84E-04,  avg # of iterations =  4.1

     total cpu time spent up to now is       56.4 secs

     total energy              =    -360.06424823 Ry
     estimated scf accuracy    <       0.63699070 Ry

     iteration #  8     ecut=    50.00 Ry     beta= 0.30
     Davidson diagonalization with overlap
     ethr =  1.84E-04,  avg # of iterations = 11.8

     total cpu time spent up to now is       68.2 secs

     total energy              =    -360.21701511 Ry
     estimated scf accuracy    <       0.08847654 Ry

     iteration #  9     ecut=    50.00 Ry     beta= 0.30
     Davidson diagonalization with overlap
     ethr =  1.84E-04,  avg # of iterations =  1.0

     total cpu time spent up to now is       72.9 secs

     total energy              =    -360.19873179 Ry
     estimated scf accuracy    <       0.09234506 Ry

     iteration # 10     ecut=    50.00 Ry     beta= 0.30
     Davidson diagonalization with overlap
     ethr =  1.84E-04,  avg # of iterations =  1.9

     total cpu time spent up to now is       78.0 secs

     total energy              =    -360.20077404 Ry
     estimated scf accuracy    <       0.04869944 Ry

     iteration # 11     ecut=    50.00 Ry     beta= 0.30
     Davidson diagonalization with overlap
     ethr =  1.35E-04,  avg # of iterations =  1.2

     total cpu time spent up to now is       82.8 secs

     total energy              =    -360.19974739 Ry
     estimated scf accuracy    <       0.04342062 Ry

     iteration # 12     ecut=    50.00 Ry     beta= 0.30
     Davidson diagonalization with overlap
     ethr =  1.21E-04,  avg # of iterations =  1.6

     total cpu time spent up to now is       87.9 secs

     total energy              =    -360.20140536 Ry
     estimated scf accuracy    <       0.03137111 Ry

     iteration # 13     ecut=    50.00 Ry     beta= 0.30
     Davidson diagonalization with overlap
     ethr =  8.71E-05,  avg # of iterations =  1.5

     total cpu time spent up to now is       92.8 secs

     total energy              =    -360.19731352 Ry
     estimated scf accuracy    <       0.02790005 Ry

     iteration # 14     ecut=    50.00 Ry     beta= 0.30
     Davidson diagonalization with overlap
     ethr =  7.75E-05,  avg # of iterations =  3.5

     total cpu time spent up to now is       98.4 secs

     total energy              =    -360.19892803 Ry
     estimated scf accuracy    <       0.00786527 Ry

     iteration # 15     ecut=    50.00 Ry     beta= 0.30
     Davidson diagonalization with overlap
     ethr =  2.18E-05,  avg # of iterations =  7.0

     total cpu time spent up to now is      106.2 secs

     total energy              =    -360.20445333 Ry
     estimated scf accuracy    <       0.00655141 Ry

     iteration # 16     ecut=    50.00 Ry     beta= 0.30
     Davidson diagonalization with overlap
     ethr =  1.82E-05,  avg # of iterations =  3.7

     total cpu time spent up to now is      112.0 secs

     total energy              =    -360.20357868 Ry
     estimated scf accuracy    <       0.01427748 Ry

     iteration # 17     ecut=    50.00 Ry     beta= 0.30
     Davidson diagonalization with overlap
     ethr =  1.82E-05,  avg # of iterations =  1.3

     total cpu time spent up to now is      116.8 secs

     total energy              =    -360.20411036 Ry
     estimated scf accuracy    <       0.01244929 Ry

     iteration # 18     ecut=    50.00 Ry     beta= 0.30
     Davidson diagonalization with overlap
     ethr =  1.82E-05,  avg # of iterations =  2.0

     total cpu time spent up to now is      122.1 secs

     total energy              =    -360.20341287 Ry
     estimated scf accuracy    <       0.01392004 Ry

     iteration # 19     ecut=    50.00 Ry     beta= 0.30
     Davidson diagonalization with overlap
     ethr =  1.82E-05,  avg # of iterations =  1.1

     total cpu time spent up to now is      126.8 secs

     total energy              =    -360.20298272 Ry
     estimated scf accuracy    <       0.01263261 Ry

     iteration # 20     ecut=    50.00 Ry     beta= 0.30
     Davidson diagonalization with overlap
     ethr =  1.82E-05,  avg # of iterations =  1.2

     total cpu time spent up to now is      131.6 secs

     total energy              =    -360.20323218 Ry
     estimated scf accuracy    <       0.01078353 Ry

     iteration # 21     ecut=    50.00 Ry     beta= 0.30
     Davidson diagonalization with overlap
     ethr =  1.82E-05,  avg # of iterations =  1.0

     total cpu time spent up to now is      136.3 secs

     total energy              =    -360.20458983 Ry
     estimated scf accuracy    <       0.01093053 Ry

     iteration # 22     ecut=    50.00 Ry     beta= 0.30
     Davidson diagonalization with overlap
     ethr =  1.82E-05,  avg # of iterations =  1.0

     total cpu time spent up to now is      141.0 secs

     total energy              =    -360.20993141 Ry
     estimated scf accuracy    <       0.01424659 Ry

     iteration # 23     ecut=    50.00 Ry     beta= 0.30
     Davidson diagonalization with overlap
     ethr =  1.82E-05,  avg # of iterations =  7.1

     total cpu time spent up to now is      149.6 secs

     total energy              =    -360.20086680 Ry
     estimated scf accuracy    <       0.09192909 Ry

     iteration # 24     ecut=    50.00 Ry     beta= 0.30
     Davidson diagonalization with overlap
     ethr =  1.82E-05,  avg # of iterations =  7.0

     total cpu time spent up to now is      157.5 secs

     total energy              =    -360.20241115 Ry
     estimated scf accuracy    <       0.02027615 Ry

     iteration # 25     ecut=    50.00 Ry     beta= 0.30
     Davidson diagonalization with overlap
     ethr =  1.82E-05,  avg # of iterations =  1.7

     total cpu time spent up to now is      162.4 secs

     total energy              =    -360.20220739 Ry
     estimated scf accuracy    <       0.01515156 Ry

     iteration # 26     ecut=    50.00 Ry     beta= 0.30
     Davidson diagonalization with overlap
     ethr =  1.82E-05,  avg # of iterations =  1.2

     total cpu time spent up to now is      167.1 secs

     total energy              =    -360.20128529 Ry
     estimated scf accuracy    <       0.01302304 Ry

     iteration # 27     ecut=    50.00 Ry     beta= 0.30
     Davidson diagonalization with overlap
     ethr =  1.82E-05,  avg # of iterations =  1.4

     total cpu time spent up to now is      171.9 secs

     total energy              =    -360.20082631 Ry
     estimated scf accuracy    <       0.00971939 Ry

     iteration # 28     ecut=    50.00 Ry     beta= 0.30
     Davidson diagonalization with overlap
     ethr =  1.82E-05,  avg # of iterations =  2.3

     total cpu time spent up to now is      177.2 secs

     total energy              =    -360.20004928 Ry
     estimated scf accuracy    <       0.00561992 Ry

     iteration # 29     ecut=    50.00 Ry     beta= 0.30
     Davidson diagonalization with overlap
     ethr =  1.56E-05,  avg # of iterations =  6.5

     total cpu time spent up to now is      185.0 secs

     total energy              =    -360.20297106 Ry
     estimated scf accuracy    <       0.00206739 Ry

     iteration # 30     ecut=    50.00 Ry     beta= 0.30
     Davidson diagonalization with overlap
     ethr =  5.74E-06,  avg # of iterations =  2.3

     total cpu time spent up to now is      190.1 secs

     total energy              =    -360.20281472 Ry
     estimated scf accuracy    <       0.00338538 Ry

     iteration # 31     ecut=    50.00 Ry     beta= 0.30
     Davidson diagonalization with overlap
     ethr =  5.74E-06,  avg # of iterations =  1.1

     total cpu time spent up to now is      194.8 secs

     total energy              =    -360.20335901 Ry
     estimated scf accuracy    <       0.00299831 Ry

     iteration # 32     ecut=    50.00 Ry     beta= 0.30
     Davidson diagonalization with overlap
     ethr =  5.74E-06,  avg # of iterations =  2.2

     total cpu time spent up to now is      199.9 secs

     total energy              =    -360.20291149 Ry
     estimated scf accuracy    <       0.00484371 Ry

     iteration # 33     ecut=    50.00 Ry     beta= 0.30
     Davidson diagonalization with overlap
     ethr =  5.74E-06,  avg # of iterations =  1.0

     total cpu time spent up to now is      204.5 secs

     total energy              =    -360.20271602 Ry
     estimated scf accuracy    <       0.00407996 Ry

     iteration # 34     ecut=    50.00 Ry     beta= 0.30
     Davidson diagonalization with overlap
     ethr =  5.74E-06,  avg # of iterations =  1.1

     total cpu time spent up to now is      209.1 secs

     total energy              =    -360.20222349 Ry
     estimated scf accuracy    <       0.00340528 Ry

     iteration # 35     ecut=    50.00 Ry     beta= 0.30
     Davidson diagonalization with overlap
     ethr =  5.74E-06,  avg # of iterations =  2.4

     total cpu time spent up to now is      214.4 secs

     total energy              =    -360.20211051 Ry
     estimated scf accuracy    <       0.00170648 Ry

     iteration # 36     ecut=    50.00 Ry     beta= 0.30
     Davidson diagonalization with overlap
     ethr =  4.74E-06,  avg # of iterations =  3.1

     total cpu time spent up to now is      220.0 secs

     total energy              =    -360.20236900 Ry
     estimated scf accuracy    <       0.00048148 Ry

     iteration # 37     ecut=    50.00 Ry     beta= 0.30
     Davidson diagonalization with overlap
     ethr =  1.34E-06,  avg # of iterations =  5.4

     total cpu time spent up to now is      226.6 secs

     total energy              =    -360.20243761 Ry
     estimated scf accuracy    <       0.00010622 Ry

     iteration # 38     ecut=    50.00 Ry     beta= 0.30
     Davidson diagonalization with overlap
     ethr =  2.95E-07,  avg # of iterations =  6.3

     total cpu time spent up to now is      234.0 secs

     total energy              =    -360.20245967 Ry
     estimated scf accuracy    <       0.00005270 Ry

     iteration # 39     ecut=    50.00 Ry     beta= 0.30
     Davidson diagonalization with overlap
     c_bands:  2 eigenvalues not converged
     c_bands:  4 eigenvalues not converged
     c_bands:  2 eigenvalues not converged
     c_bands:  1 eigenvalues not converged
     c_bands:  1 eigenvalues not converged
     ethr =  1.46E-07,  avg # of iterations = 14.1

     total cpu time spent up to now is      247.8 secs

     total energy              =    -360.20261470 Ry
     estimated scf accuracy    <       0.00156251 Ry

     iteration # 40     ecut=    50.00 Ry     beta= 0.30
     Davidson diagonalization with overlap
     ethr =  1.46E-07,  avg # of iterations =  1.2

     total cpu time spent up to now is      252.5 secs

     total energy              =    -360.20255065 Ry
     estimated scf accuracy    <       0.00145073 Ry

     iteration # 41     ecut=    50.00 Ry     beta= 0.30
     Davidson diagonalization with overlap
     ethr =  1.46E-07,  avg # of iterations =  5.6

     total cpu time spent up to now is      260.2 secs

     total energy              =    -360.20262245 Ry
     estimated scf accuracy    <       0.00092933 Ry

     iteration # 42     ecut=    50.00 Ry     beta= 0.30
     Davidson diagonalization with overlap
     ethr =  1.46E-07,  avg # of iterations =  1.0

     total cpu time spent up to now is      264.9 secs

     total energy              =    -360.20262633 Ry
     estimated scf accuracy    <       0.00102613 Ry

     iteration # 43     ecut=    50.00 Ry     beta= 0.30
     Davidson diagonalization with overlap
     ethr =  1.46E-07,  avg # of iterations =  2.0

     total cpu time spent up to now is      270.1 secs

     total energy              =    -360.20251857 Ry
     estimated scf accuracy    <       0.00110853 Ry

     iteration # 44     ecut=    50.00 Ry     beta= 0.30
     Davidson diagonalization with overlap
     ethr =  1.46E-07,  avg # of iterations =  2.9

     total cpu time spent up to now is      275.8 secs

     total energy              =    -360.20252857 Ry
     estimated scf accuracy    <       0.00084709 Ry

     iteration # 45     ecut=    50.00 Ry     beta= 0.30
     Davidson diagonalization with overlap
     ethr =  1.46E-07,  avg # of iterations =  1.7

     total cpu time spent up to now is      280.9 secs

     total energy              =    -360.20246325 Ry
     estimated scf accuracy    <       0.00080857 Ry

     iteration # 46     ecut=    50.00 Ry     beta= 0.30
     Davidson diagonalization with overlap
     ethr =  1.46E-07,  avg # of iterations =  7.2

     total cpu time spent up to now is      289.0 secs

     total energy              =    -360.20238076 Ry
     estimated scf accuracy    <       0.00022550 Ry

     iteration # 47     ecut=    50.00 Ry     beta= 0.30
     Davidson diagonalization with overlap
     c_bands:  3 eigenvalues not converged
     c_bands:  4 eigenvalues not converged
     c_bands:  1 eigenvalues not converged
     c_bands:  2 eigenvalues not converged
     c_bands:  3 eigenvalues not converged
     ethr =  1.46E-07,  avg # of iterations = 13.4

     total cpu time spent up to now is      302.0 secs

     total energy              =    -360.20244475 Ry
     estimated scf accuracy    <       0.00094615 Ry

     iteration # 48     ecut=    50.00 Ry     beta= 0.30
     Davidson diagonalization with overlap
     ethr =  1.46E-07,  avg # of iterations =  7.5

     total cpu time spent up to now is      310.8 secs

     total energy              =    -360.20247655 Ry
     estimated scf accuracy    <       0.00017178 Ry

     iteration # 49     ecut=    50.00 Ry     beta= 0.30
     Davidson diagonalization with overlap
     ethr =  1.46E-07,  avg # of iterations =  1.3

     total cpu time spent up to now is      315.6 secs

     total energy              =    -360.20246412 Ry
     estimated scf accuracy    <       0.00014334 Ry

     iteration # 50     ecut=    50.00 Ry     beta= 0.30
     Davidson diagonalization with overlap
     ethr =  1.46E-07,  avg # of iterations =  5.4

     total cpu time spent up to now is      321.9 secs

     total energy              =    -360.20246754 Ry
     estimated scf accuracy    <       0.00003143 Ry

     iteration # 51     ecut=    50.00 Ry     beta= 0.30
     Davidson diagonalization with overlap
     ethr =  8.73E-08,  avg # of iterations =  5.2

     total cpu time spent up to now is      328.5 secs

     total energy              =    -360.20247662 Ry
     estimated scf accuracy    <       0.00000016 Ry

     iteration # 52     ecut=    50.00 Ry     beta= 0.30
     Davidson diagonalization with overlap
     c_bands:  3 eigenvalues not converged
     c_bands:  3 eigenvalues not converged
     c_bands:  4 eigenvalues not converged
     c_bands:  2 eigenvalues not converged
     c_bands:  1 eigenvalues not converged
     c_bands:  2 eigenvalues not converged
     c_bands:  1 eigenvalues not converged
     c_bands:  2 eigenvalues not converged
     c_bands:  2 eigenvalues not converged
     c_bands:  2 eigenvalues not converged
     ethr =  4.36E-10,  avg # of iterations = 13.7

     total cpu time spent up to now is      342.2 secs

     total energy              =    -360.20247719 Ry
     estimated scf accuracy    <       0.00000068 Ry

     iteration # 53     ecut=    50.00 Ry     beta= 0.30
     Davidson diagonalization with overlap
     ethr =  4.36E-10,  avg # of iterations =  7.2

     total cpu time spent up to now is      350.9 secs

     End of self-consistent calculation

     Number of k-points >= 100: set verbosity='high' to print the bands.

     highest occupied level (ev):     5.9255

!    total energy              =    -360.20247730 Ry
     estimated scf accuracy    <          7.6E-09 Ry

     The total energy is the sum of the following terms:
     one-electron contribution =    -249.85005044 Ry
     hartree contribution      =     161.97162045 Ry
     xc contribution           =    -109.78073961 Ry
     ewald contribution        =    -162.54330770 Ry

     convergence has been achieved in  53 iterations

     Forces acting on atoms (cartesian axes, Ry/au):

     atom    1 type  1   force =     1.42403328   -0.33934614    0.92124265
     atom    2 type  1   force =    -1.37144253    0.77975668   -1.35245216
     atom    3 type  2   force =    -0.01140093    0.00967479    0.16716840
     atom    4 type  2   force =    -0.04118982   -0.45008534    0.26404112
     The non-local contrib.  to forces
     atom    1 type  1   force =    -0.85605889    1.32188397   -1.38892459
     atom    2 type  1   force =     1.02558645   -0.42152116    1.16005572
     atom    3 type  2   force =     0.07890964    0.11533241    1.14140301
     atom    4 type  2   force =     0.10353466    0.47947104   -1.44026844
     The ionic contribution  to forces
     atom    1 type  1   force =    15.49626516   -0.92105521   20.62502363
     atom    2 type  1   force =   -14.09203807    8.62934295  -27.80374166
     atom    3 type  2   force =    -0.14615078   -0.63122661  -14.53857563
     atom    4 type  2   force =    -1.25807631   -7.07706113   21.71729367
     The local contribution  to forces
     atom    1 type  1   force =   -13.14806182   -0.68761679  -18.31409073
     atom    2 type  1   force =    11.63879900   -7.38498749   25.23628237
     atom    3 type  2   force =     0.05638636    0.52677493   13.57554731
     atom    4 type  2   force =     1.11400869    6.14903579  -20.02384532
     The core correction contribution to forces
     atom    1 type  1   force =    -0.06804267   -0.05256432   -0.00094133
     atom    2 type  1   force =     0.05613648   -0.04309517    0.05490672
     atom    3 type  2   force =    -0.00054555   -0.00117553   -0.01103075
     atom    4 type  2   force =    -0.00066099   -0.00152234    0.01077542
     The Hubbard contrib.    to forces
     atom    1 type  1   force =     0.00000000    0.00000000    0.00000000
     atom    2 type  1   force =     0.00000000    0.00000000    0.00000000
     atom    3 type  2   force =     0.00000000    0.00000000    0.00000000
     atom    4 type  2   force =     0.00000000    0.00000000    0.00000000
     The SCF correction term to forces
     atom    1 type  1   force =    -0.00006491    0.00001697    0.00020891
     atom    2 type  1   force =     0.00007718    0.00002831    0.00007794
     atom    3 type  2   force =     0.00000298   -0.00001965   -0.00014228
     atom    4 type  2   force =     0.00000771    0.00000206    0.00011905

     Total force =     2.758963     Total SCF correction =     0.000310

     Writing all to output data dir ./ZnO_ANN.save/

     init_run     :      3.58s CPU      3.67s WALL (       1 calls)
     electrons    :    341.24s CPU    346.79s WALL (       1 calls)
     forces       :      1.11s CPU      1.13s WALL (       1 calls)

     Called by init_run:
     wfcinit      :      2.68s CPU      2.73s WALL (       1 calls)
     potinit      :      0.26s CPU      0.26s WALL (       1 calls)
     hinit0       :      0.57s CPU      0.58s WALL (       1 calls)

     Called by electrons:
     c_bands      :    297.74s CPU    302.45s WALL (      53 calls)
     sum_band     :     39.24s CPU     39.99s WALL (      53 calls)
     v_of_rho     :      0.84s CPU      0.90s WALL (      54 calls)
     newd         :      3.23s CPU      3.26s WALL (      54 calls)
     mix_rho      :      0.15s CPU      0.17s WALL (      53 calls)

     Called by c_bands:
     init_us_2    :      2.52s CPU      2.56s WALL (   12096 calls)
     init_us_2:cp :      2.49s CPU      2.53s WALL (   12096 calls)
     cegterg      :    288.52s CPU    293.08s WALL (    5936 calls)

     Called by *egterg:
     cdiaghg      :     28.82s CPU     29.03s WALL (   30586 calls)
     h_psi        :    169.02s CPU    172.45s WALL (   30698 calls)
     s_psi        :     15.86s CPU     16.01s WALL (   30698 calls)
     g_psi        :      0.55s CPU      0.56s WALL (   24650 calls)

     Called by h_psi:
     h_psi:calbec :     24.15s CPU     24.82s WALL (   30698 calls)
     vloc_psi     :    128.55s CPU    131.15s WALL (   30698 calls)
     add_vuspsi   :     15.84s CPU     16.01s WALL (   30698 calls)

     General routines
     calbec       :     33.60s CPU     34.51s WALL (   37082 calls)
     fft          :      1.11s CPU      1.20s WALL (     711 calls)
     ffts         :      0.13s CPU      0.14s WALL (     107 calls)
     fftw         :    139.53s CPU    142.34s WALL (  678038 calls)
     interpolate  :      0.16s CPU      0.16s WALL (      54 calls)

     Parallel routines

     PWSCF        :   5m46.67s CPU   5m52.60s WALL


   This run was terminated on:  14:51:57  23Jun2025            

=------------------------------------------------------------------------------=
   JOB DONE.
=------------------------------------------------------------------------------=
Note: The following floating-point exceptions are signalling: IEEE_INVALID_FLAG
