
     Program PWSCF v.7.2 starts on 23Jun2025 at 11:51:20 

     This program is part of the open-source Quantum ESPRESSO suite
     for quantum simulation of materials; please cite
         "P. Giannozzi et al., J. Phys.:Condens. Matter 21 395502 (2009);
         "P. Giannozzi et al., J. Phys.:Condens. Matter 29 465901 (2017);
         "P. Giannozzi et al., J. Chem. Phys. 152 154105 (2020);
          URL http://www.quantum-espresso.org", 
     in publications or presentations arising from this work. More details at
     http://www.quantum-espresso.org/quote

     Parallel version (MPI), running on     8 processors

     MPI processes distributed on     1 nodes
     91750 MiB available memory on the printing compute node when the environment starts

     Reading input from /home/jvc/QEspresso7.2/ZnO_DataBase/scfs_rnd025.in/scf-5.56-1.55-1.in

     Current dimensions of program PWSCF are:
     Max number of different atomic species (ntypx) = 10
     Max number of k-points (npk) =  40000
     Max angular momentum in pseudopotentials (lmaxx) =  4
     file Zn.upf: wavefunction(s)  3D renormalized

     R & G space division:  proc/nbgrp/npool/nimage =       8
     Subspace diagonalization in iterative solution of the eigenvalue problem:
     a serial algorithm will be used


     Parallelization info
     --------------------
     sticks:   dense  smooth     PW     G-vecs:    dense   smooth      PW
     Min         105      53     15                 3897     1383     237
     Max         106      55     16                 3906     1384     244
     Sum         847     433    127                31237    11067    1911

     Using Slab Decomposition



     bravais-lattice index     =            4
     lattice parameter (alat)  =       5.5609  a.u.
     unit-cell volume          =     230.8056 (a.u.)^3
     number of atoms/cell      =            4
     number of atomic types    =            2
     number of electrons       =        36.00
     number of Kohn-Sham states=           18
     kinetic-energy cutoff     =      50.0000  Ry
     charge density cutoff     =     400.0000  Ry
     scf convergence threshold =      1.0E-08
     mixing beta               =       0.3000
     number of iterations used =            8  plain     mixing
     Exchange-correlation= PBE
                           (   1   4   3   4   0   0   0)

     celldm(1)=   5.560939  celldm(2)=   0.000000  celldm(3)=   1.549784
     celldm(4)=   0.000000  celldm(5)=   0.000000  celldm(6)=   0.000000

     crystal axes: (cart. coord. in units of alat)
               a(1) = (   1.000000   0.000000   0.000000 )  
               a(2) = (  -0.500000   0.866025   0.000000 )  
               a(3) = (   0.000000   0.000000   1.549784 )  

     reciprocal axes: (cart. coord. in units 2 pi/alat)
               b(1) = (  1.000000  0.577350 -0.000000 )  
               b(2) = (  0.000000  1.154701  0.000000 )  
               b(3) = (  0.000000 -0.000000  0.645251 )  


     PseudoPot. # 1 for Zn read from file:
     ./pseudos/Zn.upf
     MD5 check sum: 7f56cabf9682ed8c977c2f7d0c5985c5
     Pseudo is Ultrasoft + core correction, Zval = 12.0
     Generated using &quot;atomic&quot; code by A. Dal Corso  v.6.2.2
     Using radial grid of 1201 points,  6 beta functions with: 
                l(1) =   0
                l(2) =   0
                l(3) =   1
                l(4) =   1
                l(5) =   2
                l(6) =   2
     Q(r) pseudized with 0 coefficients 


     PseudoPot. # 2 for O  read from file:
     ./pseudos/O.upf
     MD5 check sum: 91400c9766925bcf19f520983a725ff0
     Pseudo is Ultrasoft + core correction, Zval =  6.0
     Generated using &quot;atomic&quot; code by A. Dal Corso  v.6.3MaX
     Using radial grid of 1095 points,  4 beta functions with: 
                l(1) =   0
                l(2) =   0
                l(3) =   1
                l(4) =   1
     Q(r) pseudized with 0 coefficients 


     atomic species   valence    mass     pseudopotential
        Zn            12.00    63.38000     Zn( 1.00)
        O              6.00    15.99900     O ( 1.00)

     No symmetry found



   Cartesian axes

     site n.     atom                  positions (alat units)
         1           Zn  tau(   1) = (   0.6037324   0.2095997   0.6838755  )
         2           Zn  tau(   2) = (   0.1040052   0.4512950   0.3868494  )
         3           O   tau(   3) = (   0.2526606   0.5022464   1.3128579  )
         4           O   tau(   4) = (  -0.0541354   0.5786151   0.4447404  )

     number of k points=   112

     Number of k-points >= 100: set verbosity='high' to print them.

     Dense  grid:    31237 G-vectors     FFT dimensions: (  36,  36,  60)

     Smooth grid:    11067 G-vectors     FFT dimensions: (  25,  25,  40)

     Estimated max dynamical RAM per process >      22.48 MB

     Estimated total dynamical RAM >     179.87 MB

     Check: negative core charge=   -0.000002

     Initial potential from superposition of free atoms

     starting charge      35.9925, renormalised to      36.0000
     Starting wfcs are   26 randomized atomic wfcs

     total cpu time spent up to now is        3.0 secs

     Self-consistent Calculation

     iteration #  1     ecut=    50.00 Ry     beta= 0.30
     Davidson diagonalization with overlap
     ethr =  1.00E-02,  avg # of iterations =  5.7

     total cpu time spent up to now is        9.3 secs

     total energy              =    -341.52765633 Ry
     estimated scf accuracy    <       1.53925980 Ry

     iteration #  2     ecut=    50.00 Ry     beta= 0.30
     Davidson diagonalization with overlap
     ethr =  4.28E-03,  avg # of iterations =  2.7

     total cpu time spent up to now is       13.2 secs

     total energy              =    -341.41953662 Ry
     estimated scf accuracy    <       0.40031853 Ry

     iteration #  3     ecut=    50.00 Ry     beta= 0.30
     Davidson diagonalization with overlap
     ethr =  1.11E-03,  avg # of iterations = 10.7

     total cpu time spent up to now is       20.5 secs

     total energy              =    -342.12424188 Ry
     estimated scf accuracy    <       2.32377696 Ry

     iteration #  4     ecut=    50.00 Ry     beta= 0.30
     Davidson diagonalization with overlap
     ethr =  1.11E-03,  avg # of iterations =  1.3

     total cpu time spent up to now is       23.8 secs

     total energy              =    -342.28139793 Ry
     estimated scf accuracy    <       2.67857753 Ry

     iteration #  5     ecut=    50.00 Ry     beta= 0.30
     Davidson diagonalization with overlap
     ethr =  1.11E-03,  avg # of iterations =  6.9

     total cpu time spent up to now is       28.7 secs

     total energy              =    -342.24664180 Ry
     estimated scf accuracy    <       5.45879902 Ry

     iteration #  6     ecut=    50.00 Ry     beta= 0.30
     Davidson diagonalization with overlap
     ethr =  1.11E-03,  avg # of iterations =  1.2

     total cpu time spent up to now is       31.8 secs

     total energy              =    -339.92754960 Ry
     estimated scf accuracy    <       5.31238313 Ry

     iteration #  7     ecut=    50.00 Ry     beta= 0.30
     Davidson diagonalization with overlap
     ethr =  1.11E-03,  avg # of iterations = 11.3

     total cpu time spent up to now is       41.1 secs

     total energy              =    -342.04310380 Ry
     estimated scf accuracy    <       1.78785173 Ry

     iteration #  8     ecut=    50.00 Ry     beta= 0.30
     Davidson diagonalization with overlap
     ethr =  1.11E-03,  avg # of iterations =  1.0

     total cpu time spent up to now is       44.2 secs

     total energy              =    -341.59756991 Ry
     estimated scf accuracy    <       1.61564835 Ry

     iteration #  9     ecut=    50.00 Ry     beta= 0.30
     Davidson diagonalization with overlap
     ethr =  1.11E-03,  avg # of iterations =  5.3

     total cpu time spent up to now is       49.2 secs

     total energy              =    -341.75557530 Ry
     estimated scf accuracy    <       0.29701577 Ry

     iteration # 10     ecut=    50.00 Ry     beta= 0.30
     Davidson diagonalization with overlap
     ethr =  8.25E-04,  avg # of iterations =  1.0

     total cpu time spent up to now is       52.4 secs

     total energy              =    -341.66807936 Ry
     estimated scf accuracy    <       0.35754655 Ry

     iteration # 11     ecut=    50.00 Ry     beta= 0.30
     Davidson diagonalization with overlap
     ethr =  8.25E-04,  avg # of iterations =  2.0

     total cpu time spent up to now is       56.0 secs

     total energy              =    -341.66289058 Ry
     estimated scf accuracy    <       0.19349929 Ry

     iteration # 12     ecut=    50.00 Ry     beta= 0.30
     Davidson diagonalization with overlap
     ethr =  5.37E-04,  avg # of iterations =  2.4

     total cpu time spent up to now is       59.6 secs

     total energy              =    -341.67498780 Ry
     estimated scf accuracy    <       0.11450872 Ry

     iteration # 13     ecut=    50.00 Ry     beta= 0.30
     Davidson diagonalization with overlap
     ethr =  3.18E-04,  avg # of iterations =  2.2

     total cpu time spent up to now is       63.2 secs

     total energy              =    -341.69587047 Ry
     estimated scf accuracy    <       0.09874912 Ry

     iteration # 14     ecut=    50.00 Ry     beta= 0.30
     Davidson diagonalization with overlap
     ethr =  2.74E-04,  avg # of iterations =  2.7

     total cpu time spent up to now is       67.0 secs

     total energy              =    -341.70266795 Ry
     estimated scf accuracy    <       0.14601674 Ry

     iteration # 15     ecut=    50.00 Ry     beta= 0.30
     Davidson diagonalization with overlap
     ethr =  2.74E-04,  avg # of iterations =  1.1

     total cpu time spent up to now is       70.2 secs

     total energy              =    -341.66618966 Ry
     estimated scf accuracy    <       0.15777102 Ry

     iteration # 16     ecut=    50.00 Ry     beta= 0.30
     Davidson diagonalization with overlap
     ethr =  2.74E-04,  avg # of iterations =  1.6

     total cpu time spent up to now is       73.5 secs

     total energy              =    -341.66067730 Ry
     estimated scf accuracy    <       0.10838110 Ry

     iteration # 17     ecut=    50.00 Ry     beta= 0.30
     Davidson diagonalization with overlap
     ethr =  2.74E-04,  avg # of iterations =  1.8

     total cpu time spent up to now is       77.0 secs

     total energy              =    -341.66336572 Ry
     estimated scf accuracy    <       0.07786467 Ry

     iteration # 18     ecut=    50.00 Ry     beta= 0.30
     Davidson diagonalization with overlap
     ethr =  2.16E-04,  avg # of iterations =  1.3

     total cpu time spent up to now is       80.2 secs

     total energy              =    -341.66913256 Ry
     estimated scf accuracy    <       0.07225019 Ry

     iteration # 19     ecut=    50.00 Ry     beta= 0.30
     Davidson diagonalization with overlap
     ethr =  2.01E-04,  avg # of iterations =  1.0

     total cpu time spent up to now is       83.3 secs

     total energy              =    -341.66788522 Ry
     estimated scf accuracy    <       0.07773096 Ry

     iteration # 20     ecut=    50.00 Ry     beta= 0.30
     Davidson diagonalization with overlap
     ethr =  2.01E-04,  avg # of iterations =  1.0

     total cpu time spent up to now is       86.5 secs

     total energy              =    -341.67075672 Ry
     estimated scf accuracy    <       0.07001701 Ry

     iteration # 21     ecut=    50.00 Ry     beta= 0.30
     Davidson diagonalization with overlap
     ethr =  1.94E-04,  avg # of iterations =  1.0

     total cpu time spent up to now is       89.6 secs

     total energy              =    -341.62363664 Ry
     estimated scf accuracy    <       0.07389791 Ry

     iteration # 22     ecut=    50.00 Ry     beta= 0.30
     Davidson diagonalization with overlap
     ethr =  1.94E-04,  avg # of iterations =  7.3

     total cpu time spent up to now is       95.4 secs

     total energy              =    -341.62499427 Ry
     estimated scf accuracy    <       0.13458764 Ry

     iteration # 23     ecut=    50.00 Ry     beta= 0.30
     Davidson diagonalization with overlap
     ethr =  1.94E-04,  avg # of iterations =  6.6

     total cpu time spent up to now is      101.0 secs

     total energy              =    -341.65779357 Ry
     estimated scf accuracy    <       0.01316590 Ry

     iteration # 24     ecut=    50.00 Ry     beta= 0.30
     Davidson diagonalization with overlap
     ethr =  3.66E-05,  avg # of iterations =  1.4

     total cpu time spent up to now is      104.3 secs

     total energy              =    -341.65522188 Ry
     estimated scf accuracy    <       0.00854732 Ry

     iteration # 25     ecut=    50.00 Ry     beta= 0.30
     Davidson diagonalization with overlap
     ethr =  2.37E-05,  avg # of iterations =  5.6

     total cpu time spent up to now is      108.9 secs

     total energy              =    -341.65766413 Ry
     estimated scf accuracy    <       0.00023146 Ry

     iteration # 26     ecut=    50.00 Ry     beta= 0.30
     Davidson diagonalization with overlap
     ethr =  6.43E-07,  avg # of iterations =  7.4

     total cpu time spent up to now is      115.0 secs

     total energy              =    -341.65778231 Ry
     estimated scf accuracy    <       0.00070872 Ry

     iteration # 27     ecut=    50.00 Ry     beta= 0.30
     Davidson diagonalization with overlap
     ethr =  6.43E-07,  avg # of iterations =  1.3

     total cpu time spent up to now is      118.3 secs

     total energy              =    -341.65769206 Ry
     estimated scf accuracy    <       0.00052174 Ry

     iteration # 28     ecut=    50.00 Ry     beta= 0.30
     Davidson diagonalization with overlap
     ethr =  6.43E-07,  avg # of iterations =  4.6

     total cpu time spent up to now is      122.5 secs

     total energy              =    -341.65768005 Ry
     estimated scf accuracy    <       0.00013565 Ry

     iteration # 29     ecut=    50.00 Ry     beta= 0.30
     Davidson diagonalization with overlap
     ethr =  3.77E-07,  avg # of iterations =  6.7

     total cpu time spent up to now is      127.9 secs

     total energy              =    -341.65773112 Ry
     estimated scf accuracy    <       0.00003275 Ry

     iteration # 30     ecut=    50.00 Ry     beta= 0.30
     Davidson diagonalization with overlap
     ethr =  9.10E-08,  avg # of iterations =  2.2

     total cpu time spent up to now is      131.4 secs

     total energy              =    -341.65772732 Ry
     estimated scf accuracy    <       0.00002070 Ry

     iteration # 31     ecut=    50.00 Ry     beta= 0.30
     Davidson diagonalization with overlap
     ethr =  5.75E-08,  avg # of iterations =  4.9

     total cpu time spent up to now is      135.7 secs

     total energy              =    -341.65773041 Ry
     estimated scf accuracy    <       0.00000256 Ry

     iteration # 32     ecut=    50.00 Ry     beta= 0.30
     Davidson diagonalization with overlap
     ethr =  7.11E-09,  avg # of iterations =  6.2

     total cpu time spent up to now is      140.6 secs

     total energy              =    -341.65773108 Ry
     estimated scf accuracy    <       0.00000047 Ry

     iteration # 33     ecut=    50.00 Ry     beta= 0.30
     Davidson diagonalization with overlap
     ethr =  1.30E-09,  avg # of iterations =  4.2

     total cpu time spent up to now is      144.8 secs

     total energy              =    -341.65773105 Ry
     estimated scf accuracy    <       0.00000014 Ry

     iteration # 34     ecut=    50.00 Ry     beta= 0.30
     Davidson diagonalization with overlap
     ethr =  3.89E-10,  avg # of iterations = 10.0

     total cpu time spent up to now is      152.3 secs

     total energy              =    -341.65773112 Ry
     estimated scf accuracy    <       0.00000123 Ry

     iteration # 35     ecut=    50.00 Ry     beta= 0.30
     Davidson diagonalization with overlap
     ethr =  3.89E-10,  avg # of iterations =  6.5

     total cpu time spent up to now is      157.9 secs

     total energy              =    -341.65773113 Ry
     estimated scf accuracy    <       0.00000017 Ry

     iteration # 36     ecut=    50.00 Ry     beta= 0.30
     Davidson diagonalization with overlap
     ethr =  3.89E-10,  avg # of iterations =  4.6

     total cpu time spent up to now is      162.1 secs

     total energy              =    -341.65773115 Ry
     estimated scf accuracy    <       0.00000002 Ry

     iteration # 37     ecut=    50.00 Ry     beta= 0.30
     Davidson diagonalization with overlap
     ethr =  6.04E-11,  avg # of iterations =  7.1

     total cpu time spent up to now is      167.6 secs

     End of self-consistent calculation

     Number of k-points >= 100: set verbosity='high' to print the bands.

     highest occupied level (ev):    15.7404

!    total energy              =    -341.65773116 Ry
     estimated scf accuracy    <          3.5E-09 Ry

     The total energy is the sum of the following terms:
     one-electron contribution =    -242.29705230 Ry
     hartree contribution      =     161.26146575 Ry
     xc contribution           =    -113.46608172 Ry
     ewald contribution        =    -147.15606289 Ry

     convergence has been achieved in  37 iterations

     Forces acting on atoms (cartesian axes, Ry/au):

     atom    1 type  1   force =    -0.17243485   -0.14877155    0.98056938
     atom    2 type  1   force =    34.90331230  -27.99297962  -13.38487991
     atom    3 type  2   force =     0.07972888   -0.00810772   -0.21468156
     atom    4 type  2   force =   -34.81060633   28.14985888   12.61899209
     The non-local contrib.  to forces
     atom    1 type  1   force =     0.04767179    0.02089694   -0.76578909
     atom    2 type  1   force =   -15.57994006   12.44071179    6.45575485
     atom    3 type  2   force =     0.17816639   -0.10353683   -0.20232241
     atom    4 type  2   force =     4.00913933   -3.17744178   -0.99812234
     The ionic contribution  to forces
     atom    1 type  1   force =    -1.42572615   -1.84664029   31.56161306
     atom    2 type  1   force =    72.95728011  -58.15029461  -45.99930968
     atom    3 type  2   force =     1.14304215    0.53068946   -4.33082456
     atom    4 type  2   force =   -72.67459610   59.46624544   18.76852118
     The local contribution  to forces
     atom    1 type  1   force =     1.18822050    1.66930325  -29.73982900
     atom    2 type  1   force =   -21.45434440   16.90517001   25.75036891
     atom    3 type  2   force =    -1.23904526   -0.43614643    4.31447641
     atom    4 type  2   force =    33.76119819  -28.06270787   -5.11715368
     The core correction contribution to forces
     atom    1 type  1   force =     0.01732734    0.00771057   -0.07531605
     atom    2 type  1   force =    -1.01955474    0.81134394    0.40811960
     atom    3 type  2   force =    -0.00248699    0.00092777    0.00406297
     atom    4 type  2   force =     0.09361381   -0.07619930   -0.03427617
     The Hubbard contrib.    to forces
     atom    1 type  1   force =     0.00000000    0.00000000    0.00000000
     atom    2 type  1   force =     0.00000000    0.00000000    0.00000000
     atom    3 type  2   force =     0.00000000    0.00000000    0.00000000
     atom    4 type  2   force =     0.00000000    0.00000000    0.00000000
     The SCF correction term to forces
     atom    1 type  1   force =     0.00001875   -0.00000019   -0.00005766
     atom    2 type  1   force =    -0.00018154    0.00013109    0.00023829
     atom    3 type  2   force =    -0.00000034    0.00000015   -0.00002208
     atom    4 type  2   force =    -0.00001449    0.00000423    0.00007499

     Total force =    65.920413     Total SCF correction =     0.000342

     Writing all to output data dir ./ZnO_ANN.save/

     init_run     :      2.45s CPU      2.54s WALL (       1 calls)
     electrons    :    160.44s CPU    164.62s WALL (       1 calls)
     forces       :      0.76s CPU      0.78s WALL (       1 calls)

     Called by init_run:
     wfcinit      :      1.71s CPU      1.77s WALL (       1 calls)
     potinit      :      0.18s CPU      0.18s WALL (       1 calls)
     hinit0       :      0.51s CPU      0.52s WALL (       1 calls)

     Called by electrons:
     c_bands      :    141.10s CPU    144.66s WALL (      37 calls)
     sum_band     :     17.25s CPU     17.81s WALL (      37 calls)
     v_of_rho     :      0.43s CPU      0.46s WALL (      38 calls)
     newd         :      1.59s CPU      1.62s WALL (      38 calls)
     mix_rho      :      0.08s CPU      0.09s WALL (      37 calls)

     Called by c_bands:
     init_us_2    :      1.37s CPU      1.39s WALL (    8512 calls)
     init_us_2:cp :      1.34s CPU      1.36s WALL (    8512 calls)
     cegterg      :    136.69s CPU    140.17s WALL (    4144 calls)

     Called by *egterg:
     cdiaghg      :     22.55s CPU     22.80s WALL (   21151 calls)
     h_psi        :     74.23s CPU     76.81s WALL (   21263 calls)
     s_psi        :     10.62s CPU     10.76s WALL (   21263 calls)
     g_psi        :      0.26s CPU      0.27s WALL (   17007 calls)

     Called by h_psi:
     h_psi:calbec :     11.19s CPU     11.71s WALL (   21263 calls)
     vloc_psi     :     52.06s CPU     53.99s WALL (   21263 calls)
     add_vuspsi   :     10.65s CPU     10.79s WALL (   21263 calls)

     General routines
     calbec       :     15.68s CPU     16.39s WALL (   25855 calls)
     fft          :      0.54s CPU      0.58s WALL (     503 calls)
     ffts         :      0.09s CPU      0.09s WALL (      75 calls)
     fftw         :     53.40s CPU     55.36s WALL (  467322 calls)
     interpolate  :      0.10s CPU      0.11s WALL (      38 calls)

     Parallel routines

     PWSCF        :   2m44.37s CPU   2m48.79s WALL


   This run was terminated on:  11:54: 9  23Jun2025            

=------------------------------------------------------------------------------=
   JOB DONE.
=------------------------------------------------------------------------------=
Note: The following floating-point exceptions are signalling: IEEE_INVALID_FLAG
