
     Program PWSCF v.7.2 starts on 23Jun2025 at 13: 0:22 

     This program is part of the open-source Quantum ESPRESSO suite
     for quantum simulation of materials; please cite
         "P. Giannozzi et al., J. Phys.:Condens. Matter 21 395502 (2009);
         "P. Giannozzi et al., J. Phys.:Condens. Matter 29 465901 (2017);
         "P. Giannozzi et al., J. Chem. Phys. 152 154105 (2020);
          URL http://www.quantum-espresso.org", 
     in publications or presentations arising from this work. More details at
     http://www.quantum-espresso.org/quote

     Parallel version (MPI), running on     8 processors

     MPI processes distributed on     1 nodes
     91192 MiB available memory on the printing compute node when the environment starts

     Reading input from /home/jvc/QEspresso7.2/ZnO_DataBase/scfs_rnd025.in/scf-5.81-1.74-5.in

     Current dimensions of program PWSCF are:
     Max number of different atomic species (ntypx) = 10
     Max number of k-points (npk) =  40000
     Max angular momentum in pseudopotentials (lmaxx) =  4
     file Zn.upf: wavefunction(s)  3D renormalized

     R & G space division:  proc/nbgrp/npool/nimage =       8
     Subspace diagonalization in iterative solution of the eigenvalue problem:
     a serial algorithm will be used


     Parallelization info
     --------------------
     sticks:   dense  smooth     PW     G-vecs:    dense   smooth      PW
     Min         116      57     18                 4995     1765     304
     Max         117      58     20                 4998     1768     307
     Sum         931     463    151                39971    14139    2443

     Using Slab Decomposition



     bravais-lattice index     =            4
     lattice parameter (alat)  =       5.8081  a.u.
     unit-cell volume          =     295.8386 (a.u.)^3
     number of atoms/cell      =            4
     number of atomic types    =            2
     number of electrons       =        36.00
     number of Kohn-Sham states=           18
     kinetic-energy cutoff     =      50.0000  Ry
     charge density cutoff     =     400.0000  Ry
     scf convergence threshold =      1.0E-08
     mixing beta               =       0.3000
     number of iterations used =            8  plain     mixing
     Exchange-correlation= PBE
                           (   1   4   3   4   0   0   0)

     celldm(1)=   5.808092  celldm(2)=   0.000000  celldm(3)=   1.743507
     celldm(4)=   0.000000  celldm(5)=   0.000000  celldm(6)=   0.000000

     crystal axes: (cart. coord. in units of alat)
               a(1) = (   1.000000   0.000000   0.000000 )  
               a(2) = (  -0.500000   0.866025   0.000000 )  
               a(3) = (   0.000000   0.000000   1.743507 )  

     reciprocal axes: (cart. coord. in units 2 pi/alat)
               b(1) = (  1.000000  0.577350 -0.000000 )  
               b(2) = (  0.000000  1.154701  0.000000 )  
               b(3) = (  0.000000 -0.000000  0.573557 )  


     PseudoPot. # 1 for Zn read from file:
     ./pseudos/Zn.upf
     MD5 check sum: 7f56cabf9682ed8c977c2f7d0c5985c5
     Pseudo is Ultrasoft + core correction, Zval = 12.0
     Generated using &quot;atomic&quot; code by A. Dal Corso  v.6.2.2
     Using radial grid of 1201 points,  6 beta functions with: 
                l(1) =   0
                l(2) =   0
                l(3) =   1
                l(4) =   1
                l(5) =   2
                l(6) =   2
     Q(r) pseudized with 0 coefficients 


     PseudoPot. # 2 for O  read from file:
     ./pseudos/O.upf
     MD5 check sum: 91400c9766925bcf19f520983a725ff0
     Pseudo is Ultrasoft + core correction, Zval =  6.0
     Generated using &quot;atomic&quot; code by A. Dal Corso  v.6.3MaX
     Using radial grid of 1095 points,  4 beta functions with: 
                l(1) =   0
                l(2) =   0
                l(3) =   1
                l(4) =   1
     Q(r) pseudized with 0 coefficients 


     atomic species   valence    mass     pseudopotential
        Zn            12.00    63.38000     Zn( 1.00)
        O              6.00    15.99900     O ( 1.00)

     No symmetry found



   Cartesian axes

     site n.     atom                  positions (alat units)
         1           Zn  tau(   1) = (   0.4909790   0.4902036   0.8869903  )
         2           Zn  tau(   2) = (   0.2511663   0.3675527   0.3424434  )
         3           O   tau(   3) = (   0.7442693   0.2012453   1.7083889  )
         4           O   tau(   4) = (  -0.2160393   0.7403470   0.9346270  )

     number of k points=   112

     Number of k-points >= 100: set verbosity='high' to print them.

     Dense  grid:    39971 G-vectors     FFT dimensions: (  40,  40,  72)

     Smooth grid:    14139 G-vectors     FFT dimensions: (  27,  27,  45)

     Estimated max dynamical RAM per process >      27.94 MB

     Estimated total dynamical RAM >     223.55 MB

     Check: negative core charge=   -0.000002

     Initial potential from superposition of free atoms

     starting charge      35.9925, renormalised to      36.0000
     Starting wfcs are   26 randomized atomic wfcs

     total cpu time spent up to now is        3.8 secs

     Self-consistent Calculation

     iteration #  1     ecut=    50.00 Ry     beta= 0.30
     Davidson diagonalization with overlap
     ethr =  1.00E-02,  avg # of iterations =  2.3

     total cpu time spent up to now is        9.1 secs

     total energy              =    -359.99630068 Ry
     estimated scf accuracy    <       1.13358956 Ry

     iteration #  2     ecut=    50.00 Ry     beta= 0.30
     Davidson diagonalization with overlap
     ethr =  3.15E-03,  avg # of iterations =  3.1

     total cpu time spent up to now is       15.0 secs

     total energy              =    -360.15401645 Ry
     estimated scf accuracy    <       0.14618105 Ry

     iteration #  3     ecut=    50.00 Ry     beta= 0.30
     Davidson diagonalization with overlap
     ethr =  4.06E-04,  avg # of iterations =  7.6

     total cpu time spent up to now is       26.4 secs

     total energy              =    -360.23966890 Ry
     estimated scf accuracy    <       0.19355034 Ry

     iteration #  4     ecut=    50.00 Ry     beta= 0.30
     Davidson diagonalization with overlap
     ethr =  4.06E-04,  avg # of iterations =  5.0

     total cpu time spent up to now is       33.3 secs

     total energy              =    -360.27557739 Ry
     estimated scf accuracy    <       0.00907102 Ry

     iteration #  5     ecut=    50.00 Ry     beta= 0.30
     Davidson diagonalization with overlap
     ethr =  2.52E-05,  avg # of iterations =  7.8

     total cpu time spent up to now is       45.0 secs

     total energy              =    -360.27965883 Ry
     estimated scf accuracy    <       0.02917117 Ry

     iteration #  6     ecut=    50.00 Ry     beta= 0.30
     Davidson diagonalization with overlap
     ethr =  2.52E-05,  avg # of iterations =  4.4

     total cpu time spent up to now is       52.6 secs

     total energy              =    -360.28080071 Ry
     estimated scf accuracy    <       0.00345750 Ry

     iteration #  7     ecut=    50.00 Ry     beta= 0.30
     Davidson diagonalization with overlap
     c_bands:  1 eigenvalues not converged
     ethr =  9.60E-06,  avg # of iterations = 10.0

     total cpu time spent up to now is       65.8 secs

     total energy              =    -360.28221607 Ry
     estimated scf accuracy    <       0.02519757 Ry

     iteration #  8     ecut=    50.00 Ry     beta= 0.30
     Davidson diagonalization with overlap
     ethr =  9.60E-06,  avg # of iterations =  5.1

     total cpu time spent up to now is       73.2 secs

     total energy              =    -360.28268103 Ry
     estimated scf accuracy    <       0.00527060 Ry

     iteration #  9     ecut=    50.00 Ry     beta= 0.30
     Davidson diagonalization with overlap
     ethr =  9.60E-06,  avg # of iterations =  2.0

     total cpu time spent up to now is       78.2 secs

     total energy              =    -360.28177401 Ry
     estimated scf accuracy    <       0.00291696 Ry

     iteration # 10     ecut=    50.00 Ry     beta= 0.30
     Davidson diagonalization with overlap
     c_bands:  1 eigenvalues not converged
     ethr =  8.10E-06,  avg # of iterations =  6.1

     total cpu time spent up to now is       85.9 secs

     total energy              =    -360.28345335 Ry
     estimated scf accuracy    <       0.00134495 Ry

     iteration # 11     ecut=    50.00 Ry     beta= 0.30
     Davidson diagonalization with overlap
     ethr =  3.74E-06,  avg # of iterations =  1.9

     total cpu time spent up to now is       90.7 secs

     total energy              =    -360.28325910 Ry
     estimated scf accuracy    <       0.00134846 Ry

     iteration # 12     ecut=    50.00 Ry     beta= 0.30
     Davidson diagonalization with overlap
     ethr =  3.74E-06,  avg # of iterations =  2.1

     total cpu time spent up to now is       95.5 secs

     total energy              =    -360.28313847 Ry
     estimated scf accuracy    <       0.00068020 Ry

     iteration # 13     ecut=    50.00 Ry     beta= 0.30
     Davidson diagonalization with overlap
     ethr =  1.89E-06,  avg # of iterations =  2.7

     total cpu time spent up to now is      100.7 secs

     total energy              =    -360.28314962 Ry
     estimated scf accuracy    <       0.00019639 Ry

     iteration # 14     ecut=    50.00 Ry     beta= 0.30
     Davidson diagonalization with overlap
     ethr =  5.46E-07,  avg # of iterations =  6.3

     total cpu time spent up to now is      108.4 secs

     total energy              =    -360.28325158 Ry
     estimated scf accuracy    <       0.00002817 Ry

     iteration # 15     ecut=    50.00 Ry     beta= 0.30
     Davidson diagonalization with overlap
     c_bands:  1 eigenvalues not converged
     ethr =  7.82E-08,  avg # of iterations =  3.8

     total cpu time spent up to now is      114.1 secs

     total energy              =    -360.28325660 Ry
     estimated scf accuracy    <       0.00003767 Ry

     iteration # 16     ecut=    50.00 Ry     beta= 0.30
     Davidson diagonalization with overlap
     ethr =  7.82E-08,  avg # of iterations =  1.3

     total cpu time spent up to now is      118.6 secs

     total energy              =    -360.28326802 Ry
     estimated scf accuracy    <       0.00003934 Ry

     iteration # 17     ecut=    50.00 Ry     beta= 0.30
     Davidson diagonalization with overlap
     ethr =  7.82E-08,  avg # of iterations =  3.5

     total cpu time spent up to now is      124.0 secs

     total energy              =    -360.28327103 Ry
     estimated scf accuracy    <       0.00008068 Ry

     iteration # 18     ecut=    50.00 Ry     beta= 0.30
     Davidson diagonalization with overlap
     ethr =  7.82E-08,  avg # of iterations =  1.8

     total cpu time spent up to now is      128.7 secs

     total energy              =    -360.28328901 Ry
     estimated scf accuracy    <       0.00009023 Ry

     iteration # 19     ecut=    50.00 Ry     beta= 0.30
     Davidson diagonalization with overlap
     c_bands:  1 eigenvalues not converged
     ethr =  7.82E-08,  avg # of iterations =  6.1

     total cpu time spent up to now is      135.3 secs

     total energy              =    -360.28328453 Ry
     estimated scf accuracy    <       0.00025686 Ry

     iteration # 20     ecut=    50.00 Ry     beta= 0.30
     Davidson diagonalization with overlap
     ethr =  7.82E-08,  avg # of iterations =  1.1

     total cpu time spent up to now is      139.7 secs

     total energy              =    -360.28325233 Ry
     estimated scf accuracy    <       0.00023387 Ry

     iteration # 21     ecut=    50.00 Ry     beta= 0.30
     Davidson diagonalization with overlap
     ethr =  7.82E-08,  avg # of iterations =  6.1

     total cpu time spent up to now is      146.3 secs

     total energy              =    -360.28325911 Ry
     estimated scf accuracy    <       0.00007961 Ry

     iteration # 22     ecut=    50.00 Ry     beta= 0.30
     Davidson diagonalization with overlap
     ethr =  7.82E-08,  avg # of iterations =  1.2

     total cpu time spent up to now is      150.8 secs

     total energy              =    -360.28323459 Ry
     estimated scf accuracy    <       0.00007261 Ry

     iteration # 23     ecut=    50.00 Ry     beta= 0.30
     Davidson diagonalization with overlap
     c_bands:  1 eigenvalues not converged
     ethr =  7.82E-08,  avg # of iterations =  6.0

     total cpu time spent up to now is      159.9 secs

     total energy              =    -360.28324491 Ry
     estimated scf accuracy    <       0.00001900 Ry

     iteration # 24     ecut=    50.00 Ry     beta= 0.30
     Davidson diagonalization with overlap
     ethr =  5.28E-08,  avg # of iterations =  4.8

     total cpu time spent up to now is      165.9 secs

     total energy              =    -360.28324814 Ry
     estimated scf accuracy    <       0.00000133 Ry

     iteration # 25     ecut=    50.00 Ry     beta= 0.30
     Davidson diagonalization with overlap
     c_bands:  2 eigenvalues not converged
     c_bands:  1 eigenvalues not converged
     ethr =  3.68E-09,  avg # of iterations =  9.7

     total cpu time spent up to now is      177.9 secs

     total energy              =    -360.28324796 Ry
     estimated scf accuracy    <       0.00000594 Ry

     iteration # 26     ecut=    50.00 Ry     beta= 0.30
     Davidson diagonalization with overlap
     c_bands:  1 eigenvalues not converged
     ethr =  3.68E-09,  avg # of iterations = 11.0

     total cpu time spent up to now is      189.8 secs

     total energy              =    -360.28324986 Ry
     estimated scf accuracy    <       0.00000204 Ry

     iteration # 27     ecut=    50.00 Ry     beta= 0.30
     Davidson diagonalization with overlap
     ethr =  3.68E-09,  avg # of iterations =  1.2

     total cpu time spent up to now is      194.2 secs

     total energy              =    -360.28324915 Ry
     estimated scf accuracy    <       0.00000162 Ry

     iteration # 28     ecut=    50.00 Ry     beta= 0.30
     Davidson diagonalization with overlap
     ethr =  3.68E-09,  avg # of iterations =  6.6

     total cpu time spent up to now is      202.6 secs

     total energy              =    -360.28324943 Ry
     estimated scf accuracy    <       0.00000068 Ry

     iteration # 29     ecut=    50.00 Ry     beta= 0.30
     Davidson diagonalization with overlap
     c_bands:  1 eigenvalues not converged
     ethr =  1.90E-09,  avg # of iterations =  5.5

     total cpu time spent up to now is      210.5 secs

     total energy              =    -360.28324971 Ry
     estimated scf accuracy    <       0.00000033 Ry

     iteration # 30     ecut=    50.00 Ry     beta= 0.30
     Davidson diagonalization with overlap
     ethr =  9.07E-10,  avg # of iterations =  1.2

     total cpu time spent up to now is      214.9 secs

     total energy              =    -360.28324959 Ry
     estimated scf accuracy    <       0.00000029 Ry

     iteration # 31     ecut=    50.00 Ry     beta= 0.30
     Davidson diagonalization with overlap
     ethr =  7.97E-10,  avg # of iterations =  4.2

     total cpu time spent up to now is      220.9 secs

     End of self-consistent calculation

     Number of k-points >= 100: set verbosity='high' to print the bands.

     highest occupied level (ev):     9.3880

!    total energy              =    -360.28324963 Ry
     estimated scf accuracy    <          6.9E-09 Ry

     The total energy is the sum of the following terms:
     one-electron contribution =    -182.70303126 Ry
     hartree contribution      =     131.95965453 Ry
     xc contribution           =    -109.98426969 Ry
     ewald contribution        =    -199.55560322 Ry

     convergence has been achieved in  31 iterations

     Forces acting on atoms (cartesian axes, Ry/au):

     atom    1 type  1   force =    -2.00818273   -1.82715053    0.08059869
     atom    2 type  1   force =    -0.15074780   -0.05761494   -0.50240763
     atom    3 type  2   force =     0.00740109   -0.01445376    0.10480663
     atom    4 type  2   force =     2.15152944    1.89921923    0.31700231
     The non-local contrib.  to forces
     atom    1 type  1   force =    -0.69551320   -0.57389027   -0.27871302
     atom    2 type  1   force =    -0.00247424    0.17713802    1.05928597
     atom    3 type  2   force =    -0.02161045    0.14174768    1.01662849
     atom    4 type  2   force =    -0.46119407   -0.00821420   -0.62419875
     The ionic contribution  to forces
     atom    1 type  1   force =   -10.70562503   -9.34068975   18.48672672
     atom    2 type  1   force =    -3.93413941   -0.55699067  -20.57666611
     atom    3 type  2   force =     0.41466091   -1.20931118   -9.76682168
     atom    4 type  2   force =    14.22510354   11.10699161   11.85676106
     The local contribution  to forces
     atom    1 type  1   force =     9.19092534    7.92555016  -18.14112137
     atom    2 type  1   force =     3.77312532    0.32896134   19.03284884
     atom    3 type  2   force =    -0.38577736    1.05421599    8.86446117
     atom    4 type  2   force =   -11.60755814   -9.19186185  -10.91925095
     The core correction contribution to forces
     atom    1 type  1   force =     0.20216469    0.16198482    0.01378776
     atom    2 type  1   force =     0.01273050   -0.00672992   -0.01780463
     atom    3 type  2   force =     0.00012576   -0.00111529   -0.00944325
     atom    4 type  2   force =    -0.00481172   -0.00770006    0.00371866
     The Hubbard contrib.    to forces
     atom    1 type  1   force =     0.00000000    0.00000000    0.00000000
     atom    2 type  1   force =     0.00000000    0.00000000    0.00000000
     atom    3 type  2   force =     0.00000000    0.00000000    0.00000000
     atom    4 type  2   force =     0.00000000    0.00000000    0.00000000
     The SCF correction term to forces
     atom    1 type  1   force =    -0.00013481   -0.00010443   -0.00006576
     atom    2 type  1   force =     0.00000973    0.00000735   -0.00005605
     atom    3 type  2   force =     0.00000195    0.00001010   -0.00000246
     atom    4 type  2   force =    -0.00001045    0.00000480   -0.00001206

     Total force =     4.000510     Total SCF correction =     0.000193

     Writing all to output data dir ./ZnO_ANN.save/

     init_run     :      3.31s CPU      3.38s WALL (       1 calls)
     electrons    :    212.43s CPU    217.08s WALL (       1 calls)
     forces       :      0.95s CPU      0.96s WALL (       1 calls)

     Called by init_run:
     wfcinit      :      2.45s CPU      2.50s WALL (       1 calls)
     potinit      :      0.20s CPU      0.21s WALL (       1 calls)
     hinit0       :      0.58s CPU      0.59s WALL (       1 calls)

     Called by electrons:
     c_bands      :    188.81s CPU    192.82s WALL (      31 calls)
     sum_band     :     21.47s CPU     22.05s WALL (      31 calls)
     v_of_rho     :      0.49s CPU      0.52s WALL (      32 calls)
     newd         :      1.59s CPU      1.62s WALL (      32 calls)
     mix_rho      :      0.09s CPU      0.09s WALL (      31 calls)

     Called by c_bands:
     init_us_2    :      1.48s CPU      1.51s WALL (    7168 calls)
     init_us_2:cp :      1.45s CPU      1.49s WALL (    7168 calls)
     cegterg      :    184.30s CPU    188.21s WALL (    3472 calls)

     Called by *egterg:
     cdiaghg      :     21.76s CPU     21.95s WALL (   19293 calls)
     h_psi        :    111.50s CPU    114.43s WALL (   19405 calls)
     s_psi        :     13.36s CPU     13.50s WALL (   19405 calls)
     g_psi        :      0.34s CPU      0.35s WALL (   15821 calls)

     Called by h_psi:
     h_psi:calbec :     13.83s CPU     14.35s WALL (   19405 calls)
     vloc_psi     :     83.91s CPU     86.17s WALL (   19405 calls)
     add_vuspsi   :     13.39s CPU     13.55s WALL (   19405 calls)

     General routines
     calbec       :     18.67s CPU     19.36s WALL (   23325 calls)
     fft          :      0.66s CPU      0.70s WALL (     425 calls)
     ffts         :      0.08s CPU      0.09s WALL (      63 calls)
     fftw         :     86.22s CPU     88.54s WALL (  446506 calls)
     interpolate  :      0.09s CPU      0.10s WALL (      32 calls)

     Parallel routines

     PWSCF        :   3m37.42s CPU   3m42.32s WALL


   This run was terminated on:  13: 4: 4  23Jun2025            

=------------------------------------------------------------------------------=
   JOB DONE.
=------------------------------------------------------------------------------=
Note: The following floating-point exceptions are signalling: IEEE_INVALID_FLAG
