
     Program PWSCF v.7.2 starts on 23Jun2025 at 14:18:48 

     This program is part of the open-source Quantum ESPRESSO suite
     for quantum simulation of materials; please cite
         "P. Giannozzi et al., J. Phys.:Condens. Matter 21 395502 (2009);
         "P. Giannozzi et al., J. Phys.:Condens. Matter 29 465901 (2017);
         "P. Giannozzi et al., J. Chem. Phys. 152 154105 (2020);
          URL http://www.quantum-espresso.org", 
     in publications or presentations arising from this work. More details at
     http://www.quantum-espresso.org/quote

     Parallel version (MPI), running on     8 processors

     MPI processes distributed on     1 nodes
     91154 MiB available memory on the printing compute node when the environment starts

     Reading input from /home/jvc/QEspresso7.2/ZnO_DataBase/scfs_rnd025.in/scf-6.18-1.45-5.in

     Current dimensions of program PWSCF are:
     Max number of different atomic species (ntypx) = 10
     Max number of k-points (npk) =  40000
     Max angular momentum in pseudopotentials (lmaxx) =  4
     file Zn.upf: wavefunction(s)  3D renormalized

     R & G space division:  proc/nbgrp/npool/nimage =       8
     Subspace diagonalization in iterative solution of the eigenvalue problem:
     a serial algorithm will be used


     Parallelization info
     --------------------
     sticks:   dense  smooth     PW     G-vecs:    dense   smooth      PW
     Min         130      64     20                 5028     1766     302
     Max         132      66     21                 5031     1769     307
     Sum        1045     517    163                40233    14141    2429

     Using Slab Decomposition



     bravais-lattice index     =            4
     lattice parameter (alat)  =       6.1788  a.u.
     unit-cell volume          =     296.8179 (a.u.)^3
     number of atoms/cell      =            4
     number of atomic types    =            2
     number of electrons       =        36.00
     number of Kohn-Sham states=           18
     kinetic-energy cutoff     =      50.0000  Ry
     charge density cutoff     =     400.0000  Ry
     scf convergence threshold =      1.0E-08
     mixing beta               =       0.3000
     number of iterations used =            8  plain     mixing
     Exchange-correlation= PBE
                           (   1   4   3   4   0   0   0)

     celldm(1)=   6.178821  celldm(2)=   0.000000  celldm(3)=   1.452923
     celldm(4)=   0.000000  celldm(5)=   0.000000  celldm(6)=   0.000000

     crystal axes: (cart. coord. in units of alat)
               a(1) = (   1.000000   0.000000   0.000000 )  
               a(2) = (  -0.500000   0.866025   0.000000 )  
               a(3) = (   0.000000   0.000000   1.452923 )  

     reciprocal axes: (cart. coord. in units 2 pi/alat)
               b(1) = (  1.000000  0.577350 -0.000000 )  
               b(2) = (  0.000000  1.154701  0.000000 )  
               b(3) = (  0.000000 -0.000000  0.688268 )  


     PseudoPot. # 1 for Zn read from file:
     ./pseudos/Zn.upf
     MD5 check sum: 7f56cabf9682ed8c977c2f7d0c5985c5
     Pseudo is Ultrasoft + core correction, Zval = 12.0
     Generated using &quot;atomic&quot; code by A. Dal Corso  v.6.2.2
     Using radial grid of 1201 points,  6 beta functions with: 
                l(1) =   0
                l(2) =   0
                l(3) =   1
                l(4) =   1
                l(5) =   2
                l(6) =   2
     Q(r) pseudized with 0 coefficients 


     PseudoPot. # 2 for O  read from file:
     ./pseudos/O.upf
     MD5 check sum: 91400c9766925bcf19f520983a725ff0
     Pseudo is Ultrasoft + core correction, Zval =  6.0
     Generated using &quot;atomic&quot; code by A. Dal Corso  v.6.3MaX
     Using radial grid of 1095 points,  4 beta functions with: 
                l(1) =   0
                l(2) =   0
                l(3) =   1
                l(4) =   1
     Q(r) pseudized with 0 coefficients 


     atomic species   valence    mass     pseudopotential
        Zn            12.00    63.38000     Zn( 1.00)
        O              6.00    15.99900     O ( 1.00)

     No symmetry found



   Cartesian axes

     site n.     atom                  positions (alat units)
         1           Zn  tau(   1) = (   0.3564756   0.1422170   0.8754427  )
         2           Zn  tau(   2) = (  -0.0764740   0.7448057  -0.3133637  )
         3           O   tau(   3) = (   0.6603759   0.3401568   1.3172101  )
         4           O   tau(   4) = (  -0.0608172   0.6337238   0.8843512  )

     number of k points=   112

     Number of k-points >= 100: set verbosity='high' to print them.

     Dense  grid:    40233 G-vectors     FFT dimensions: (  40,  40,  60)

     Smooth grid:    14141 G-vectors     FFT dimensions: (  27,  27,  45)

     Estimated max dynamical RAM per process >      27.98 MB

     Estimated total dynamical RAM >     223.81 MB

     Check: negative core charge=   -0.000002

     Initial potential from superposition of free atoms

     starting charge      35.9925, renormalised to      36.0000
     Starting wfcs are   26 randomized atomic wfcs

     total cpu time spent up to now is        3.8 secs

     Self-consistent Calculation

     iteration #  1     ecut=    50.00 Ry     beta= 0.30
     Davidson diagonalization with overlap
     ethr =  1.00E-02,  avg # of iterations =  5.0

     total cpu time spent up to now is       11.7 secs

     total energy              =    -352.87838222 Ry
     estimated scf accuracy    <       1.88746541 Ry

     iteration #  2     ecut=    50.00 Ry     beta= 0.30
     Davidson diagonalization with overlap
     ethr =  5.24E-03,  avg # of iterations =  2.0

     total cpu time spent up to now is       17.0 secs

     total energy              =    -352.80967574 Ry
     estimated scf accuracy    <       0.45215421 Ry

     iteration #  3     ecut=    50.00 Ry     beta= 0.30
     Davidson diagonalization with overlap
     ethr =  1.26E-03,  avg # of iterations =  7.4

     total cpu time spent up to now is       26.7 secs

     total energy              =    -353.13783152 Ry
     estimated scf accuracy    <       0.52310562 Ry

     iteration #  4     ecut=    50.00 Ry     beta= 0.30
     Davidson diagonalization with overlap
     ethr =  1.26E-03,  avg # of iterations =  1.4

     total cpu time spent up to now is       31.2 secs

     total energy              =    -352.99824789 Ry
     estimated scf accuracy    <       0.24768352 Ry

     iteration #  5     ecut=    50.00 Ry     beta= 0.30
     Davidson diagonalization with overlap
     ethr =  6.88E-04,  avg # of iterations =  7.6

     total cpu time spent up to now is       40.7 secs

     total energy              =    -353.16876041 Ry
     estimated scf accuracy    <       0.22425730 Ry

     iteration #  6     ecut=    50.00 Ry     beta= 0.30
     Davidson diagonalization with overlap
     ethr =  6.23E-04,  avg # of iterations =  1.1

     total cpu time spent up to now is       45.2 secs

     total energy              =    -353.13235688 Ry
     estimated scf accuracy    <       0.15059443 Ry

     iteration #  7     ecut=    50.00 Ry     beta= 0.30
     Davidson diagonalization with overlap
     ethr =  4.18E-04,  avg # of iterations =  1.9

     total cpu time spent up to now is       50.0 secs

     total energy              =    -353.12455757 Ry
     estimated scf accuracy    <       0.05443423 Ry

     iteration #  8     ecut=    50.00 Ry     beta= 0.30
     Davidson diagonalization with overlap
     ethr =  1.51E-04,  avg # of iterations =  4.7

     total cpu time spent up to now is       55.8 secs

     total energy              =    -353.13421973 Ry
     estimated scf accuracy    <       0.00514623 Ry

     iteration #  9     ecut=    50.00 Ry     beta= 0.30
     Davidson diagonalization with overlap
     ethr =  1.43E-05,  avg # of iterations =  9.2

     total cpu time spent up to now is       65.9 secs

     total energy              =    -353.14120681 Ry
     estimated scf accuracy    <       0.00308535 Ry

     iteration # 10     ecut=    50.00 Ry     beta= 0.30
     Davidson diagonalization with overlap
     ethr =  8.57E-06,  avg # of iterations =  1.3

     total cpu time spent up to now is       70.4 secs

     total energy              =    -353.13929047 Ry
     estimated scf accuracy    <       0.00330655 Ry

     iteration # 11     ecut=    50.00 Ry     beta= 0.30
     Davidson diagonalization with overlap
     ethr =  8.57E-06,  avg # of iterations =  6.0

     total cpu time spent up to now is       77.7 secs

     total energy              =    -353.14038663 Ry
     estimated scf accuracy    <       0.00058201 Ry

     iteration # 12     ecut=    50.00 Ry     beta= 0.30
     Davidson diagonalization with overlap
     ethr =  1.62E-06,  avg # of iterations =  3.1

     total cpu time spent up to now is       82.8 secs

     total energy              =    -353.14041582 Ry
     estimated scf accuracy    <       0.00038949 Ry

     iteration # 13     ecut=    50.00 Ry     beta= 0.30
     Davidson diagonalization with overlap
     ethr =  1.08E-06,  avg # of iterations =  2.2

     total cpu time spent up to now is       87.6 secs

     total energy              =    -353.14043190 Ry
     estimated scf accuracy    <       0.00030592 Ry

     iteration # 14     ecut=    50.00 Ry     beta= 0.30
     Davidson diagonalization with overlap
     ethr =  8.50E-07,  avg # of iterations =  1.9

     total cpu time spent up to now is       92.3 secs

     total energy              =    -353.14039750 Ry
     estimated scf accuracy    <       0.00029321 Ry

     iteration # 15     ecut=    50.00 Ry     beta= 0.30
     Davidson diagonalization with overlap
     ethr =  8.14E-07,  avg # of iterations =  2.0

     total cpu time spent up to now is       97.2 secs

     total energy              =    -353.14037923 Ry
     estimated scf accuracy    <       0.00017510 Ry

     iteration # 16     ecut=    50.00 Ry     beta= 0.30
     Davidson diagonalization with overlap
     ethr =  4.86E-07,  avg # of iterations =  2.0

     total cpu time spent up to now is      101.9 secs

     total energy              =    -353.14038142 Ry
     estimated scf accuracy    <       0.00009313 Ry

     iteration # 17     ecut=    50.00 Ry     beta= 0.30
     Davidson diagonalization with overlap
     ethr =  2.59E-07,  avg # of iterations =  2.4

     total cpu time spent up to now is      106.9 secs

     total energy              =    -353.14036543 Ry
     estimated scf accuracy    <       0.00005878 Ry

     iteration # 18     ecut=    50.00 Ry     beta= 0.30
     Davidson diagonalization with overlap
     ethr =  1.63E-07,  avg # of iterations =  6.3

     total cpu time spent up to now is      113.5 secs

     total energy              =    -353.14038246 Ry
     estimated scf accuracy    <       0.00000510 Ry

     iteration # 19     ecut=    50.00 Ry     beta= 0.30
     Davidson diagonalization with overlap
     ethr =  1.42E-08,  avg # of iterations =  6.7

     total cpu time spent up to now is      121.7 secs

     total energy              =    -353.14038436 Ry
     estimated scf accuracy    <       0.00000329 Ry

     iteration # 20     ecut=    50.00 Ry     beta= 0.30
     Davidson diagonalization with overlap
     ethr =  9.13E-09,  avg # of iterations =  5.9

     total cpu time spent up to now is      129.5 secs

     total energy              =    -353.14038530 Ry
     estimated scf accuracy    <       0.00000250 Ry

     iteration # 21     ecut=    50.00 Ry     beta= 0.30
     Davidson diagonalization with overlap
     ethr =  6.94E-09,  avg # of iterations =  1.9

     total cpu time spent up to now is      134.3 secs

     total energy              =    -353.14038512 Ry
     estimated scf accuracy    <       0.00000104 Ry

     iteration # 22     ecut=    50.00 Ry     beta= 0.30
     Davidson diagonalization with overlap
     ethr =  2.89E-09,  avg # of iterations =  5.1

     total cpu time spent up to now is      141.4 secs

     total energy              =    -353.14038533 Ry
     estimated scf accuracy    <       0.00000039 Ry

     iteration # 23     ecut=    50.00 Ry     beta= 0.30
     Davidson diagonalization with overlap
     ethr =  1.07E-09,  avg # of iterations =  6.4

     total cpu time spent up to now is      148.8 secs

     total energy              =    -353.14038545 Ry
     estimated scf accuracy    <       0.00000009 Ry

     iteration # 24     ecut=    50.00 Ry     beta= 0.30
     Davidson diagonalization with overlap
     ethr =  2.44E-10,  avg # of iterations =  3.1

     total cpu time spent up to now is      154.1 secs

     total energy              =    -353.14038543 Ry
     estimated scf accuracy    <       0.00000006 Ry

     iteration # 25     ecut=    50.00 Ry     beta= 0.30
     Davidson diagonalization with overlap
     ethr =  1.76E-10,  avg # of iterations =  6.0

     total cpu time spent up to now is      161.3 secs

     total energy              =    -353.14038545 Ry
     estimated scf accuracy    <       0.00000001 Ry

     iteration # 26     ecut=    50.00 Ry     beta= 0.30
     Davidson diagonalization with overlap
     ethr =  4.16E-11,  avg # of iterations =  5.5

     total cpu time spent up to now is      167.7 secs

     total energy              =    -353.14038545 Ry
     estimated scf accuracy    <       0.00000003 Ry

     iteration # 27     ecut=    50.00 Ry     beta= 0.30
     Davidson diagonalization with overlap
     ethr =  4.16E-11,  avg # of iterations =  6.6

     total cpu time spent up to now is      176.5 secs

     total energy              =    -353.14038546 Ry
     estimated scf accuracy    <       0.00000001 Ry

     iteration # 28     ecut=    50.00 Ry     beta= 0.30
     Davidson diagonalization with overlap
     ethr =  3.26E-11,  avg # of iterations =  1.9

     total cpu time spent up to now is      181.4 secs

     total energy              =    -353.14038545 Ry
     estimated scf accuracy    <       0.00000002 Ry

     iteration # 29     ecut=    50.00 Ry     beta= 0.30
     Davidson diagonalization with overlap
     ethr =  3.26E-11,  avg # of iterations =  1.8

     total cpu time spent up to now is      186.3 secs

     End of self-consistent calculation

     Number of k-points >= 100: set verbosity='high' to print the bands.

     highest occupied level (ev):    11.9342

!    total energy              =    -353.14038544 Ry
     estimated scf accuracy    <          9.3E-09 Ry

     The total energy is the sum of the following terms:
     one-electron contribution =    -351.32342364 Ry
     hartree contribution      =     213.78465350 Ry
     xc contribution           =    -112.95726571 Ry
     ewald contribution        =    -102.64434960 Ry

     convergence has been achieved in  29 iterations

     Forces acting on atoms (cartesian axes, Ry/au):

     atom    1 type  1   force =    -1.56726982    6.30784342   -4.22815129
     atom    2 type  1   force =     0.44334858    1.28615939   15.81958073
     atom    3 type  2   force =    -0.17044169   -0.18493691    0.39994392
     atom    4 type  2   force =     1.29436292   -7.40906590  -11.99137336
     The non-local contrib.  to forces
     atom    1 type  1   force =     0.24466691   -1.00816926    1.70104524
     atom    2 type  1   force =    -0.44929258    1.50273761   -2.99734823
     atom    3 type  2   force =    -0.48776443   -0.41793102   -0.31290099
     atom    4 type  2   force =     0.13278349    0.68112616   -0.09798869
     The ionic contribution  to forces
     atom    1 type  1   force =   -12.45827323   42.22032151  -49.72405861
     atom    2 type  1   force =     5.60195146   -8.75542075   75.53996082
     atom    3 type  2   force =     0.42784580   -0.25591640   23.10540489
     atom    4 type  2   force =     6.42847597  -33.20898435  -48.92130710
     The local contribution  to forces
     atom    1 type  1   force =    10.55336397  -34.54594931   43.60213504
     atom    2 type  1   force =    -4.71050124    8.62440207  -56.00241976
     atom    3 type  2   force =    -0.11560155    0.48424000  -22.39118318
     atom    4 type  2   force =    -5.26206897   25.10566932   37.00323419
     The core correction contribution to forces
     atom    1 type  1   force =     0.09302998   -0.35855893    0.19289592
     atom    2 type  1   force =     0.00120510   -0.08570040   -0.72106520
     atom    3 type  2   force =     0.00508223    0.00475458   -0.00138359
     atom    4 type  2   force =    -0.00484385    0.01319934    0.02481011
     The Hubbard contrib.    to forces
     atom    1 type  1   force =     0.00000000    0.00000000    0.00000000
     atom    2 type  1   force =     0.00000000    0.00000000    0.00000000
     atom    3 type  2   force =     0.00000000    0.00000000    0.00000000
     atom    4 type  2   force =     0.00000000    0.00000000    0.00000000
     The SCF correction term to forces
     atom    1 type  1   force =    -0.00007158    0.00026797   -0.00009237
     atom    2 type  1   force =    -0.00002829    0.00020940    0.00052961
     atom    3 type  2   force =    -0.00001788   -0.00001550    0.00008330
     atom    4 type  2   force =     0.00000213   -0.00000781   -0.00004536

     Total force =    22.645491     Total SCF correction =     0.000648

     Writing all to output data dir ./ZnO_ANN.save/

     init_run     :      3.24s CPU      3.33s WALL (       1 calls)
     electrons    :    179.39s CPU    182.50s WALL (       1 calls)
     forces       :      0.95s CPU      0.96s WALL (       1 calls)

     Called by init_run:
     wfcinit      :      2.45s CPU      2.51s WALL (       1 calls)
     potinit      :      0.20s CPU      0.20s WALL (       1 calls)
     hinit0       :      0.52s CPU      0.53s WALL (       1 calls)

     Called by electrons:
     c_bands      :    157.22s CPU    159.87s WALL (      29 calls)
     sum_band     :     20.16s CPU     20.57s WALL (      29 calls)
     v_of_rho     :      0.42s CPU      0.44s WALL (      30 calls)
     newd         :      1.54s CPU      1.56s WALL (      30 calls)
     mix_rho      :      0.07s CPU      0.08s WALL (      29 calls)

     Called by c_bands:
     init_us_2    :      1.22s CPU      1.23s WALL (    6720 calls)
     init_us_2:cp :      1.19s CPU      1.21s WALL (    6720 calls)
     cegterg      :    153.04s CPU    155.64s WALL (    3248 calls)

     Called by *egterg:
     cdiaghg      :     16.50s CPU     16.63s WALL (   16495 calls)
     h_psi        :     92.19s CPU     94.16s WALL (   16607 calls)
     s_psi        :      8.56s CPU      8.64s WALL (   16607 calls)
     g_psi        :      0.27s CPU      0.27s WALL (   13247 calls)

     Called by h_psi:
     h_psi:calbec :     11.86s CPU     12.24s WALL (   16607 calls)
     vloc_psi     :     71.51s CPU     73.03s WALL (   16607 calls)
     add_vuspsi   :      8.55s CPU      8.63s WALL (   16607 calls)

     General routines
     calbec       :     16.53s CPU     17.03s WALL (   20303 calls)
     fft          :      0.68s CPU      0.72s WALL (     399 calls)
     ffts         :      0.08s CPU      0.08s WALL (      59 calls)
     fftw         :     77.04s CPU     78.67s WALL (  384326 calls)
     interpolate  :      0.09s CPU      0.10s WALL (      30 calls)

     Parallel routines

     PWSCF        :   3m 4.34s CPU   3m 7.69s WALL


   This run was terminated on:  14:21:56  23Jun2025            

=------------------------------------------------------------------------------=
   JOB DONE.
=------------------------------------------------------------------------------=
Note: The following floating-point exceptions are signalling: IEEE_INVALID_FLAG
