
     Program PWSCF v.7.2 starts on 23Jun2025 at 12:48:29 

     This program is part of the open-source Quantum ESPRESSO suite
     for quantum simulation of materials; please cite
         "P. Giannozzi et al., J. Phys.:Condens. Matter 21 395502 (2009);
         "P. Giannozzi et al., J. Phys.:Condens. Matter 29 465901 (2017);
         "P. Giannozzi et al., J. Chem. Phys. 152 154105 (2020);
          URL http://www.quantum-espresso.org", 
     in publications or presentations arising from this work. More details at
     http://www.quantum-espresso.org/quote

     Parallel version (MPI), running on     8 processors

     MPI processes distributed on     1 nodes
     91260 MiB available memory on the printing compute node when the environment starts

     Reading input from /home/jvc/QEspresso7.2/ZnO_DataBase/scfs_rnd025.in/scf-5.81-1.61-5.in

     Current dimensions of program PWSCF are:
     Max number of different atomic species (ntypx) = 10
     Max number of k-points (npk) =  40000
     Max angular momentum in pseudopotentials (lmaxx) =  4
     file Zn.upf: wavefunction(s)  3D renormalized

     R & G space division:  proc/nbgrp/npool/nimage =       8
     Subspace diagonalization in iterative solution of the eigenvalue problem:
     a serial algorithm will be used


     Parallelization info
     --------------------
     sticks:   dense  smooth     PW     G-vecs:    dense   smooth      PW
     Min         116      57     18                 4622     1635     286
     Max         117      58     20                 4625     1638     289
     Sum         931     463    151                36989    13093    2297

     Using Slab Decomposition



     bravais-lattice index     =            4
     lattice parameter (alat)  =       5.8081  a.u.
     unit-cell volume          =     273.9246 (a.u.)^3
     number of atoms/cell      =            4
     number of atomic types    =            2
     number of electrons       =        36.00
     number of Kohn-Sham states=           18
     kinetic-energy cutoff     =      50.0000  Ry
     charge density cutoff     =     400.0000  Ry
     scf convergence threshold =      1.0E-08
     mixing beta               =       0.3000
     number of iterations used =            8  plain     mixing
     Exchange-correlation= PBE
                           (   1   4   3   4   0   0   0)

     celldm(1)=   5.808092  celldm(2)=   0.000000  celldm(3)=   1.614358
     celldm(4)=   0.000000  celldm(5)=   0.000000  celldm(6)=   0.000000

     crystal axes: (cart. coord. in units of alat)
               a(1) = (   1.000000   0.000000   0.000000 )  
               a(2) = (  -0.500000   0.866025   0.000000 )  
               a(3) = (   0.000000   0.000000   1.614358 )  

     reciprocal axes: (cart. coord. in units 2 pi/alat)
               b(1) = (  1.000000  0.577350 -0.000000 )  
               b(2) = (  0.000000  1.154701  0.000000 )  
               b(3) = (  0.000000 -0.000000  0.619441 )  


     PseudoPot. # 1 for Zn read from file:
     ./pseudos/Zn.upf
     MD5 check sum: 7f56cabf9682ed8c977c2f7d0c5985c5
     Pseudo is Ultrasoft + core correction, Zval = 12.0
     Generated using &quot;atomic&quot; code by A. Dal Corso  v.6.2.2
     Using radial grid of 1201 points,  6 beta functions with: 
                l(1) =   0
                l(2) =   0
                l(3) =   1
                l(4) =   1
                l(5) =   2
                l(6) =   2
     Q(r) pseudized with 0 coefficients 


     PseudoPot. # 2 for O  read from file:
     ./pseudos/O.upf
     MD5 check sum: 91400c9766925bcf19f520983a725ff0
     Pseudo is Ultrasoft + core correction, Zval =  6.0
     Generated using &quot;atomic&quot; code by A. Dal Corso  v.6.3MaX
     Using radial grid of 1095 points,  4 beta functions with: 
                l(1) =   0
                l(2) =   0
                l(3) =   1
                l(4) =   1
     Q(r) pseudized with 0 coefficients 


     atomic species   valence    mass     pseudopotential
        Zn            12.00    63.38000     Zn( 1.00)
        O              6.00    15.99900     O ( 1.00)

     No symmetry found



   Cartesian axes

     site n.     atom                  positions (alat units)
         1           Zn  tau(   1) = (   0.4377695   0.4959916   0.5269931  )
         2           Zn  tau(   2) = (  -0.1151276   0.6412128   0.0039805  )
         3           O   tau(   3) = (   0.6426762   0.3940817   1.5103721  )
         4           O   tau(   4) = (  -0.2209320   0.7880909   0.2660756  )

     number of k points=   112

     Number of k-points >= 100: set verbosity='high' to print them.

     Dense  grid:    36989 G-vectors     FFT dimensions: (  40,  40,  60)

     Smooth grid:    13093 G-vectors     FFT dimensions: (  27,  27,  45)

     Estimated max dynamical RAM per process >      26.07 MB

     Estimated total dynamical RAM >     208.58 MB

     Check: negative core charge=   -0.000002

     Initial potential from superposition of free atoms

     starting charge      35.9925, renormalised to      36.0000
     Starting wfcs are   26 randomized atomic wfcs

     total cpu time spent up to now is        3.7 secs

     Self-consistent Calculation

     iteration #  1     ecut=    50.00 Ry     beta= 0.30
     Davidson diagonalization with overlap
     ethr =  1.00E-02,  avg # of iterations =  3.5

     total cpu time spent up to now is       10.4 secs

     total energy              =    -355.96045625 Ry
     estimated scf accuracy    <       1.49786803 Ry

     iteration #  2     ecut=    50.00 Ry     beta= 0.30
     Davidson diagonalization with overlap
     ethr =  4.16E-03,  avg # of iterations =  2.0

     total cpu time spent up to now is       15.6 secs

     total energy              =    -355.88083106 Ry
     estimated scf accuracy    <       0.39590112 Ry

     iteration #  3     ecut=    50.00 Ry     beta= 0.30
     Davidson diagonalization with overlap
     ethr =  1.10E-03,  avg # of iterations =  7.1

     total cpu time spent up to now is       25.8 secs

     total energy              =    -356.15917718 Ry
     estimated scf accuracy    <       0.32407052 Ry

     iteration #  4     ecut=    50.00 Ry     beta= 0.30
     Davidson diagonalization with overlap
     ethr =  9.00E-04,  avg # of iterations =  1.5

     total cpu time spent up to now is       30.2 secs

     total energy              =    -356.06882920 Ry
     estimated scf accuracy    <       0.13084957 Ry

     iteration #  5     ecut=    50.00 Ry     beta= 0.30
     Davidson diagonalization with overlap
     ethr =  3.63E-04,  avg # of iterations = 13.1

     total cpu time spent up to now is       44.7 secs

     total energy              =    -356.27818259 Ry
     estimated scf accuracy    <       1.09151567 Ry

     iteration #  6     ecut=    50.00 Ry     beta= 0.30
     Davidson diagonalization with overlap
     ethr =  3.63E-04,  avg # of iterations =  3.2

     total cpu time spent up to now is       49.5 secs

     total energy              =    -356.03834424 Ry
     estimated scf accuracy    <       0.72190402 Ry

     iteration #  7     ecut=    50.00 Ry     beta= 0.30
     Davidson diagonalization with overlap
     ethr =  3.63E-04,  avg # of iterations = 10.9

     total cpu time spent up to now is       59.5 secs

     total energy              =    -356.17072668 Ry
     estimated scf accuracy    <       0.00946412 Ry

     iteration #  8     ecut=    50.00 Ry     beta= 0.30
     Davidson diagonalization with overlap
     c_bands:  1 eigenvalues not converged
     ethr =  2.63E-05,  avg # of iterations =  9.6

     total cpu time spent up to now is       72.2 secs

     total energy              =    -356.16453725 Ry
     estimated scf accuracy    <       0.05897603 Ry

     iteration #  9     ecut=    50.00 Ry     beta= 0.30
     Davidson diagonalization with overlap
     ethr =  2.63E-05,  avg # of iterations = 10.4

     total cpu time spent up to now is       82.4 secs

     total energy              =    -356.17483963 Ry
     estimated scf accuracy    <       0.00168555 Ry

     iteration # 10     ecut=    50.00 Ry     beta= 0.30
     Davidson diagonalization with overlap
     ethr =  4.68E-06,  avg # of iterations =  7.2

     total cpu time spent up to now is       90.0 secs

     total energy              =    -356.17418898 Ry
     estimated scf accuracy    <       0.00417856 Ry

     iteration # 11     ecut=    50.00 Ry     beta= 0.30
     Davidson diagonalization with overlap
     ethr =  4.68E-06,  avg # of iterations =  7.3

     total cpu time spent up to now is       96.4 secs

     total energy              =    -356.17449786 Ry
     estimated scf accuracy    <       0.00025105 Ry

     iteration # 12     ecut=    50.00 Ry     beta= 0.30
     Davidson diagonalization with overlap
     c_bands:  1 eigenvalues not converged
     c_bands:  1 eigenvalues not converged
     ethr =  6.97E-07,  avg # of iterations = 13.0

     total cpu time spent up to now is      108.2 secs

     total energy              =    -356.17495426 Ry
     estimated scf accuracy    <       0.00088495 Ry

     iteration # 13     ecut=    50.00 Ry     beta= 0.30
     Davidson diagonalization with overlap
     ethr =  6.97E-07,  avg # of iterations =  1.3

     total cpu time spent up to now is      112.5 secs

     total energy              =    -356.17479525 Ry
     estimated scf accuracy    <       0.00103834 Ry

     iteration # 14     ecut=    50.00 Ry     beta= 0.30
     Davidson diagonalization with overlap
     ethr =  6.97E-07,  avg # of iterations =  2.0

     total cpu time spent up to now is      117.0 secs

     total energy              =    -356.17518466 Ry
     estimated scf accuracy    <       0.00070669 Ry

     iteration # 15     ecut=    50.00 Ry     beta= 0.30
     Davidson diagonalization with overlap
     ethr =  6.97E-07,  avg # of iterations = 10.2

     total cpu time spent up to now is      125.2 secs

     total energy              =    -356.17552362 Ry
     estimated scf accuracy    <       0.00316893 Ry

     iteration # 16     ecut=    50.00 Ry     beta= 0.30
     Davidson diagonalization with overlap
     ethr =  6.97E-07,  avg # of iterations =  2.4

     total cpu time spent up to now is      130.5 secs

     total energy              =    -356.17397976 Ry
     estimated scf accuracy    <       0.00382427 Ry

     iteration # 17     ecut=    50.00 Ry     beta= 0.30
     Davidson diagonalization with overlap
     c_bands:  1 eigenvalues not converged
     ethr =  6.97E-07,  avg # of iterations = 13.8

     total cpu time spent up to now is      143.2 secs

     total energy              =    -356.17470957 Ry
     estimated scf accuracy    <       0.00016196 Ry

     iteration # 18     ecut=    50.00 Ry     beta= 0.30
     Davidson diagonalization with overlap
     ethr =  4.50E-07,  avg # of iterations =  2.1

     total cpu time spent up to now is      147.9 secs

     total energy              =    -356.17469113 Ry
     estimated scf accuracy    <       0.00007540 Ry

     iteration # 19     ecut=    50.00 Ry     beta= 0.30
     Davidson diagonalization with overlap
     ethr =  2.09E-07,  avg # of iterations =  8.4

     total cpu time spent up to now is      155.1 secs

     total energy              =    -356.17472158 Ry
     estimated scf accuracy    <       0.00001527 Ry

     iteration # 20     ecut=    50.00 Ry     beta= 0.30
     Davidson diagonalization with overlap
     ethr =  4.24E-08,  avg # of iterations =  2.4

     total cpu time spent up to now is      160.2 secs

     total energy              =    -356.17472157 Ry
     estimated scf accuracy    <       0.00001048 Ry

     iteration # 21     ecut=    50.00 Ry     beta= 0.30
     Davidson diagonalization with overlap
     ethr =  2.91E-08,  avg # of iterations =  3.3

     total cpu time spent up to now is      165.2 secs

     total energy              =    -356.17472094 Ry
     estimated scf accuracy    <       0.00000512 Ry

     iteration # 22     ecut=    50.00 Ry     beta= 0.30
     Davidson diagonalization with overlap
     ethr =  1.42E-08,  avg # of iterations =  8.1

     total cpu time spent up to now is      171.5 secs

     total energy              =    -356.17472231 Ry
     estimated scf accuracy    <       0.00000011 Ry

     iteration # 23     ecut=    50.00 Ry     beta= 0.30
     Davidson diagonalization with overlap
     c_bands:  1 eigenvalues not converged
     ethr =  3.06E-10,  avg # of iterations = 10.5

     total cpu time spent up to now is      181.9 secs

     total energy              =    -356.17472248 Ry
     estimated scf accuracy    <       0.00000009 Ry

     iteration # 24     ecut=    50.00 Ry     beta= 0.30
     Davidson diagonalization with overlap
     ethr =  2.45E-10,  avg # of iterations =  1.8

     total cpu time spent up to now is      186.6 secs

     total energy              =    -356.17472247 Ry
     estimated scf accuracy    <       0.00000005 Ry

     iteration # 25     ecut=    50.00 Ry     beta= 0.30
     Davidson diagonalization with overlap
     ethr =  1.40E-10,  avg # of iterations =  8.9

     total cpu time spent up to now is      193.3 secs

     total energy              =    -356.17472248 Ry
     estimated scf accuracy    <       0.00000001 Ry

     iteration # 26     ecut=    50.00 Ry     beta= 0.30
     Davidson diagonalization with overlap
     ethr =  3.32E-11,  avg # of iterations =  2.6

     total cpu time spent up to now is      198.2 secs

     total energy              =    -356.17472248 Ry
     estimated scf accuracy    <       0.00000001 Ry

     iteration # 27     ecut=    50.00 Ry     beta= 0.30
     Davidson diagonalization with overlap
     ethr =  2.97E-11,  avg # of iterations =  6.9

     total cpu time spent up to now is      204.2 secs

     End of self-consistent calculation

     Number of k-points >= 100: set verbosity='high' to print the bands.

     highest occupied level (ev):    13.4154

!    total energy              =    -356.17472248 Ry
     estimated scf accuracy    <          7.1E-11 Ry

     The total energy is the sum of the following terms:
     one-electron contribution =    -266.64864963 Ry
     hartree contribution      =     173.72497196 Ry
     xc contribution           =    -111.74643432 Ry
     ewald contribution        =    -151.50461049 Ry

     convergence has been achieved in  27 iterations

     Forces acting on atoms (cartesian axes, Ry/au):

     atom    1 type  1   force =    -0.29685766   -0.19253409    0.53677217
     atom    2 type  1   force =     5.95561501   -1.08812335   -6.26298630
     atom    3 type  2   force =    -2.92537636   -3.11762629   -1.58318571
     atom    4 type  2   force =    -2.73338099    4.39828372    7.30939984
     The non-local contrib.  to forces
     atom    1 type  1   force =     0.09012332    0.04988432   -0.59384288
     atom    2 type  1   force =    -0.44457147    0.51241752    1.28641225
     atom    3 type  2   force =     0.70220309    0.57508010    0.46402410
     atom    4 type  2   force =     0.00341461   -0.50596287   -0.15319239
     The ionic contribution  to forces
     atom    1 type  1   force =    -6.35986651   -2.88223884   39.06603404
     atom    2 type  1   force =    29.08308799    0.25030520  -43.93781110
     atom    3 type  2   force =   -15.25104563  -17.95411468  -25.72025147
     atom    4 type  2   force =    -7.47217586   20.58604832   30.59202854
     The local contribution  to forces
     atom    1 type  1   force =     5.93395998    2.61333002  -37.89315767
     atom    2 type  1   force =   -22.31437103   -1.85633239   36.08371344
     atom    3 type  2   force =    11.61922007   14.25499189   23.66985379
     atom    4 type  2   force =     4.72929452  -15.67275802  -23.11102376
     The core correction contribution to forces
     atom    1 type  1   force =     0.03891921    0.02648627   -0.04227752
     atom    2 type  1   force =    -0.36852572    0.00549351    0.30469993
     atom    3 type  2   force =     0.00424332    0.00640610    0.00317663
     atom    4 type  2   force =     0.00609287   -0.00904032   -0.01841235
     The Hubbard contrib.    to forces
     atom    1 type  1   force =     0.00000000    0.00000000    0.00000000
     atom    2 type  1   force =     0.00000000    0.00000000    0.00000000
     atom    3 type  2   force =     0.00000000    0.00000000    0.00000000
     atom    4 type  2   force =     0.00000000    0.00000000    0.00000000
     The SCF correction term to forces
     atom    1 type  1   force =     0.00000455   -0.00000050    0.00001544
     atom    2 type  1   force =    -0.00000654   -0.00001183   -0.00000159
     atom    3 type  2   force =     0.00000101    0.00000565    0.00001048
     atom    4 type  2   force =    -0.00000891   -0.00000804   -0.00000096

     Total force =    13.316125     Total SCF correction =     0.000027

     Writing all to output data dir ./ZnO_ANN.save/

     init_run     :      3.15s CPU      3.24s WALL (       1 calls)
     electrons    :    196.36s CPU    200.49s WALL (       1 calls)
     forces       :      0.89s CPU      0.90s WALL (       1 calls)

     Called by init_run:
     wfcinit      :      2.37s CPU      2.43s WALL (       1 calls)
     potinit      :      0.19s CPU      0.19s WALL (       1 calls)
     hinit0       :      0.51s CPU      0.52s WALL (       1 calls)

     Called by electrons:
     c_bands      :    176.43s CPU    180.02s WALL (      27 calls)
     sum_band     :     18.17s CPU     18.66s WALL (      27 calls)
     v_of_rho     :      0.38s CPU      0.41s WALL (      28 calls)
     newd         :      1.35s CPU      1.37s WALL (      28 calls)
     mix_rho      :      0.06s CPU      0.07s WALL (      27 calls)

     Called by c_bands:
     init_us_2    :      1.18s CPU      1.20s WALL (    6272 calls)
     init_us_2:cp :      1.16s CPU      1.18s WALL (    6272 calls)
     cegterg      :    172.68s CPU    176.18s WALL (    3024 calls)

     Called by *egterg:
     cdiaghg      :     24.95s CPU     25.25s WALL (   22466 calls)
     h_psi        :    101.32s CPU    103.80s WALL (   22578 calls)
     s_psi        :     11.06s CPU     11.18s WALL (   22578 calls)
     g_psi        :      0.31s CPU      0.32s WALL (   19442 calls)

     Called by h_psi:
     h_psi:calbec :     12.12s CPU     12.58s WALL (   22578 calls)
     vloc_psi     :     77.76s CPU     79.66s WALL (   22578 calls)
     add_vuspsi   :     11.09s CPU     11.21s WALL (   22578 calls)

     General routines
     calbec       :     16.14s CPU     16.74s WALL (   26050 calls)
     fft          :      0.51s CPU      0.55s WALL (     373 calls)
     ffts         :      0.08s CPU      0.08s WALL (      55 calls)
     fftw         :     80.26s CPU     82.23s WALL (  411788 calls)
     interpolate  :      0.09s CPU      0.09s WALL (      28 calls)

     Parallel routines

     PWSCF        :   3m21.15s CPU   3m25.52s WALL


   This run was terminated on:  12:51:54  23Jun2025            

=------------------------------------------------------------------------------=
   JOB DONE.
=------------------------------------------------------------------------------=
Note: The following floating-point exceptions are signalling: IEEE_INVALID_FLAG
