
     Program PWSCF v.7.2 starts on 23Jun2025 at 17:45:43 

     This program is part of the open-source Quantum ESPRESSO suite
     for quantum simulation of materials; please cite
         "P. Giannozzi et al., J. Phys.:Condens. Matter 21 395502 (2009);
         "P. Giannozzi et al., J. Phys.:Condens. Matter 29 465901 (2017);
         "P. Giannozzi et al., J. Chem. Phys. 152 154105 (2020);
          URL http://www.quantum-espresso.org", 
     in publications or presentations arising from this work. More details at
     http://www.quantum-espresso.org/quote

     Parallel version (MPI), running on     8 processors

     MPI processes distributed on     1 nodes
     90749 MiB available memory on the printing compute node when the environment starts

     Reading input from /home/jvc/QEspresso7.2/ZnO_DataBase/scfs_rnd025.in/scf-6.67-1.65-4.in

     Current dimensions of program PWSCF are:
     Max number of different atomic species (ntypx) = 10
     Max number of k-points (npk) =  40000
     Max angular momentum in pseudopotentials (lmaxx) =  4
     file Zn.upf: wavefunction(s)  3D renormalized

     R & G space division:  proc/nbgrp/npool/nimage =       8
     Subspace diagonalization in iterative solution of the eigenvalue problem:
     a serial algorithm will be used


     Parallelization info
     --------------------
     sticks:   dense  smooth     PW     G-vecs:    dense   smooth      PW
     Min         154      75     23                 7140     2511     419
     Max         155      78     24                 7143     2517     424
     Sum        1237     613    187                57129    20101    3369

     Using Slab Decomposition



     bravais-lattice index     =            4
     lattice parameter (alat)  =       6.6731  a.u.
     unit-cell volume          =     423.7590 (a.u.)^3
     number of atoms/cell      =            4
     number of atomic types    =            2
     number of electrons       =        36.00
     number of Kohn-Sham states=           18
     kinetic-energy cutoff     =      50.0000  Ry
     charge density cutoff     =     400.0000  Ry
     scf convergence threshold =      1.0E-08
     mixing beta               =       0.3000
     number of iterations used =            8  plain     mixing
     Exchange-correlation= PBE
                           (   1   4   3   4   0   0   0)

     celldm(1)=   6.673127  celldm(2)=   0.000000  celldm(3)=   1.646646
     celldm(4)=   0.000000  celldm(5)=   0.000000  celldm(6)=   0.000000

     crystal axes: (cart. coord. in units of alat)
               a(1) = (   1.000000   0.000000   0.000000 )  
               a(2) = (  -0.500000   0.866025   0.000000 )  
               a(3) = (   0.000000   0.000000   1.646646 )  

     reciprocal axes: (cart. coord. in units 2 pi/alat)
               b(1) = (  1.000000  0.577350 -0.000000 )  
               b(2) = (  0.000000  1.154701  0.000000 )  
               b(3) = (  0.000000 -0.000000  0.607295 )  


     PseudoPot. # 1 for Zn read from file:
     ./pseudos/Zn.upf
     MD5 check sum: 7f56cabf9682ed8c977c2f7d0c5985c5
     Pseudo is Ultrasoft + core correction, Zval = 12.0
     Generated using &quot;atomic&quot; code by A. Dal Corso  v.6.2.2
     Using radial grid of 1201 points,  6 beta functions with: 
                l(1) =   0
                l(2) =   0
                l(3) =   1
                l(4) =   1
                l(5) =   2
                l(6) =   2
     Q(r) pseudized with 0 coefficients 


     PseudoPot. # 2 for O  read from file:
     ./pseudos/O.upf
     MD5 check sum: 91400c9766925bcf19f520983a725ff0
     Pseudo is Ultrasoft + core correction, Zval =  6.0
     Generated using &quot;atomic&quot; code by A. Dal Corso  v.6.3MaX
     Using radial grid of 1095 points,  4 beta functions with: 
                l(1) =   0
                l(2) =   0
                l(3) =   1
                l(4) =   1
     Q(r) pseudized with 0 coefficients 


     atomic species   valence    mass     pseudopotential
        Zn            12.00    63.38000     Zn( 1.00)
        O              6.00    15.99900     O ( 1.00)

     No symmetry found



   Cartesian axes

     site n.     atom                  positions (alat units)
         1           Zn  tau(   1) = (   0.4893538   0.2808074   0.9193426  )
         2           Zn  tau(   2) = (   0.1444248   0.6251379   0.3774407  )
         3           O   tau(   3) = (   0.2145980   0.4095396   1.5491630  )
         4           O   tau(   4) = (   0.0505594   0.7881143   0.8482671  )

     number of k points=   112

     Number of k-points >= 100: set verbosity='high' to print them.

     Dense  grid:    57129 G-vectors     FFT dimensions: (  45,  45,  72)

     Smooth grid:    20101 G-vectors     FFT dimensions: (  32,  32,  50)

     Estimated max dynamical RAM per process >      38.43 MB

     Estimated total dynamical RAM >     307.47 MB

     Check: negative core charge=   -0.000002

     Initial potential from superposition of free atoms

     starting charge      35.9925, renormalised to      36.0000
     Starting wfcs are   26 randomized atomic wfcs

     total cpu time spent up to now is        4.4 secs

     Self-consistent Calculation

     iteration #  1     ecut=    50.00 Ry     beta= 0.30
     Davidson diagonalization with overlap
     ethr =  1.00E-02,  avg # of iterations =  2.0

     total cpu time spent up to now is       10.6 secs

     total energy              =    -360.50993490 Ry
     estimated scf accuracy    <       1.40921448 Ry

     iteration #  2     ecut=    50.00 Ry     beta= 0.30
     Davidson diagonalization with overlap
     ethr =  3.91E-03,  avg # of iterations =  2.7

     total cpu time spent up to now is       17.4 secs

     total energy              =    -360.64091416 Ry
     estimated scf accuracy    <       0.20829239 Ry

     iteration #  3     ecut=    50.00 Ry     beta= 0.30
     Davidson diagonalization with overlap
     c_bands:  1 eigenvalues not converged
     c_bands:  1 eigenvalues not converged
     c_bands:  1 eigenvalues not converged
     c_bands:  1 eigenvalues not converged
     c_bands:  1 eigenvalues not converged
     c_bands:  1 eigenvalues not converged
     c_bands:  1 eigenvalues not converged
     ethr =  5.79E-04,  avg # of iterations = 11.9

     total cpu time spent up to now is       32.1 secs

     total energy              =    -360.63272321 Ry
     estimated scf accuracy    <       1.01539227 Ry

     iteration #  4     ecut=    50.00 Ry     beta= 0.30
     Davidson diagonalization with overlap
     ethr =  5.79E-04,  avg # of iterations =  8.4

     total cpu time spent up to now is       42.9 secs

     total energy              =    -360.86396559 Ry
     estimated scf accuracy    <       0.08486668 Ry

     iteration #  5     ecut=    50.00 Ry     beta= 0.30
     Davidson diagonalization with overlap
     ethr =  2.36E-04,  avg # of iterations =  2.2

     total cpu time spent up to now is       48.8 secs

     total energy              =    -360.84973970 Ry
     estimated scf accuracy    <       0.10513264 Ry

     iteration #  6     ecut=    50.00 Ry     beta= 0.30
     Davidson diagonalization with overlap
     ethr =  2.36E-04,  avg # of iterations =  2.0

     total cpu time spent up to now is       54.8 secs

     total energy              =    -360.84329516 Ry
     estimated scf accuracy    <       0.06774020 Ry

     iteration #  7     ecut=    50.00 Ry     beta= 0.30
     Davidson diagonalization with overlap
     ethr =  1.88E-04,  avg # of iterations =  2.0

     total cpu time spent up to now is       60.8 secs

     total energy              =    -360.84761609 Ry
     estimated scf accuracy    <       0.03948812 Ry

     iteration #  8     ecut=    50.00 Ry     beta= 0.30
     Davidson diagonalization with overlap
     ethr =  1.10E-04,  avg # of iterations =  2.7

     total cpu time spent up to now is       66.9 secs

     total energy              =    -360.83982477 Ry
     estimated scf accuracy    <       0.03303774 Ry

     iteration #  9     ecut=    50.00 Ry     beta= 0.30
     Davidson diagonalization with overlap
     c_bands:  1 eigenvalues not converged
     ethr =  9.18E-05,  avg # of iterations =  6.9

     total cpu time spent up to now is       74.5 secs

     total energy              =    -360.84630965 Ry
     estimated scf accuracy    <       0.01549029 Ry

     iteration # 10     ecut=    50.00 Ry     beta= 0.30
     Davidson diagonalization with overlap
     ethr =  4.30E-05,  avg # of iterations =  3.0

     total cpu time spent up to now is       80.9 secs

     total energy              =    -360.84649047 Ry
     estimated scf accuracy    <       0.01502320 Ry

     iteration # 11     ecut=    50.00 Ry     beta= 0.30
     Davidson diagonalization with overlap
     ethr =  4.17E-05,  avg # of iterations =  1.2

     total cpu time spent up to now is       86.3 secs

     total energy              =    -360.84632447 Ry
     estimated scf accuracy    <       0.01265720 Ry

     iteration # 12     ecut=    50.00 Ry     beta= 0.30
     Davidson diagonalization with overlap
     ethr =  3.52E-05,  avg # of iterations =  1.9

     total cpu time spent up to now is       92.3 secs

     total energy              =    -360.84477732 Ry
     estimated scf accuracy    <       0.01172426 Ry

     iteration # 13     ecut=    50.00 Ry     beta= 0.30
     Davidson diagonalization with overlap
     ethr =  3.26E-05,  avg # of iterations =  2.3

     total cpu time spent up to now is       98.4 secs

     total energy              =    -360.84501089 Ry
     estimated scf accuracy    <       0.00486488 Ry

     iteration # 14     ecut=    50.00 Ry     beta= 0.30
     Davidson diagonalization with overlap
     ethr =  1.35E-05,  avg # of iterations =  5.1

     total cpu time spent up to now is      105.5 secs

     total energy              =    -360.84622288 Ry
     estimated scf accuracy    <       0.00052210 Ry

     iteration # 15     ecut=    50.00 Ry     beta= 0.30
     Davidson diagonalization with overlap
     ethr =  1.45E-06,  avg # of iterations =  8.1

     total cpu time spent up to now is      115.8 secs

     total energy              =    -360.84680991 Ry
     estimated scf accuracy    <       0.00170287 Ry

     iteration # 16     ecut=    50.00 Ry     beta= 0.30
     Davidson diagonalization with overlap
     ethr =  1.45E-06,  avg # of iterations =  4.1

     total cpu time spent up to now is      122.4 secs

     total energy              =    -360.84686307 Ry
     estimated scf accuracy    <       0.00258118 Ry

     iteration # 17     ecut=    50.00 Ry     beta= 0.30
     Davidson diagonalization with overlap
     ethr =  1.45E-06,  avg # of iterations =  1.1

     total cpu time spent up to now is      127.9 secs

     total energy              =    -360.84656294 Ry
     estimated scf accuracy    <       0.00266778 Ry

     iteration # 18     ecut=    50.00 Ry     beta= 0.30
     Davidson diagonalization with overlap
     ethr =  1.45E-06,  avg # of iterations =  5.2

     total cpu time spent up to now is      135.6 secs

     total energy              =    -360.84627921 Ry
     estimated scf accuracy    <       0.00280154 Ry

     iteration # 19     ecut=    50.00 Ry     beta= 0.30
     Davidson diagonalization with overlap
     ethr =  1.45E-06,  avg # of iterations =  2.9

     total cpu time spent up to now is      141.9 secs

     total energy              =    -360.84598312 Ry
     estimated scf accuracy    <       0.00164874 Ry

     iteration # 20     ecut=    50.00 Ry     beta= 0.30
     Davidson diagonalization with overlap
     c_bands:  1 eigenvalues not converged
     ethr =  1.45E-06,  avg # of iterations =  7.5

     total cpu time spent up to now is      151.2 secs

     total energy              =    -360.84630078 Ry
     estimated scf accuracy    <       0.00013269 Ry

     iteration # 21     ecut=    50.00 Ry     beta= 0.30
     Davidson diagonalization with overlap
     ethr =  3.69E-07,  avg # of iterations =  4.8

     total cpu time spent up to now is      158.7 secs

     total energy              =    -360.84631703 Ry
     estimated scf accuracy    <       0.00016137 Ry

     iteration # 22     ecut=    50.00 Ry     beta= 0.30
     Davidson diagonalization with overlap
     ethr =  3.69E-07,  avg # of iterations =  1.5

     total cpu time spent up to now is      164.3 secs

     total energy              =    -360.84628848 Ry
     estimated scf accuracy    <       0.00012749 Ry

     iteration # 23     ecut=    50.00 Ry     beta= 0.30
     Davidson diagonalization with overlap
     c_bands:  1 eigenvalues not converged
     ethr =  3.54E-07,  avg # of iterations =  4.4

     total cpu time spent up to now is      171.0 secs

     total energy              =    -360.84634119 Ry
     estimated scf accuracy    <       0.00005197 Ry

     iteration # 24     ecut=    50.00 Ry     beta= 0.30
     Davidson diagonalization with overlap
     ethr =  1.44E-07,  avg # of iterations =  4.7

     total cpu time spent up to now is      178.0 secs

     total energy              =    -360.84634170 Ry
     estimated scf accuracy    <       0.00006346 Ry

     iteration # 25     ecut=    50.00 Ry     beta= 0.30
     Davidson diagonalization with overlap
     ethr =  1.44E-07,  avg # of iterations =  1.5

     total cpu time spent up to now is      183.5 secs

     total energy              =    -360.84634209 Ry
     estimated scf accuracy    <       0.00004988 Ry

     iteration # 26     ecut=    50.00 Ry     beta= 0.30
     Davidson diagonalization with overlap
     ethr =  1.39E-07,  avg # of iterations =  1.2

     total cpu time spent up to now is      188.9 secs

     total energy              =    -360.84634329 Ry
     estimated scf accuracy    <       0.00004628 Ry

     iteration # 27     ecut=    50.00 Ry     beta= 0.30
     Davidson diagonalization with overlap
     ethr =  1.29E-07,  avg # of iterations =  1.2

     total cpu time spent up to now is      194.4 secs

     total energy              =    -360.84634756 Ry
     estimated scf accuracy    <       0.00004572 Ry

     iteration # 28     ecut=    50.00 Ry     beta= 0.30
     Davidson diagonalization with overlap
     ethr =  1.27E-07,  avg # of iterations =  1.2

     total cpu time spent up to now is      199.7 secs

     total energy              =    -360.84632838 Ry
     estimated scf accuracy    <       0.00005378 Ry

     iteration # 29     ecut=    50.00 Ry     beta= 0.30
     Davidson diagonalization with overlap
     c_bands:  2 eigenvalues not converged
     c_bands:  1 eigenvalues not converged
     c_bands:  1 eigenvalues not converged
     c_bands:  1 eigenvalues not converged
     c_bands:  1 eigenvalues not converged
     c_bands:  1 eigenvalues not converged
     c_bands:  2 eigenvalues not converged
     c_bands:  1 eigenvalues not converged
     c_bands:  2 eigenvalues not converged
     c_bands:  1 eigenvalues not converged
     ethr =  1.27E-07,  avg # of iterations =  9.6

     total cpu time spent up to now is      210.3 secs

     total energy              =    -360.84628671 Ry
     estimated scf accuracy    <       0.00036713 Ry

     iteration # 30     ecut=    50.00 Ry     beta= 0.30
     Davidson diagonalization with overlap
     c_bands:  1 eigenvalues not converged
     c_bands:  2 eigenvalues not converged
     c_bands:  2 eigenvalues not converged
     c_bands:  1 eigenvalues not converged
     c_bands:  2 eigenvalues not converged
     c_bands:  2 eigenvalues not converged
     ethr =  1.27E-07,  avg # of iterations =  9.3

     total cpu time spent up to now is      220.6 secs

     total energy              =    -360.84635833 Ry
     estimated scf accuracy    <       0.00005794 Ry

     iteration # 31     ecut=    50.00 Ry     beta= 0.30
     Davidson diagonalization with overlap
     ethr =  1.27E-07,  avg # of iterations =  2.7

     total cpu time spent up to now is      226.7 secs

     total energy              =    -360.84630358 Ry
     estimated scf accuracy    <       0.00009276 Ry

     iteration # 32     ecut=    50.00 Ry     beta= 0.30
     Davidson diagonalization with overlap
     c_bands:  2 eigenvalues not converged
     c_bands:  2 eigenvalues not converged
     c_bands:  2 eigenvalues not converged
     c_bands:  1 eigenvalues not converged
     c_bands:  2 eigenvalues not converged
     c_bands:  1 eigenvalues not converged
     c_bands:  1 eigenvalues not converged
     ethr =  1.27E-07,  avg # of iterations = 11.8

     total cpu time spent up to now is      239.1 secs

     total energy              =    -360.84631809 Ry
     estimated scf accuracy    <       0.00074978 Ry

     iteration # 33     ecut=    50.00 Ry     beta= 0.30
     Davidson diagonalization with overlap
     ethr =  1.27E-07,  avg # of iterations =  7.8

     total cpu time spent up to now is      248.2 secs

     total energy              =    -360.84634074 Ry
     estimated scf accuracy    <       0.00014685 Ry

     iteration # 34     ecut=    50.00 Ry     beta= 0.30
     Davidson diagonalization with overlap
     ethr =  1.27E-07,  avg # of iterations =  1.3

     total cpu time spent up to now is      253.6 secs

     total energy              =    -360.84634309 Ry
     estimated scf accuracy    <       0.00013093 Ry

     iteration # 35     ecut=    50.00 Ry     beta= 0.30
     Davidson diagonalization with overlap
     ethr =  1.27E-07,  avg # of iterations =  1.0

     total cpu time spent up to now is      258.9 secs

     total energy              =    -360.84633908 Ry
     estimated scf accuracy    <       0.00013007 Ry

     iteration # 36     ecut=    50.00 Ry     beta= 0.30
     Davidson diagonalization with overlap
     ethr =  1.27E-07,  avg # of iterations =  1.0

     total cpu time spent up to now is      264.1 secs

     total energy              =    -360.84631706 Ry
     estimated scf accuracy    <       0.00011730 Ry

     iteration # 37     ecut=    50.00 Ry     beta= 0.30
     Davidson diagonalization with overlap
     c_bands:  1 eigenvalues not converged
     ethr =  1.27E-07,  avg # of iterations =  7.0

     total cpu time spent up to now is      271.9 secs

     total energy              =    -360.84633384 Ry
     estimated scf accuracy    <       0.00000227 Ry

     iteration # 38     ecut=    50.00 Ry     beta= 0.30
     Davidson diagonalization with overlap
     c_bands:  1 eigenvalues not converged
     c_bands:  2 eigenvalues not converged
     c_bands:  1 eigenvalues not converged
     c_bands:  1 eigenvalues not converged
     c_bands:  1 eigenvalues not converged
     c_bands:  1 eigenvalues not converged
     c_bands:  2 eigenvalues not converged
     c_bands:  1 eigenvalues not converged
     ethr =  6.31E-09,  avg # of iterations = 10.7

     total cpu time spent up to now is      283.4 secs

     total energy              =    -360.84633675 Ry
     estimated scf accuracy    <       0.00001818 Ry

     iteration # 39     ecut=    50.00 Ry     beta= 0.30
     Davidson diagonalization with overlap
     c_bands:  1 eigenvalues not converged
     ethr =  6.31E-09,  avg # of iterations =  1.6

     total cpu time spent up to now is      288.9 secs

     total energy              =    -360.84633698 Ry
     estimated scf accuracy    <       0.00003193 Ry

     iteration # 40     ecut=    50.00 Ry     beta= 0.30
     Davidson diagonalization with overlap
     ethr =  6.31E-09,  avg # of iterations =  7.1

     total cpu time spent up to now is      297.7 secs

     total energy              =    -360.84633777 Ry
     estimated scf accuracy    <       0.00001241 Ry

     iteration # 41     ecut=    50.00 Ry     beta= 0.30
     Davidson diagonalization with overlap
     ethr =  6.31E-09,  avg # of iterations =  1.0

     total cpu time spent up to now is      303.0 secs

     total energy              =    -360.84633750 Ry
     estimated scf accuracy    <       0.00001172 Ry

     iteration # 42     ecut=    50.00 Ry     beta= 0.30
     Davidson diagonalization with overlap
     ethr =  6.31E-09,  avg # of iterations =  2.0

     total cpu time spent up to now is      309.0 secs

     total energy              =    -360.84633788 Ry
     estimated scf accuracy    <       0.00001178 Ry

     iteration # 43     ecut=    50.00 Ry     beta= 0.30
     Davidson diagonalization with overlap
     ethr =  6.31E-09,  avg # of iterations =  2.0

     total cpu time spent up to now is      315.0 secs

     total energy              =    -360.84633737 Ry
     estimated scf accuracy    <       0.00001445 Ry

     iteration # 44     ecut=    50.00 Ry     beta= 0.30
     Davidson diagonalization with overlap
     ethr =  6.31E-09,  avg # of iterations =  1.0

     total cpu time spent up to now is      320.4 secs

     total energy              =    -360.84633703 Ry
     estimated scf accuracy    <       0.00001346 Ry

     iteration # 45     ecut=    50.00 Ry     beta= 0.30
     Davidson diagonalization with overlap
     ethr =  6.31E-09,  avg # of iterations =  1.4

     total cpu time spent up to now is      326.0 secs

     total energy              =    -360.84633661 Ry
     estimated scf accuracy    <       0.00001194 Ry

     iteration # 46     ecut=    50.00 Ry     beta= 0.30
     Davidson diagonalization with overlap
     ethr =  6.31E-09,  avg # of iterations =  1.3

     total cpu time spent up to now is      331.3 secs

     total energy              =    -360.84633660 Ry
     estimated scf accuracy    <       0.00000894 Ry

     iteration # 47     ecut=    50.00 Ry     beta= 0.30
     Davidson diagonalization with overlap
     ethr =  6.31E-09,  avg # of iterations =  1.7

     total cpu time spent up to now is      336.9 secs

     total energy              =    -360.84633466 Ry
     estimated scf accuracy    <       0.00000771 Ry

     iteration # 48     ecut=    50.00 Ry     beta= 0.30
     Davidson diagonalization with overlap
     c_bands:  1 eigenvalues not converged
     c_bands:  1 eigenvalues not converged
     c_bands:  1 eigenvalues not converged
     ethr =  6.31E-09,  avg # of iterations =  8.3

     total cpu time spent up to now is      345.7 secs

     total energy              =    -360.84633615 Ry
     estimated scf accuracy    <       0.00000073 Ry

     iteration # 49     ecut=    50.00 Ry     beta= 0.30
     Davidson diagonalization with overlap
     c_bands:  1 eigenvalues not converged
     c_bands:  1 eigenvalues not converged
     ethr =  2.03E-09,  avg # of iterations =  2.3

     total cpu time spent up to now is      351.5 secs

     total energy              =    -360.84633615 Ry
     estimated scf accuracy    <       0.00000185 Ry

     iteration # 50     ecut=    50.00 Ry     beta= 0.30
     Davidson diagonalization with overlap
     ethr =  2.03E-09,  avg # of iterations =  6.9

     total cpu time spent up to now is      359.7 secs

     total energy              =    -360.84633639 Ry
     estimated scf accuracy    <       0.00000013 Ry

     iteration # 51     ecut=    50.00 Ry     beta= 0.30
     Davidson diagonalization with overlap
     c_bands:  1 eigenvalues not converged
     c_bands:  1 eigenvalues not converged
     ethr =  3.61E-10,  avg # of iterations =  5.9

     total cpu time spent up to now is      367.4 secs

     total energy              =    -360.84633642 Ry
     estimated scf accuracy    <       0.00000002 Ry

     iteration # 52     ecut=    50.00 Ry     beta= 0.30
     Davidson diagonalization with overlap
     c_bands:  1 eigenvalues not converged
     c_bands:  1 eigenvalues not converged
     ethr =  6.55E-11,  avg # of iterations =  5.6

     total cpu time spent up to now is      375.6 secs

     total energy              =    -360.84633643 Ry
     estimated scf accuracy    <       0.00000001 Ry

     iteration # 53     ecut=    50.00 Ry     beta= 0.30
     Davidson diagonalization with overlap
     c_bands:  1 eigenvalues not converged
     ethr =  3.80E-11,  avg # of iterations =  1.9

     total cpu time spent up to now is      381.3 secs

     total energy              =    -360.84633644 Ry
     estimated scf accuracy    <       0.00000002 Ry

     iteration # 54     ecut=    50.00 Ry     beta= 0.30
     Davidson diagonalization with overlap
     c_bands:  1 eigenvalues not converged
     c_bands:  2 eigenvalues not converged
     c_bands:  1 eigenvalues not converged
     ethr =  3.80E-11,  avg # of iterations = 10.3

     total cpu time spent up to now is      393.9 secs

     total energy              =    -360.84633642 Ry
     estimated scf accuracy    <       0.00000013 Ry

     iteration # 55     ecut=    50.00 Ry     beta= 0.30
     Davidson diagonalization with overlap
     c_bands:  1 eigenvalues not converged
     c_bands:  2 eigenvalues not converged
     c_bands:  2 eigenvalues not converged
     c_bands:  1 eigenvalues not converged
     ethr =  3.80E-11,  avg # of iterations = 10.0

     total cpu time spent up to now is      406.5 secs

     End of self-consistent calculation

     Number of k-points >= 100: set verbosity='high' to print the bands.

     highest occupied level (ev):     5.1150

!    total energy              =    -360.84633644 Ry
     estimated scf accuracy    <          1.2E-09 Ry

     The total energy is the sum of the following terms:
     one-electron contribution =    -224.13130215 Ry
     hartree contribution      =     147.54859874 Ry
     xc contribution           =    -109.39896142 Ry
     ewald contribution        =    -174.86467160 Ry

     convergence has been achieved in  55 iterations

     Forces acting on atoms (cartesian axes, Ry/au):

     atom    1 type  1   force =    -0.28277821    1.52822168    0.42135261
     atom    2 type  1   force =     0.01378353   -0.03747393   -0.19293565
     atom    3 type  2   force =     0.00667742    0.00562400    0.05007633
     atom    4 type  2   force =     0.26231726   -1.49637174   -0.27849329
     The non-local contrib.  to forces
     atom    1 type  1   force =    -0.16583512    1.14944520    0.10132168
     atom    2 type  1   force =    -0.06688080    0.19989985    0.44331247
     atom    3 type  2   force =     0.09690647    0.40876718    0.75684960
     atom    4 type  2   force =     0.10301490    0.60116934   -0.78678287
     The ionic contribution  to forces
     atom    1 type  1   force =    -0.93532343   15.53302572   13.95072372
     atom    2 type  1   force =    -0.19950962    0.37891937  -15.03111871
     atom    3 type  2   force =     0.11215634   -2.39566142   -4.41973359
     atom    4 type  2   force =     1.02267671  -13.51628367    5.50012858
     The local contribution  to forces
     atom    1 type  1   force =     0.79096410  -14.96195017  -13.59018005
     atom    2 type  1   force =     0.28060381   -0.61097197   14.39152277
     atom    3 type  2   force =    -0.20114516    1.99632829    3.71996889
     atom    4 type  2   force =    -0.86129126   11.41692180   -4.99960979
     The core correction contribution to forces
     atom    1 type  1   force =     0.02740141   -0.19226965   -0.04056104
     atom    2 type  1   force =    -0.00042102   -0.00535917    0.00341083
     atom    3 type  2   force =    -0.00122139   -0.00380959   -0.00701639
     atom    4 type  2   force =    -0.00208429    0.00180053    0.00774136
     The Hubbard contrib.    to forces
     atom    1 type  1   force =     0.00000000    0.00000000    0.00000000
     atom    2 type  1   force =     0.00000000    0.00000000    0.00000000
     atom    3 type  2   force =     0.00000000    0.00000000    0.00000000
     atom    4 type  2   force =     0.00000000    0.00000000    0.00000000
     The SCF correction term to forces
     atom    1 type  1   force =     0.00001643   -0.00003074    0.00004372
     atom    2 type  1   force =    -0.00000726    0.00003666   -0.00006760
     atom    3 type  2   force =    -0.00001725   -0.00000178    0.00000324
     atom    4 type  2   force =     0.00000278    0.00001894    0.00002485

     Total force =     2.240505     Total SCF correction =     0.000102

     Writing all to output data dir ./ZnO_ANN.save/

     init_run     :      3.82s CPU      3.93s WALL (       1 calls)
     electrons    :    395.17s CPU    402.11s WALL (       1 calls)
     forces       :      1.29s CPU      1.30s WALL (       1 calls)

     Called by init_run:
     wfcinit      :      2.90s CPU      2.97s WALL (       1 calls)
     potinit      :      0.30s CPU      0.31s WALL (       1 calls)
     hinit0       :      0.51s CPU      0.52s WALL (       1 calls)

     Called by electrons:
     c_bands      :    343.81s CPU    349.67s WALL (      55 calls)
     sum_band     :     45.66s CPU     46.63s WALL (      55 calls)
     v_of_rho     :      1.13s CPU      1.20s WALL (      56 calls)
     newd         :      4.34s CPU      4.38s WALL (      56 calls)
     mix_rho      :      0.20s CPU      0.22s WALL (      55 calls)

     Called by c_bands:
     init_us_2    :      3.74s CPU      3.81s WALL (   12544 calls)
     init_us_2:cp :      3.69s CPU      3.77s WALL (   12544 calls)
     cegterg      :    331.79s CPU    337.46s WALL (    6160 calls)

     Called by *egterg:
     cdiaghg      :     34.96s CPU     35.25s WALL (   32615 calls)
     h_psi        :    191.98s CPU    196.22s WALL (   32727 calls)
     s_psi        :     27.83s CPU     28.02s WALL (   32727 calls)
     g_psi        :      0.68s CPU      0.69s WALL (   26455 calls)

     Called by h_psi:
     h_psi:calbec :     29.29s CPU     30.13s WALL (   32727 calls)
     vloc_psi     :    134.07s CPU    137.28s WALL (   32727 calls)
     add_vuspsi   :     27.89s CPU     28.09s WALL (   32727 calls)

     General routines
     calbec       :     40.84s CPU     41.93s WALL (   39335 calls)
     fft          :      1.23s CPU      1.33s WALL (     737 calls)
     ffts         :      0.15s CPU      0.15s WALL (     111 calls)
     fftw         :    135.53s CPU    138.75s WALL (  691784 calls)
     interpolate  :      0.19s CPU      0.20s WALL (      56 calls)

     Parallel routines

     PWSCF        :   6m41.00s CPU   6m48.33s WALL


   This run was terminated on:  17:52:32  23Jun2025            

=------------------------------------------------------------------------------=
   JOB DONE.
=------------------------------------------------------------------------------=
Note: The following floating-point exceptions are signalling: IEEE_INVALID_FLAG
