
     Program PWSCF v.7.2 starts on 23Jun2025 at 15: 4:24 

     This program is part of the open-source Quantum ESPRESSO suite
     for quantum simulation of materials; please cite
         "P. Giannozzi et al., J. Phys.:Condens. Matter 21 395502 (2009);
         "P. Giannozzi et al., J. Phys.:Condens. Matter 29 465901 (2017);
         "P. Giannozzi et al., J. Chem. Phys. 152 154105 (2020);
          URL http://www.quantum-espresso.org", 
     in publications or presentations arising from this work. More details at
     http://www.quantum-espresso.org/quote

     Parallel version (MPI), running on     8 processors

     MPI processes distributed on     1 nodes
     91022 MiB available memory on the printing compute node when the environment starts

     Reading input from /home/jvc/QEspresso7.2/ZnO_DataBase/scfs_rnd025.in/scf-6.30-1.49-4.in

     Current dimensions of program PWSCF are:
     Max number of different atomic species (ntypx) = 10
     Max number of k-points (npk) =  40000
     Max angular momentum in pseudopotentials (lmaxx) =  4
     file Zn.upf: wavefunction(s)  3D renormalized

     R & G space division:  proc/nbgrp/npool/nimage =       8
     Subspace diagonalization in iterative solution of the eigenvalue problem:
     a serial algorithm will be used


     Parallelization info
     --------------------
     sticks:   dense  smooth     PW     G-vecs:    dense   smooth      PW
     Min         137      68     20                 5424     1924     322
     Max         138      69     21                 5425     1929     329
     Sum        1099     547    163                43397    15409    2597

     Using Slab Decomposition



     bravais-lattice index     =            4
     lattice parameter (alat)  =       6.3024  a.u.
     unit-cell volume          =     321.9852 (a.u.)^3
     number of atoms/cell      =            4
     number of atomic types    =            2
     number of electrons       =        36.00
     number of Kohn-Sham states=           18
     kinetic-energy cutoff     =      50.0000  Ry
     charge density cutoff     =     400.0000  Ry
     scf convergence threshold =      1.0E-08
     mixing beta               =       0.3000
     number of iterations used =            8  plain     mixing
     Exchange-correlation= PBE
                           (   1   4   3   4   0   0   0)

     celldm(1)=   6.302398  celldm(2)=   0.000000  celldm(3)=   1.485210
     celldm(4)=   0.000000  celldm(5)=   0.000000  celldm(6)=   0.000000

     crystal axes: (cart. coord. in units of alat)
               a(1) = (   1.000000   0.000000   0.000000 )  
               a(2) = (  -0.500000   0.866025   0.000000 )  
               a(3) = (   0.000000   0.000000   1.485210 )  

     reciprocal axes: (cart. coord. in units 2 pi/alat)
               b(1) = (  1.000000  0.577350 -0.000000 )  
               b(2) = (  0.000000  1.154701  0.000000 )  
               b(3) = (  0.000000 -0.000000  0.673306 )  


     PseudoPot. # 1 for Zn read from file:
     ./pseudos/Zn.upf
     MD5 check sum: 7f56cabf9682ed8c977c2f7d0c5985c5
     Pseudo is Ultrasoft + core correction, Zval = 12.0
     Generated using &quot;atomic&quot; code by A. Dal Corso  v.6.2.2
     Using radial grid of 1201 points,  6 beta functions with: 
                l(1) =   0
                l(2) =   0
                l(3) =   1
                l(4) =   1
                l(5) =   2
                l(6) =   2
     Q(r) pseudized with 0 coefficients 


     PseudoPot. # 2 for O  read from file:
     ./pseudos/O.upf
     MD5 check sum: 91400c9766925bcf19f520983a725ff0
     Pseudo is Ultrasoft + core correction, Zval =  6.0
     Generated using &quot;atomic&quot; code by A. Dal Corso  v.6.3MaX
     Using radial grid of 1095 points,  4 beta functions with: 
                l(1) =   0
                l(2) =   0
                l(3) =   1
                l(4) =   1
     Q(r) pseudized with 0 coefficients 


     atomic species   valence    mass     pseudopotential
        Zn            12.00    63.38000     Zn( 1.00)
        O              6.00    15.99900     O ( 1.00)

     No symmetry found



   Cartesian axes

     site n.     atom                  positions (alat units)
         1           Zn  tau(   1) = (   0.4380925   0.2327440   0.7009048  )
         2           Zn  tau(   2) = (   0.0378877   0.4738510  -0.2812664  )
         3           O   tau(   3) = (   0.7468761   0.0804828   1.3824702  )
         4           O   tau(   4) = (  -0.3685144   0.7885882   0.4829233  )

     number of k points=   112

     Number of k-points >= 100: set verbosity='high' to print them.

     Dense  grid:    43397 G-vectors     FFT dimensions: (  45,  45,  60)

     Smooth grid:    15409 G-vectors     FFT dimensions: (  30,  30,  45)

     Estimated max dynamical RAM per process >      30.13 MB

     Estimated total dynamical RAM >     241.07 MB

     Check: negative core charge=   -0.000002

     Initial potential from superposition of free atoms

     starting charge      35.9925, renormalised to      36.0000
     Starting wfcs are   26 randomized atomic wfcs

     total cpu time spent up to now is        3.9 secs

     Self-consistent Calculation

     iteration #  1     ecut=    50.00 Ry     beta= 0.30
     Davidson diagonalization with overlap
     ethr =  1.00E-02,  avg # of iterations =  2.0

     total cpu time spent up to now is        9.2 secs

     total energy              =    -361.06664212 Ry
     estimated scf accuracy    <       0.92582875 Ry

     iteration #  2     ecut=    50.00 Ry     beta= 0.30
     Davidson diagonalization with overlap
     ethr =  2.57E-03,  avg # of iterations =  3.0

     total cpu time spent up to now is       15.4 secs

     total energy              =    -361.26371965 Ry
     estimated scf accuracy    <       0.06321419 Ry

     iteration #  3     ecut=    50.00 Ry     beta= 0.30
     Davidson diagonalization with overlap
     ethr =  1.76E-04,  avg # of iterations =  8.0

     total cpu time spent up to now is       27.4 secs

     total energy              =    -361.28538508 Ry
     estimated scf accuracy    <       0.14017063 Ry

     iteration #  4     ecut=    50.00 Ry     beta= 0.30
     Davidson diagonalization with overlap
     ethr =  1.76E-04,  avg # of iterations =  6.3

     total cpu time spent up to now is       38.4 secs

     total energy              =    -361.34199749 Ry
     estimated scf accuracy    <       0.05566370 Ry

     iteration #  5     ecut=    50.00 Ry     beta= 0.30
     Davidson diagonalization with overlap
     ethr =  1.55E-04,  avg # of iterations =  1.0

     total cpu time spent up to now is       43.2 secs

     total energy              =    -361.32419543 Ry
     estimated scf accuracy    <       0.04201923 Ry

     iteration #  6     ecut=    50.00 Ry     beta= 0.30
     Davidson diagonalization with overlap
     ethr =  1.17E-04,  avg # of iterations =  2.0

     total cpu time spent up to now is       49.0 secs

     total energy              =    -361.32450258 Ry
     estimated scf accuracy    <       0.00716657 Ry

     iteration #  7     ecut=    50.00 Ry     beta= 0.30
     Davidson diagonalization with overlap
     c_bands:  1 eigenvalues not converged
     ethr =  1.99E-05,  avg # of iterations =  8.2

     total cpu time spent up to now is       61.8 secs

     total energy              =    -361.33374976 Ry
     estimated scf accuracy    <       0.02305802 Ry

     iteration #  8     ecut=    50.00 Ry     beta= 0.30
     Davidson diagonalization with overlap
     ethr =  1.99E-05,  avg # of iterations =  1.5

     total cpu time spent up to now is       66.8 secs

     total energy              =    -361.33047347 Ry
     estimated scf accuracy    <       0.01413906 Ry

     iteration #  9     ecut=    50.00 Ry     beta= 0.30
     Davidson diagonalization with overlap
     ethr =  1.99E-05,  avg # of iterations =  4.4

     total cpu time spent up to now is       73.9 secs

     total energy              =    -361.33270716 Ry
     estimated scf accuracy    <       0.00086509 Ry

     iteration # 10     ecut=    50.00 Ry     beta= 0.30
     Davidson diagonalization with overlap
     ethr =  2.40E-06,  avg # of iterations =  4.5

     total cpu time spent up to now is       80.7 secs

     total energy              =    -361.33301272 Ry
     estimated scf accuracy    <       0.00039087 Ry

     iteration # 11     ecut=    50.00 Ry     beta= 0.30
     Davidson diagonalization with overlap
     ethr =  1.09E-06,  avg # of iterations =  1.7

     total cpu time spent up to now is       85.8 secs

     total energy              =    -361.33300342 Ry
     estimated scf accuracy    <       0.00052691 Ry

     iteration # 12     ecut=    50.00 Ry     beta= 0.30
     Davidson diagonalization with overlap
     ethr =  1.09E-06,  avg # of iterations =  1.1

     total cpu time spent up to now is       90.5 secs

     total energy              =    -361.33293845 Ry
     estimated scf accuracy    <       0.00049897 Ry

     iteration # 13     ecut=    50.00 Ry     beta= 0.30
     Davidson diagonalization with overlap
     ethr =  1.09E-06,  avg # of iterations =  1.4

     total cpu time spent up to now is       95.4 secs

     total energy              =    -361.33287804 Ry
     estimated scf accuracy    <       0.00033746 Ry

     iteration # 14     ecut=    50.00 Ry     beta= 0.30
     Davidson diagonalization with overlap
     ethr =  9.37E-07,  avg # of iterations =  2.1

     total cpu time spent up to now is      100.8 secs

     total energy              =    -361.33291491 Ry
     estimated scf accuracy    <       0.00014522 Ry

     iteration # 15     ecut=    50.00 Ry     beta= 0.30
     Davidson diagonalization with overlap
     ethr =  4.03E-07,  avg # of iterations =  2.2

     total cpu time spent up to now is      106.0 secs

     total energy              =    -361.33284278 Ry
     estimated scf accuracy    <       0.00014832 Ry

     iteration # 16     ecut=    50.00 Ry     beta= 0.30
     Davidson diagonalization with overlap
     ethr =  4.03E-07,  avg # of iterations =  5.5

     total cpu time spent up to now is      114.9 secs

     total energy              =    -361.33293949 Ry
     estimated scf accuracy    <       0.00007947 Ry

     iteration # 17     ecut=    50.00 Ry     beta= 0.30
     Davidson diagonalization with overlap
     ethr =  2.21E-07,  avg # of iterations =  1.3

     total cpu time spent up to now is      119.8 secs

     total energy              =    -361.33293419 Ry
     estimated scf accuracy    <       0.00008604 Ry

     iteration # 18     ecut=    50.00 Ry     beta= 0.30
     Davidson diagonalization with overlap
     ethr =  2.21E-07,  avg # of iterations =  1.1

     total cpu time spent up to now is      124.7 secs

     total energy              =    -361.33292014 Ry
     estimated scf accuracy    <       0.00007797 Ry

     iteration # 19     ecut=    50.00 Ry     beta= 0.30
     Davidson diagonalization with overlap
     ethr =  2.17E-07,  avg # of iterations =  1.0

     total cpu time spent up to now is      129.4 secs

     total energy              =    -361.33292020 Ry
     estimated scf accuracy    <       0.00004634 Ry

     iteration # 20     ecut=    50.00 Ry     beta= 0.30
     Davidson diagonalization with overlap
     ethr =  1.29E-07,  avg # of iterations =  1.0

     total cpu time spent up to now is      134.1 secs

     total energy              =    -361.33291008 Ry
     estimated scf accuracy    <       0.00004086 Ry

     iteration # 21     ecut=    50.00 Ry     beta= 0.30
     Davidson diagonalization with overlap
     ethr =  1.14E-07,  avg # of iterations =  1.7

     total cpu time spent up to now is      139.2 secs

     total energy              =    -361.33290927 Ry
     estimated scf accuracy    <       0.00001791 Ry

     iteration # 22     ecut=    50.00 Ry     beta= 0.30
     Davidson diagonalization with overlap
     ethr =  4.97E-08,  avg # of iterations =  5.2

     total cpu time spent up to now is      146.7 secs

     total energy              =    -361.33291593 Ry
     estimated scf accuracy    <       0.00000021 Ry

     iteration # 23     ecut=    50.00 Ry     beta= 0.30
     Davidson diagonalization with overlap
     c_bands:  1 eigenvalues not converged
     c_bands:  1 eigenvalues not converged
     c_bands:  1 eigenvalues not converged
     ethr =  5.96E-10,  avg # of iterations =  9.5

     total cpu time spent up to now is      160.3 secs

     total energy              =    -361.33291790 Ry
     estimated scf accuracy    <       0.00000056 Ry

     iteration # 24     ecut=    50.00 Ry     beta= 0.30
     Davidson diagonalization with overlap
     c_bands:  1 eigenvalues not converged
     ethr =  5.96E-10,  avg # of iterations = 11.2

     total cpu time spent up to now is      178.5 secs

     total energy              =    -361.33291544 Ry
     estimated scf accuracy    <       0.00001107 Ry

     iteration # 25     ecut=    50.00 Ry     beta= 0.30
     Davidson diagonalization with overlap
     c_bands:  1 eigenvalues not converged
     ethr =  5.96E-10,  avg # of iterations = 10.9

     total cpu time spent up to now is      196.9 secs

     total energy              =    -361.33291679 Ry
     estimated scf accuracy    <       0.00000050 Ry

     iteration # 26     ecut=    50.00 Ry     beta= 0.30
     Davidson diagonalization with overlap
     ethr =  5.96E-10,  avg # of iterations =  5.9

     total cpu time spent up to now is      204.7 secs

     total energy              =    -361.33291691 Ry
     estimated scf accuracy    <       0.00000049 Ry

     iteration # 27     ecut=    50.00 Ry     beta= 0.30
     Davidson diagonalization with overlap
     ethr =  5.96E-10,  avg # of iterations =  2.0

     total cpu time spent up to now is      209.9 secs

     total energy              =    -361.33291676 Ry
     estimated scf accuracy    <       0.00000060 Ry

     iteration # 28     ecut=    50.00 Ry     beta= 0.30
     Davidson diagonalization with overlap
     c_bands:  1 eigenvalues not converged
     ethr =  5.96E-10,  avg # of iterations =  8.0

     total cpu time spent up to now is      222.9 secs

     total energy              =    -361.33291727 Ry
     estimated scf accuracy    <       0.00000157 Ry

     iteration # 29     ecut=    50.00 Ry     beta= 0.30
     Davidson diagonalization with overlap
     ethr =  5.96E-10,  avg # of iterations =  2.5

     total cpu time spent up to now is      228.3 secs

     total energy              =    -361.33291785 Ry
     estimated scf accuracy    <       0.00000202 Ry

     iteration # 30     ecut=    50.00 Ry     beta= 0.30
     Davidson diagonalization with overlap
     ethr =  5.96E-10,  avg # of iterations =  6.9

     total cpu time spent up to now is      238.6 secs

     total energy              =    -361.33291788 Ry
     estimated scf accuracy    <       0.00000562 Ry

     iteration # 31     ecut=    50.00 Ry     beta= 0.30
     Davidson diagonalization with overlap
     ethr =  5.96E-10,  avg # of iterations =  1.3

     total cpu time spent up to now is      243.3 secs

     total energy              =    -361.33291560 Ry
     estimated scf accuracy    <       0.00000529 Ry

     iteration # 32     ecut=    50.00 Ry     beta= 0.30
     Davidson diagonalization with overlap
     ethr =  5.96E-10,  avg # of iterations = 10.3

     total cpu time spent up to now is      260.5 secs

     total energy              =    -361.33291670 Ry
     estimated scf accuracy    <       0.00000024 Ry

     iteration # 33     ecut=    50.00 Ry     beta= 0.30
     Davidson diagonalization with overlap
     ethr =  5.96E-10,  avg # of iterations =  5.4

     total cpu time spent up to now is      269.5 secs

     total energy              =    -361.33291672 Ry
     estimated scf accuracy    <       0.00000036 Ry

     iteration # 34     ecut=    50.00 Ry     beta= 0.30
     Davidson diagonalization with overlap
     ethr =  5.96E-10,  avg # of iterations =  2.5

     total cpu time spent up to now is      275.0 secs

     total energy              =    -361.33291670 Ry
     estimated scf accuracy    <       0.00000009 Ry

     iteration # 35     ecut=    50.00 Ry     beta= 0.30
     Davidson diagonalization with overlap
     c_bands:  1 eigenvalues not converged
     ethr =  2.58E-10,  avg # of iterations =  6.8

     total cpu time spent up to now is      285.3 secs

     total energy              =    -361.33291678 Ry
     estimated scf accuracy    <       0.00000013 Ry

     iteration # 36     ecut=    50.00 Ry     beta= 0.30
     Davidson diagonalization with overlap
     ethr =  2.58E-10,  avg # of iterations =  1.1

     total cpu time spent up to now is      289.9 secs

     total energy              =    -361.33291677 Ry
     estimated scf accuracy    <       0.00000007 Ry

     iteration # 37     ecut=    50.00 Ry     beta= 0.30
     Davidson diagonalization with overlap
     ethr =  1.87E-10,  avg # of iterations =  2.4

     total cpu time spent up to now is      295.5 secs

     End of self-consistent calculation

     Number of k-points >= 100: set verbosity='high' to print the bands.

     highest occupied level (ev):     7.3879

!    total energy              =    -361.33291677 Ry
     estimated scf accuracy    <          9.1E-09 Ry

     The total energy is the sum of the following terms:
     one-electron contribution =    -156.58850257 Ry
     hartree contribution      =     118.57357146 Ry
     xc contribution           =    -109.38111110 Ry
     ewald contribution        =    -213.93687456 Ry

     convergence has been achieved in  37 iterations

     Forces acting on atoms (cartesian axes, Ry/au):

     atom    1 type  1   force =     0.21192178    0.16171436   -0.00725895
     atom    2 type  1   force =     0.01250575    0.06222848    0.06283159
     atom    3 type  2   force =    -0.06671913   -0.03115664   -0.04142871
     atom    4 type  2   force =    -0.15770841   -0.19278620   -0.01414393
     The non-local contrib.  to forces
     atom    1 type  1   force =     0.51468563    0.43389563    0.53569640
     atom    2 type  1   force =     0.15654693    0.07785148   -0.42936889
     atom    3 type  2   force =     0.04529015    0.03870467   -1.13037927
     atom    4 type  2   force =     0.45762504    0.10843726    1.08274193
     The ionic contribution  to forces
     atom    1 type  1   force =     5.09652003    2.75408662   -6.21382978
     atom    2 type  1   force =     0.04888694    1.34777960    6.26420534
     atom    3 type  2   force =    -1.12114822   -0.62714373    8.02168888
     atom    4 type  2   force =    -4.02425875   -3.47472249   -8.07206444
     The local contribution  to forces
     atom    1 type  1   force =    -5.35380968   -2.98871366    5.70713603
     atom    2 type  1   force =    -0.17850657   -1.35632180   -5.80101967
     atom    3 type  2   force =     1.00912045    0.55737861   -6.94282932
     atom    4 type  2   force =     3.41198031    3.17306373    6.98458686
     The core correction contribution to forces
     atom    1 type  1   force =    -0.04551870   -0.03761809   -0.03656572
     atom    2 type  1   force =    -0.01443506   -0.00706606    0.02921949
     atom    3 type  2   force =     0.00003802   -0.00009465    0.01024371
     atom    4 type  2   force =    -0.00305210    0.00044878   -0.00950347
     The Hubbard contrib.    to forces
     atom    1 type  1   force =     0.00000000    0.00000000    0.00000000
     atom    2 type  1   force =     0.00000000    0.00000000    0.00000000
     atom    3 type  2   force =     0.00000000    0.00000000    0.00000000
     atom    4 type  2   force =     0.00000000    0.00000000    0.00000000
     The SCF correction term to forces
     atom    1 type  1   force =     0.00005264    0.00007335    0.00031133
     atom    2 type  1   force =     0.00002164   -0.00000525   -0.00019748
     atom    3 type  2   force =    -0.00001140    0.00000796   -0.00014550
     atom    4 type  2   force =     0.00000523   -0.00000400    0.00010241

     Total force =     0.385316     Total SCF correction =     0.000420

     Writing all to output data dir ./ZnO_ANN.save/

     init_run     :      3.39s CPU      3.48s WALL (       1 calls)
     electrons    :    286.08s CPU    291.59s WALL (       1 calls)
     forces       :      1.00s CPU      1.01s WALL (       1 calls)

     Called by init_run:
     wfcinit      :      2.59s CPU      2.63s WALL (       1 calls)
     potinit      :      0.24s CPU      0.25s WALL (       1 calls)
     hinit0       :      0.49s CPU      0.51s WALL (       1 calls)

     Called by electrons:
     c_bands      :    255.83s CPU    260.60s WALL (      37 calls)
     sum_band     :     27.39s CPU     28.05s WALL (      37 calls)
     v_of_rho     :      0.64s CPU      0.68s WALL (      38 calls)
     newd         :      2.11s CPU      2.14s WALL (      38 calls)
     mix_rho      :      0.11s CPU      0.12s WALL (      37 calls)

     Called by c_bands:
     init_us_2    :      1.89s CPU      1.92s WALL (    8512 calls)
     init_us_2:cp :      1.86s CPU      1.89s WALL (    8512 calls)
     cegterg      :    249.98s CPU    254.64s WALL (    4144 calls)

     Called by *egterg:
     cdiaghg      :     24.85s CPU     25.03s WALL (   21307 calls)
     h_psi        :    152.45s CPU    156.01s WALL (   21419 calls)
     s_psi        :     18.41s CPU     18.56s WALL (   21419 calls)
     g_psi        :      0.48s CPU      0.49s WALL (   17163 calls)

     Called by h_psi:
     h_psi:calbec :     19.02s CPU     19.68s WALL (   21419 calls)
     vloc_psi     :    114.49s CPU    117.22s WALL (   21419 calls)
     add_vuspsi   :     18.48s CPU     18.66s WALL (   21419 calls)

     General routines
     calbec       :     25.14s CPU     25.98s WALL (   26011 calls)
     fft          :      0.67s CPU      0.73s WALL (     503 calls)
     ffts         :      0.12s CPU      0.13s WALL (      75 calls)
     fftw         :    115.50s CPU    118.27s WALL (  569204 calls)
     interpolate  :      0.15s CPU      0.15s WALL (      38 calls)

     Parallel routines

     PWSCF        :   4m51.22s CPU   4m57.00s WALL


   This run was terminated on:  15: 9:21  23Jun2025            

=------------------------------------------------------------------------------=
   JOB DONE.
=------------------------------------------------------------------------------=
Note: The following floating-point exceptions are signalling: IEEE_INVALID_FLAG
