
     Program PWSCF v.7.2 starts on 23Jun2025 at 15:32:47 

     This program is part of the open-source Quantum ESPRESSO suite
     for quantum simulation of materials; please cite
         "P. Giannozzi et al., J. Phys.:Condens. Matter 21 395502 (2009);
         "P. Giannozzi et al., J. Phys.:Condens. Matter 29 465901 (2017);
         "P. Giannozzi et al., J. Chem. Phys. 152 154105 (2020);
          URL http://www.quantum-espresso.org", 
     in publications or presentations arising from this work. More details at
     http://www.quantum-espresso.org/quote

     Parallel version (MPI), running on     8 processors

     MPI processes distributed on     1 nodes
     90865 MiB available memory on the printing compute node when the environment starts

     Reading input from /home/jvc/QEspresso7.2/ZnO_DataBase/scfs_rnd025.in/scf-6.30-1.74-4.in

     Current dimensions of program PWSCF are:
     Max number of different atomic species (ntypx) = 10
     Max number of k-points (npk) =  40000
     Max angular momentum in pseudopotentials (lmaxx) =  4
     file Zn.upf: wavefunction(s)  3D renormalized

     R & G space division:  proc/nbgrp/npool/nimage =       8
     Subspace diagonalization in iterative solution of the eigenvalue problem:
     a serial algorithm will be used


     Parallelization info
     --------------------
     sticks:   dense  smooth     PW     G-vecs:    dense   smooth      PW
     Min         137      68     20                 6382     2252     376
     Max         138      69     21                 6385     2257     383
     Sum        1099     547    163                51075    18031    3033

     Using Slab Decomposition



     bravais-lattice index     =            4
     lattice parameter (alat)  =       6.3024  a.u.
     unit-cell volume          =     377.9826 (a.u.)^3
     number of atoms/cell      =            4
     number of atomic types    =            2
     number of electrons       =        36.00
     number of Kohn-Sham states=           18
     kinetic-energy cutoff     =      50.0000  Ry
     charge density cutoff     =     400.0000  Ry
     scf convergence threshold =      1.0E-08
     mixing beta               =       0.3000
     number of iterations used =            8  plain     mixing
     Exchange-correlation= PBE
                           (   1   4   3   4   0   0   0)

     celldm(1)=   6.302398  celldm(2)=   0.000000  celldm(3)=   1.743507
     celldm(4)=   0.000000  celldm(5)=   0.000000  celldm(6)=   0.000000

     crystal axes: (cart. coord. in units of alat)
               a(1) = (   1.000000   0.000000   0.000000 )  
               a(2) = (  -0.500000   0.866025   0.000000 )  
               a(3) = (   0.000000   0.000000   1.743507 )  

     reciprocal axes: (cart. coord. in units 2 pi/alat)
               b(1) = (  1.000000  0.577350 -0.000000 )  
               b(2) = (  0.000000  1.154701  0.000000 )  
               b(3) = (  0.000000 -0.000000  0.573557 )  


     PseudoPot. # 1 for Zn read from file:
     ./pseudos/Zn.upf
     MD5 check sum: 7f56cabf9682ed8c977c2f7d0c5985c5
     Pseudo is Ultrasoft + core correction, Zval = 12.0
     Generated using &quot;atomic&quot; code by A. Dal Corso  v.6.2.2
     Using radial grid of 1201 points,  6 beta functions with: 
                l(1) =   0
                l(2) =   0
                l(3) =   1
                l(4) =   1
                l(5) =   2
                l(6) =   2
     Q(r) pseudized with 0 coefficients 


     PseudoPot. # 2 for O  read from file:
     ./pseudos/O.upf
     MD5 check sum: 91400c9766925bcf19f520983a725ff0
     Pseudo is Ultrasoft + core correction, Zval =  6.0
     Generated using &quot;atomic&quot; code by A. Dal Corso  v.6.3MaX
     Using radial grid of 1095 points,  4 beta functions with: 
                l(1) =   0
                l(2) =   0
                l(3) =   1
                l(4) =   1
     Q(r) pseudized with 0 coefficients 


     atomic species   valence    mass     pseudopotential
        Zn            12.00    63.38000     Zn( 1.00)
        O              6.00    15.99900     O ( 1.00)

     No symmetry found



   Cartesian axes

     site n.     atom                  positions (alat units)
         1           Zn  tau(   1) = (   0.6762368   0.2215954   0.6841905  )
         2           Zn  tau(   2) = (   0.0520111   0.5717082  -0.3589954  )
         3           O   tau(   3) = (   0.8433498   0.0830499   1.9679208  )
         4           O   tau(   4) = (   0.0307339   0.5365387   0.6446814  )

     number of k points=   112

     Number of k-points >= 100: set verbosity='high' to print them.

     Dense  grid:    51075 G-vectors     FFT dimensions: (  45,  45,  72)

     Smooth grid:    18031 G-vectors     FFT dimensions: (  30,  30,  50)

     Estimated max dynamical RAM per process >      34.82 MB

     Estimated total dynamical RAM >     278.57 MB

     Check: negative core charge=   -0.000002

     Initial potential from superposition of free atoms

     starting charge      35.9925, renormalised to      36.0000
     Starting wfcs are   26 randomized atomic wfcs

     total cpu time spent up to now is        4.4 secs

     Self-consistent Calculation

     iteration #  1     ecut=    50.00 Ry     beta= 0.30
     Davidson diagonalization with overlap
     ethr =  1.00E-02,  avg # of iterations =  2.0

     total cpu time spent up to now is       10.4 secs

     total energy              =    -360.54726800 Ry
     estimated scf accuracy    <       1.72304784 Ry

     iteration #  2     ecut=    50.00 Ry     beta= 0.30
     Davidson diagonalization with overlap
     ethr =  4.79E-03,  avg # of iterations =  6.8

     total cpu time spent up to now is       19.2 secs

     total energy              =    -361.01311200 Ry
     estimated scf accuracy    <       0.55482876 Ry

     iteration #  3     ecut=    50.00 Ry     beta= 0.30
     Davidson diagonalization with overlap
     ethr =  1.54E-03,  avg # of iterations =  2.2

     total cpu time spent up to now is       25.2 secs

     total energy              =    -360.90491866 Ry
     estimated scf accuracy    <       0.25453301 Ry

     iteration #  4     ecut=    50.00 Ry     beta= 0.30
     Davidson diagonalization with overlap
     ethr =  7.07E-04,  avg # of iterations = 10.9

     total cpu time spent up to now is       38.6 secs

     total energy              =    -361.14474963 Ry
     estimated scf accuracy    <       0.90676585 Ry

     iteration #  5     ecut=    50.00 Ry     beta= 0.30
     Davidson diagonalization with overlap
     ethr =  7.07E-04,  avg # of iterations =  1.5

     total cpu time spent up to now is       44.2 secs

     total energy              =    -361.10414255 Ry
     estimated scf accuracy    <       0.63549276 Ry

     iteration #  6     ecut=    50.00 Ry     beta= 0.30
     Davidson diagonalization with overlap
     ethr =  7.07E-04,  avg # of iterations =  1.9

     total cpu time spent up to now is       49.9 secs

     total energy              =    -361.08721063 Ry
     estimated scf accuracy    <       0.46567154 Ry

     iteration #  7     ecut=    50.00 Ry     beta= 0.30
     Davidson diagonalization with overlap
     ethr =  7.07E-04,  avg # of iterations =  1.9

     total cpu time spent up to now is       55.5 secs

     total energy              =    -361.14612595 Ry
     estimated scf accuracy    <       0.33506089 Ry

     iteration #  8     ecut=    50.00 Ry     beta= 0.30
     Davidson diagonalization with overlap
     ethr =  7.07E-04,  avg # of iterations =  1.1

     total cpu time spent up to now is       60.7 secs

     total energy              =    -361.01216756 Ry
     estimated scf accuracy    <       0.40186754 Ry

     iteration #  9     ecut=    50.00 Ry     beta= 0.30
     Davidson diagonalization with overlap
     ethr =  7.07E-04,  avg # of iterations =  6.7

     total cpu time spent up to now is       69.0 secs

     total energy              =    -361.11990267 Ry
     estimated scf accuracy    <       0.07592582 Ry

     iteration # 10     ecut=    50.00 Ry     beta= 0.30
     Davidson diagonalization with overlap
     c_bands:  1 eigenvalues not converged
     ethr =  2.11E-04,  avg # of iterations =  5.7

     total cpu time spent up to now is       76.7 secs

     total energy              =    -361.12578662 Ry
     estimated scf accuracy    <       0.22818754 Ry

     iteration # 11     ecut=    50.00 Ry     beta= 0.30
     Davidson diagonalization with overlap
     ethr =  2.11E-04,  avg # of iterations =  1.1

     total cpu time spent up to now is       81.8 secs

     total energy              =    -361.07838988 Ry
     estimated scf accuracy    <       0.19576539 Ry

     iteration # 12     ecut=    50.00 Ry     beta= 0.30
     Davidson diagonalization with overlap
     ethr =  2.11E-04,  avg # of iterations =  5.1

     total cpu time spent up to now is       89.2 secs

     total energy              =    -361.09869626 Ry
     estimated scf accuracy    <       0.02269115 Ry

     iteration # 13     ecut=    50.00 Ry     beta= 0.30
     Davidson diagonalization with overlap
     c_bands:  1 eigenvalues not converged
     ethr =  6.30E-05,  avg # of iterations =  4.9

     total cpu time spent up to now is       96.3 secs

     total energy              =    -361.10270829 Ry
     estimated scf accuracy    <       0.01116264 Ry

     iteration # 14     ecut=    50.00 Ry     beta= 0.30
     Davidson diagonalization with overlap
     ethr =  3.10E-05,  avg # of iterations =  3.7

     total cpu time spent up to now is      102.9 secs

     total energy              =    -361.10143577 Ry
     estimated scf accuracy    <       0.00875394 Ry

     iteration # 15     ecut=    50.00 Ry     beta= 0.30
     Davidson diagonalization with overlap
     ethr =  2.43E-05,  avg # of iterations =  3.5

     total cpu time spent up to now is      109.3 secs

     total energy              =    -361.10183693 Ry
     estimated scf accuracy    <       0.00227782 Ry

     iteration # 16     ecut=    50.00 Ry     beta= 0.30
     Davidson diagonalization with overlap
     c_bands:  1 eigenvalues not converged
     c_bands:  2 eigenvalues not converged
     c_bands:  2 eigenvalues not converged
     c_bands:  1 eigenvalues not converged
     c_bands:  2 eigenvalues not converged
     c_bands:  1 eigenvalues not converged
     c_bands:  2 eigenvalues not converged
     c_bands:  2 eigenvalues not converged
     c_bands:  2 eigenvalues not converged
     c_bands:  2 eigenvalues not converged
     c_bands:  1 eigenvalues not converged
     c_bands:  3 eigenvalues not converged
     c_bands:  1 eigenvalues not converged
     c_bands:  2 eigenvalues not converged
     c_bands:  1 eigenvalues not converged
     ethr =  6.33E-06,  avg # of iterations = 14.5

     total cpu time spent up to now is      126.1 secs

     total energy              =    -361.10294006 Ry
     estimated scf accuracy    <       0.04938095 Ry

     iteration # 17     ecut=    50.00 Ry     beta= 0.30
     Davidson diagonalization with overlap
     ethr =  6.33E-06,  avg # of iterations =  8.2

     total cpu time spent up to now is      135.7 secs

     total energy              =    -361.10332080 Ry
     estimated scf accuracy    <       0.01549554 Ry

     iteration # 18     ecut=    50.00 Ry     beta= 0.30
     Davidson diagonalization with overlap
     ethr =  6.33E-06,  avg # of iterations =  3.7

     total cpu time spent up to now is      141.9 secs

     total energy              =    -361.10282331 Ry
     estimated scf accuracy    <       0.00936442 Ry

     iteration # 19     ecut=    50.00 Ry     beta= 0.30
     Davidson diagonalization with overlap
     c_bands:  1 eigenvalues not converged
     ethr =  6.33E-06,  avg # of iterations =  5.2

     total cpu time spent up to now is      149.0 secs

     total energy              =    -361.10349461 Ry
     estimated scf accuracy    <       0.00330432 Ry

     iteration # 20     ecut=    50.00 Ry     beta= 0.30
     Davidson diagonalization with overlap
     ethr =  6.33E-06,  avg # of iterations =  2.8

     total cpu time spent up to now is      155.1 secs

     total energy              =    -361.10460332 Ry
     estimated scf accuracy    <       0.00378971 Ry

     iteration # 21     ecut=    50.00 Ry     beta= 0.30
     Davidson diagonalization with overlap
     c_bands:  1 eigenvalues not converged
     c_bands:  1 eigenvalues not converged
     c_bands:  2 eigenvalues not converged
     ethr =  6.33E-06,  avg # of iterations =  9.3

     total cpu time spent up to now is      165.8 secs

     total energy              =    -361.10285846 Ry
     estimated scf accuracy    <       0.02505367 Ry

     iteration # 22     ecut=    50.00 Ry     beta= 0.30
     Davidson diagonalization with overlap
     c_bands:  1 eigenvalues not converged
     ethr =  6.33E-06,  avg # of iterations =  7.0

     total cpu time spent up to now is      174.2 secs

     total energy              =    -361.10126028 Ry
     estimated scf accuracy    <       0.00739392 Ry

     iteration # 23     ecut=    50.00 Ry     beta= 0.30
     Davidson diagonalization with overlap
     c_bands:  2 eigenvalues not converged
     c_bands:  1 eigenvalues not converged
     c_bands:  2 eigenvalues not converged
     c_bands:  1 eigenvalues not converged
     c_bands:  1 eigenvalues not converged
     c_bands:  1 eigenvalues not converged
     ethr =  6.33E-06,  avg # of iterations = 10.2

     total cpu time spent up to now is      185.3 secs

     total energy              =    -361.10329652 Ry
     estimated scf accuracy    <       0.00299267 Ry

     iteration # 24     ecut=    50.00 Ry     beta= 0.30
     Davidson diagonalization with overlap
     ethr =  6.33E-06,  avg # of iterations =  1.4

     total cpu time spent up to now is      190.6 secs

     total energy              =    -361.10273880 Ry
     estimated scf accuracy    <       0.00185901 Ry

     iteration # 25     ecut=    50.00 Ry     beta= 0.30
     Davidson diagonalization with overlap
     c_bands:  1 eigenvalues not converged
     ethr =  5.16E-06,  avg # of iterations =  6.7

     total cpu time spent up to now is      198.8 secs

     total energy              =    -361.10321857 Ry
     estimated scf accuracy    <       0.00083230 Ry

     iteration # 26     ecut=    50.00 Ry     beta= 0.30
     Davidson diagonalization with overlap
     c_bands:  1 eigenvalues not converged
     ethr =  2.31E-06,  avg # of iterations =  4.8

     total cpu time spent up to now is      205.7 secs

     total energy              =    -361.10336685 Ry
     estimated scf accuracy    <       0.00001188 Ry

     iteration # 27     ecut=    50.00 Ry     beta= 0.30
     Davidson diagonalization with overlap
     c_bands:  2 eigenvalues not converged
     c_bands:  3 eigenvalues not converged
     c_bands:  4 eigenvalues not converged
     c_bands:  3 eigenvalues not converged
     c_bands:  2 eigenvalues not converged
     c_bands:  3 eigenvalues not converged
     c_bands:  2 eigenvalues not converged
     c_bands:  2 eigenvalues not converged
     c_bands:  3 eigenvalues not converged
     c_bands:  1 eigenvalues not converged
     c_bands:  1 eigenvalues not converged
     c_bands:  2 eigenvalues not converged
     c_bands:  1 eigenvalues not converged
     c_bands:  3 eigenvalues not converged
     c_bands:  1 eigenvalues not converged
     c_bands:  2 eigenvalues not converged
     c_bands:  4 eigenvalues not converged
     c_bands:  1 eigenvalues not converged
     c_bands:  3 eigenvalues not converged
     c_bands:  2 eigenvalues not converged
     c_bands:  4 eigenvalues not converged
     c_bands:  2 eigenvalues not converged
     c_bands:  1 eigenvalues not converged
     c_bands:  2 eigenvalues not converged
     c_bands:  2 eigenvalues not converged
     c_bands:  5 eigenvalues not converged
     c_bands:  2 eigenvalues not converged
     c_bands:  3 eigenvalues not converged
     c_bands:  2 eigenvalues not converged
     c_bands:  3 eigenvalues not converged
     c_bands:  1 eigenvalues not converged
     c_bands:  2 eigenvalues not converged
     c_bands:  3 eigenvalues not converged
     c_bands:  3 eigenvalues not converged
     c_bands:  2 eigenvalues not converged
     c_bands:  3 eigenvalues not converged
     c_bands:  3 eigenvalues not converged
     c_bands:  2 eigenvalues not converged
     c_bands:  2 eigenvalues not converged
     c_bands:  3 eigenvalues not converged
     c_bands:  3 eigenvalues not converged
     c_bands:  4 eigenvalues not converged
     c_bands:  3 eigenvalues not converged
     c_bands:  1 eigenvalues not converged
     c_bands:  1 eigenvalues not converged
     c_bands:  1 eigenvalues not converged
     c_bands:  2 eigenvalues not converged
     c_bands:  2 eigenvalues not converged
     ethr =  3.30E-08,  avg # of iterations = 17.8

     total cpu time spent up to now is      228.1 secs

     total energy              =    -361.10338800 Ry
     estimated scf accuracy    <       0.00095785 Ry

     iteration # 28     ecut=    50.00 Ry     beta= 0.30
     Davidson diagonalization with overlap
     c_bands:  1 eigenvalues not converged
     c_bands:  2 eigenvalues not converged
     c_bands:  2 eigenvalues not converged
     c_bands:  1 eigenvalues not converged
     c_bands:  1 eigenvalues not converged
     c_bands:  1 eigenvalues not converged
     c_bands:  2 eigenvalues not converged
     c_bands:  1 eigenvalues not converged
     c_bands:  1 eigenvalues not converged
     c_bands:  1 eigenvalues not converged
     c_bands:  1 eigenvalues not converged
     c_bands:  1 eigenvalues not converged
     c_bands:  1 eigenvalues not converged
     ethr =  3.30E-08,  avg # of iterations = 14.6

     total cpu time spent up to now is      245.0 secs

     total energy              =    -361.10343255 Ry
     estimated scf accuracy    <       0.00015667 Ry

     iteration # 29     ecut=    50.00 Ry     beta= 0.30
     Davidson diagonalization with overlap
     c_bands:  2 eigenvalues not converged
     c_bands:  1 eigenvalues not converged
     ethr =  3.30E-08,  avg # of iterations =  3.4

     total cpu time spent up to now is      250.9 secs

     total energy              =    -361.10343356 Ry
     estimated scf accuracy    <       0.00012429 Ry

     iteration # 30     ecut=    50.00 Ry     beta= 0.30
     Davidson diagonalization with overlap
     ethr =  3.30E-08,  avg # of iterations =  2.5

     total cpu time spent up to now is      256.8 secs

     total energy              =    -361.10351954 Ry
     estimated scf accuracy    <       0.00010086 Ry

     iteration # 31     ecut=    50.00 Ry     beta= 0.30
     Davidson diagonalization with overlap
     c_bands:  2 eigenvalues not converged
     c_bands:  3 eigenvalues not converged
     c_bands:  2 eigenvalues not converged
     c_bands:  2 eigenvalues not converged
     c_bands:  1 eigenvalues not converged
     c_bands:  1 eigenvalues not converged
     c_bands:  1 eigenvalues not converged
     c_bands:  2 eigenvalues not converged
     c_bands:  2 eigenvalues not converged
     c_bands:  1 eigenvalues not converged
     c_bands:  2 eigenvalues not converged
     c_bands:  2 eigenvalues not converged
     c_bands:  4 eigenvalues not converged
     c_bands:  2 eigenvalues not converged
     c_bands:  2 eigenvalues not converged
     c_bands:  1 eigenvalues not converged
     c_bands:  1 eigenvalues not converged
     c_bands:  3 eigenvalues not converged
     c_bands:  2 eigenvalues not converged
     c_bands:  2 eigenvalues not converged
     c_bands:  2 eigenvalues not converged
     c_bands:  1 eigenvalues not converged
     c_bands:  2 eigenvalues not converged
     c_bands:  2 eigenvalues not converged
     c_bands:  1 eigenvalues not converged
     c_bands:  2 eigenvalues not converged
     c_bands:  1 eigenvalues not converged
     ethr =  3.30E-08,  avg # of iterations = 16.5

     total cpu time spent up to now is      276.0 secs

     total energy              =    -361.10344092 Ry
     estimated scf accuracy    <       0.00124634 Ry

     iteration # 32     ecut=    50.00 Ry     beta= 0.30
     Davidson diagonalization with overlap
     c_bands:  1 eigenvalues not converged
     c_bands:  1 eigenvalues not converged
     c_bands:  1 eigenvalues not converged
     c_bands:  1 eigenvalues not converged
     c_bands:  2 eigenvalues not converged
     ethr =  3.30E-08,  avg # of iterations = 14.2

     total cpu time spent up to now is      291.3 secs

     total energy              =    -361.10348900 Ry
     estimated scf accuracy    <       0.00039895 Ry

     iteration # 33     ecut=    50.00 Ry     beta= 0.30
     Davidson diagonalization with overlap
     ethr =  3.30E-08,  avg # of iterations =  1.9

     total cpu time spent up to now is      296.9 secs

     total energy              =    -361.10346252 Ry
     estimated scf accuracy    <       0.00045754 Ry

     iteration # 34     ecut=    50.00 Ry     beta= 0.30
     Davidson diagonalization with overlap
     c_bands:  1 eigenvalues not converged
     ethr =  3.30E-08,  avg # of iterations =  4.9

     total cpu time spent up to now is      304.4 secs

     total energy              =    -361.10346247 Ry
     estimated scf accuracy    <       0.00036334 Ry

     iteration # 35     ecut=    50.00 Ry     beta= 0.30
     Davidson diagonalization with overlap
     ethr =  3.30E-08,  avg # of iterations =  1.8

     total cpu time spent up to now is      309.9 secs

     total energy              =    -361.10336507 Ry
     estimated scf accuracy    <       0.00034877 Ry

     iteration # 36     ecut=    50.00 Ry     beta= 0.30
     Davidson diagonalization with overlap
     c_bands:  2 eigenvalues not converged
     c_bands:  2 eigenvalues not converged
     c_bands:  2 eigenvalues not converged
     c_bands:  1 eigenvalues not converged
     c_bands:  2 eigenvalues not converged
     c_bands:  2 eigenvalues not converged
     c_bands:  2 eigenvalues not converged
     c_bands:  2 eigenvalues not converged
     c_bands:  2 eigenvalues not converged
     c_bands:  2 eigenvalues not converged
     c_bands:  2 eigenvalues not converged
     c_bands:  2 eigenvalues not converged
     c_bands:  1 eigenvalues not converged
     c_bands:  2 eigenvalues not converged
     c_bands:  2 eigenvalues not converged
     c_bands:  2 eigenvalues not converged
     c_bands:  2 eigenvalues not converged
     c_bands:  2 eigenvalues not converged
     c_bands:  2 eigenvalues not converged
     c_bands:  2 eigenvalues not converged
     c_bands:  1 eigenvalues not converged
     c_bands:  2 eigenvalues not converged
     c_bands:  1 eigenvalues not converged
     c_bands:  3 eigenvalues not converged
     c_bands:  2 eigenvalues not converged
     c_bands:  2 eigenvalues not converged
     c_bands:  2 eigenvalues not converged
     c_bands:  1 eigenvalues not converged
     c_bands:  3 eigenvalues not converged
     c_bands:  2 eigenvalues not converged
     c_bands:  3 eigenvalues not converged
     c_bands:  2 eigenvalues not converged
     c_bands:  1 eigenvalues not converged
     c_bands:  1 eigenvalues not converged
     c_bands:  1 eigenvalues not converged
     ethr =  3.30E-08,  avg # of iterations = 16.2

     total cpu time spent up to now is      328.5 secs

     total energy              =    -361.10342257 Ry
     estimated scf accuracy    <       0.00003844 Ry

     iteration # 37     ecut=    50.00 Ry     beta= 0.30
     Davidson diagonalization with overlap
     c_bands:  1 eigenvalues not converged
     c_bands:  1 eigenvalues not converged
     c_bands:  1 eigenvalues not converged
     c_bands:  1 eigenvalues not converged
     c_bands:  1 eigenvalues not converged
     c_bands:  1 eigenvalues not converged
     ethr =  3.30E-08,  avg # of iterations =  5.7

     total cpu time spent up to now is      336.0 secs

     total energy              =    -361.10342338 Ry
     estimated scf accuracy    <       0.00001799 Ry

     iteration # 38     ecut=    50.00 Ry     beta= 0.30
     Davidson diagonalization with overlap
     ethr =  3.30E-08,  avg # of iterations =  7.2

     total cpu time spent up to now is      345.3 secs

     total energy              =    -361.10343022 Ry
     estimated scf accuracy    <       0.00000453 Ry

     iteration # 39     ecut=    50.00 Ry     beta= 0.30
     Davidson diagonalization with overlap
     c_bands:  1 eigenvalues not converged
     ethr =  1.26E-08,  avg # of iterations =  6.5

     total cpu time spent up to now is      353.1 secs

     total energy              =    -361.10342895 Ry
     estimated scf accuracy    <       0.00001024 Ry

     iteration # 40     ecut=    50.00 Ry     beta= 0.30
     Davidson diagonalization with overlap
     ethr =  1.26E-08,  avg # of iterations =  3.8

     total cpu time spent up to now is      359.5 secs

     total energy              =    -361.10342960 Ry
     estimated scf accuracy    <       0.00000244 Ry

     iteration # 41     ecut=    50.00 Ry     beta= 0.30
     Davidson diagonalization with overlap
     ethr =  6.79E-09,  avg # of iterations =  4.2

     total cpu time spent up to now is      366.3 secs

     total energy              =    -361.10342980 Ry
     estimated scf accuracy    <       0.00000062 Ry

     iteration # 42     ecut=    50.00 Ry     beta= 0.30
     Davidson diagonalization with overlap
     c_bands:  2 eigenvalues not converged
     c_bands:  2 eigenvalues not converged
     c_bands:  2 eigenvalues not converged
     c_bands:  2 eigenvalues not converged
     c_bands:  1 eigenvalues not converged
     c_bands:  1 eigenvalues not converged
     c_bands:  1 eigenvalues not converged
     c_bands:  2 eigenvalues not converged
     c_bands:  1 eigenvalues not converged
     c_bands:  2 eigenvalues not converged
     ethr =  1.73E-09,  avg # of iterations = 10.1

     total cpu time spent up to now is      377.7 secs

     total energy              =    -361.10343064 Ry
     estimated scf accuracy    <       0.00000235 Ry

     iteration # 43     ecut=    50.00 Ry     beta= 0.30
     Davidson diagonalization with overlap
     ethr =  1.73E-09,  avg # of iterations =  1.7

     total cpu time spent up to now is      383.1 secs

     total energy              =    -361.10343029 Ry
     estimated scf accuracy    <       0.00000273 Ry

     iteration # 44     ecut=    50.00 Ry     beta= 0.30
     Davidson diagonalization with overlap
     ethr =  1.73E-09,  avg # of iterations =  2.7

     total cpu time spent up to now is      389.0 secs

     total energy              =    -361.10342987 Ry
     estimated scf accuracy    <       0.00000154 Ry

     iteration # 45     ecut=    50.00 Ry     beta= 0.30
     Davidson diagonalization with overlap
     c_bands:  2 eigenvalues not converged
     c_bands:  2 eigenvalues not converged
     c_bands:  1 eigenvalues not converged
     c_bands:  1 eigenvalues not converged
     ethr =  1.73E-09,  avg # of iterations =  8.3

     total cpu time spent up to now is      398.9 secs

     total energy              =    -361.10343027 Ry
     estimated scf accuracy    <       0.00000029 Ry

     iteration # 46     ecut=    50.00 Ry     beta= 0.30
     Davidson diagonalization with overlap
     ethr =  8.15E-10,  avg # of iterations =  2.0

     total cpu time spent up to now is      404.4 secs

     total energy              =    -361.10343015 Ry
     estimated scf accuracy    <       0.00000030 Ry

     iteration # 47     ecut=    50.00 Ry     beta= 0.30
     Davidson diagonalization with overlap
     c_bands:  1 eigenvalues not converged
     c_bands:  1 eigenvalues not converged
     c_bands:  1 eigenvalues not converged
     ethr =  8.15E-10,  avg # of iterations = 10.2

     total cpu time spent up to now is      415.5 secs

     total energy              =    -361.10343026 Ry
     estimated scf accuracy    <       0.00000112 Ry

     iteration # 48     ecut=    50.00 Ry     beta= 0.30
     Davidson diagonalization with overlap
     ethr =  8.15E-10,  avg # of iterations =  1.9

     total cpu time spent up to now is      421.1 secs

     total energy              =    -361.10343018 Ry
     estimated scf accuracy    <       0.00000071 Ry

     iteration # 49     ecut=    50.00 Ry     beta= 0.30
     Davidson diagonalization with overlap
     c_bands:  1 eigenvalues not converged
     ethr =  8.15E-10,  avg # of iterations =  6.9

     total cpu time spent up to now is      429.3 secs

     total energy              =    -361.10343028 Ry
     estimated scf accuracy    <       0.00000002 Ry

     iteration # 50     ecut=    50.00 Ry     beta= 0.30
     Davidson diagonalization with overlap
     c_bands:  1 eigenvalues not converged
     c_bands:  1 eigenvalues not converged
     c_bands:  1 eigenvalues not converged
     c_bands:  1 eigenvalues not converged
     c_bands:  1 eigenvalues not converged
     c_bands:  2 eigenvalues not converged
     ethr =  4.63E-11,  avg # of iterations =  8.3

     total cpu time spent up to now is      438.7 secs

     End of self-consistent calculation

     Number of k-points >= 100: set verbosity='high' to print the bands.

     highest occupied level (ev):     6.0661

!    total energy              =    -361.10343030 Ry
     estimated scf accuracy    <          5.1E-10 Ry

     The total energy is the sum of the following terms:
     one-electron contribution =    -187.11445363 Ry
     hartree contribution      =     131.57169992 Ry
     xc contribution           =    -109.18283047 Ry
     ewald contribution        =    -196.37784612 Ry

     convergence has been achieved in  50 iterations

     Forces acting on atoms (cartesian axes, Ry/au):

     atom    1 type  1   force =    -0.31438523   -0.15669745    0.13321387
     atom    2 type  1   force =     0.00555469    0.00159128    0.06371714
     atom    3 type  2   force =     0.05450436   -0.05707403   -0.31172324
     atom    4 type  2   force =     0.25432618    0.21218020    0.11479223
     The non-local contrib.  to forces
     atom    1 type  1   force =    -0.57064327   -0.07809049    0.62408052
     atom    2 type  1   force =    -0.03957502   -0.05124218   -0.06860008
     atom    3 type  2   force =    -0.33650487    0.17057146    0.09987852
     atom    4 type  2   force =    -0.48863095   -0.05925454    0.84329312
     The ionic contribution  to forces
     atom    1 type  1   force =    -7.78450384   -0.14838207    7.67924090
     atom    2 type  1   force =     0.07079294   -0.07165731    6.29213350
     atom    3 type  2   force =     2.99068963   -2.32066022  -12.53043260
     atom    4 type  2   force =     4.72302126    2.54069960   -1.44094180
     The local contribution  to forces
     atom    1 type  1   force =     7.97322087    0.05671994   -8.11597933
     atom    2 type  1   force =    -0.02696650    0.12294786   -6.15828638
     atom    3 type  2   force =    -2.60218126    2.09394157   12.11723671
     atom    4 type  2   force =    -3.98307153   -2.26861291    0.72054766
     The core correction contribution to forces
     atom    1 type  1   force =     0.06753112    0.01304830   -0.05414971
     atom    2 type  1   force =     0.00130556    0.00154282   -0.00148805
     atom    3 type  2   force =     0.00250221   -0.00092585    0.00158043
     atom    4 type  2   force =     0.00300769   -0.00065375   -0.00812392
     The Hubbard contrib.    to forces
     atom    1 type  1   force =     0.00000000    0.00000000    0.00000000
     atom    2 type  1   force =     0.00000000    0.00000000    0.00000000
     atom    3 type  2   force =     0.00000000    0.00000000    0.00000000
     atom    4 type  2   force =     0.00000000    0.00000000    0.00000000
     The SCF correction term to forces
     atom    1 type  1   force =     0.00001211    0.00000750    0.00001892
     atom    2 type  1   force =    -0.00000008    0.00000070   -0.00004443
     atom    3 type  2   force =     0.00000087   -0.00000037    0.00001114
     atom    4 type  2   force =     0.00000192    0.00000242    0.00001460

     Total force =     0.609517     Total SCF correction =     0.000054

     Writing all to output data dir ./ZnO_ANN.save/

     init_run     :      3.87s CPU      3.97s WALL (       1 calls)
     electrons    :    427.92s CPU    434.26s WALL (       1 calls)
     forces       :      1.18s CPU      1.19s WALL (       1 calls)

     Called by init_run:
     wfcinit      :      2.97s CPU      3.03s WALL (       1 calls)
     potinit      :      0.28s CPU      0.28s WALL (       1 calls)
     hinit0       :      0.53s CPU      0.54s WALL (       1 calls)

     Called by electrons:
     c_bands      :    381.92s CPU    387.38s WALL (      50 calls)
     sum_band     :     41.50s CPU     42.25s WALL (      50 calls)
     v_of_rho     :      0.97s CPU      1.04s WALL (      51 calls)
     newd         :      3.34s CPU      3.38s WALL (      51 calls)
     mix_rho      :      0.15s CPU      0.17s WALL (      50 calls)

     Called by c_bands:
     init_us_2    :      2.61s CPU      2.64s WALL (   11424 calls)
     init_us_2:cp :      2.57s CPU      2.61s WALL (   11424 calls)
     cegterg      :    372.51s CPU    377.86s WALL (    5600 calls)

     Called by *egterg:
     cdiaghg      :     38.16s CPU     38.46s WALL (   39908 calls)
     h_psi        :    212.69s CPU    216.59s WALL (   40020 calls)
     s_psi        :     19.21s CPU     19.38s WALL (   40020 calls)
     g_psi        :      0.75s CPU      0.76s WALL (   34308 calls)

     Called by h_psi:
     h_psi:calbec :     29.76s CPU     30.57s WALL (   40020 calls)
     vloc_psi     :    162.99s CPU    165.89s WALL (   40020 calls)
     add_vuspsi   :     19.26s CPU     19.45s WALL (   40020 calls)

     General routines
     calbec       :     39.44s CPU     40.47s WALL (   46068 calls)
     fft          :      1.41s CPU      1.53s WALL (     672 calls)
     ffts         :      0.14s CPU      0.15s WALL (     101 calls)
     fftw         :    170.73s CPU    173.79s WALL (  747628 calls)
     interpolate  :      0.17s CPU      0.18s WALL (      51 calls)

     Parallel routines

     PWSCF        :   7m13.68s CPU   7m20.38s WALL


   This run was terminated on:  15:40: 7  23Jun2025            

=------------------------------------------------------------------------------=
   JOB DONE.
=------------------------------------------------------------------------------=
Note: The following floating-point exceptions are signalling: IEEE_INVALID_FLAG
