
     Program PWSCF v.7.2 starts on 23Jun2025 at 13:20:54 

     This program is part of the open-source Quantum ESPRESSO suite
     for quantum simulation of materials; please cite
         "P. Giannozzi et al., J. Phys.:Condens. Matter 21 395502 (2009);
         "P. Giannozzi et al., J. Phys.:Condens. Matter 29 465901 (2017);
         "P. Giannozzi et al., J. Chem. Phys. 152 154105 (2020);
          URL http://www.quantum-espresso.org", 
     in publications or presentations arising from this work. More details at
     http://www.quantum-espresso.org/quote

     Parallel version (MPI), running on     8 processors

     MPI processes distributed on     1 nodes
     91222 MiB available memory on the printing compute node when the environment starts

     Reading input from /home/jvc/QEspresso7.2/ZnO_DataBase/scfs_rnd025.in/scf-5.93-1.61-5.in

     Current dimensions of program PWSCF are:
     Max number of different atomic species (ntypx) = 10
     Max number of k-points (npk) =  40000
     Max angular momentum in pseudopotentials (lmaxx) =  4
     file Zn.upf: wavefunction(s)  3D renormalized

     R & G space division:  proc/nbgrp/npool/nimage =       8
     Subspace diagonalization in iterative solution of the eigenvalue problem:
     a serial algorithm will be used


     Parallelization info
     --------------------
     sticks:   dense  smooth     PW     G-vecs:    dense   smooth      PW
     Min         119      61     18                 4925     1743     292
     Max         120      63     19                 4934     1746     295
     Sum         955     499    151                39427    13957    2357

     Using Slab Decomposition



     bravais-lattice index     =            4
     lattice parameter (alat)  =       5.9317  a.u.
     unit-cell volume          =     291.7838 (a.u.)^3
     number of atoms/cell      =            4
     number of atomic types    =            2
     number of electrons       =        36.00
     number of Kohn-Sham states=           18
     kinetic-energy cutoff     =      50.0000  Ry
     charge density cutoff     =     400.0000  Ry
     scf convergence threshold =      1.0E-08
     mixing beta               =       0.3000
     number of iterations used =            8  plain     mixing
     Exchange-correlation= PBE
                           (   1   4   3   4   0   0   0)

     celldm(1)=   5.931669  celldm(2)=   0.000000  celldm(3)=   1.614358
     celldm(4)=   0.000000  celldm(5)=   0.000000  celldm(6)=   0.000000

     crystal axes: (cart. coord. in units of alat)
               a(1) = (   1.000000   0.000000   0.000000 )  
               a(2) = (  -0.500000   0.866025   0.000000 )  
               a(3) = (   0.000000   0.000000   1.614358 )  

     reciprocal axes: (cart. coord. in units 2 pi/alat)
               b(1) = (  1.000000  0.577350 -0.000000 )  
               b(2) = (  0.000000  1.154701  0.000000 )  
               b(3) = (  0.000000 -0.000000  0.619441 )  


     PseudoPot. # 1 for Zn read from file:
     ./pseudos/Zn.upf
     MD5 check sum: 7f56cabf9682ed8c977c2f7d0c5985c5
     Pseudo is Ultrasoft + core correction, Zval = 12.0
     Generated using &quot;atomic&quot; code by A. Dal Corso  v.6.2.2
     Using radial grid of 1201 points,  6 beta functions with: 
                l(1) =   0
                l(2) =   0
                l(3) =   1
                l(4) =   1
                l(5) =   2
                l(6) =   2
     Q(r) pseudized with 0 coefficients 


     PseudoPot. # 2 for O  read from file:
     ./pseudos/O.upf
     MD5 check sum: 91400c9766925bcf19f520983a725ff0
     Pseudo is Ultrasoft + core correction, Zval =  6.0
     Generated using &quot;atomic&quot; code by A. Dal Corso  v.6.3MaX
     Using radial grid of 1095 points,  4 beta functions with: 
                l(1) =   0
                l(2) =   0
                l(3) =   1
                l(4) =   1
     Q(r) pseudized with 0 coefficients 


     atomic species   valence    mass     pseudopotential
        Zn            12.00    63.38000     Zn( 1.00)
        O              6.00    15.99900     O ( 1.00)

     No symmetry found



   Cartesian axes

     site n.     atom                  positions (alat units)
         1           Zn  tau(   1) = (   0.7086983   0.3473838   1.0132156  )
         2           Zn  tau(   2) = (  -0.0875650   0.4059377  -0.0032650  )
         3           O   tau(   3) = (   0.2665146   0.3985089   1.5100525  )
         4           O   tau(   4) = (   0.2388501   0.4885987   0.8186518  )

     number of k points=   112

     Number of k-points >= 100: set verbosity='high' to print them.

     Dense  grid:    39427 G-vectors     FFT dimensions: (  40,  40,  64)

     Smooth grid:    13957 G-vectors     FFT dimensions: (  27,  27,  45)

     Estimated max dynamical RAM per process >      27.49 MB

     Estimated total dynamical RAM >     219.96 MB

     Check: negative core charge=   -0.000002

     Initial potential from superposition of free atoms

     starting charge      35.9925, renormalised to      36.0000
     Starting wfcs are   26 randomized atomic wfcs

     total cpu time spent up to now is        3.7 secs

     Self-consistent Calculation

     iteration #  1     ecut=    50.00 Ry     beta= 0.30
     Davidson diagonalization with overlap
     ethr =  1.00E-02,  avg # of iterations =  2.7

     total cpu time spent up to now is        9.1 secs

     total energy              =    -359.83119367 Ry
     estimated scf accuracy    <       1.29106601 Ry

     iteration #  2     ecut=    50.00 Ry     beta= 0.30
     Davidson diagonalization with overlap
     ethr =  3.59E-03,  avg # of iterations =  2.0

     total cpu time spent up to now is       14.6 secs

     total energy              =    -359.87786415 Ry
     estimated scf accuracy    <       0.23456202 Ry

     iteration #  3     ecut=    50.00 Ry     beta= 0.30
     Davidson diagonalization with overlap
     ethr =  6.52E-04,  avg # of iterations =  7.5

     total cpu time spent up to now is       25.7 secs

     total energy              =    -360.02404106 Ry
     estimated scf accuracy    <       0.30178561 Ry

     iteration #  4     ecut=    50.00 Ry     beta= 0.30
     Davidson diagonalization with overlap
     ethr =  6.52E-04,  avg # of iterations =  3.4

     total cpu time spent up to now is       31.7 secs

     total energy              =    -360.04677434 Ry
     estimated scf accuracy    <       0.02742856 Ry

     iteration #  5     ecut=    50.00 Ry     beta= 0.30
     Davidson diagonalization with overlap
     ethr =  7.62E-05,  avg # of iterations =  8.7

     total cpu time spent up to now is       46.3 secs

     total energy              =    -360.05702967 Ry
     estimated scf accuracy    <       0.19900171 Ry

     iteration #  6     ecut=    50.00 Ry     beta= 0.30
     Davidson diagonalization with overlap
     ethr =  7.62E-05,  avg # of iterations =  7.0

     total cpu time spent up to now is       57.1 secs

     total energy              =    -360.08497222 Ry
     estimated scf accuracy    <       0.00368480 Ry

     iteration #  7     ecut=    50.00 Ry     beta= 0.30
     Davidson diagonalization with overlap
     ethr =  1.02E-05,  avg # of iterations = 11.1

     total cpu time spent up to now is       72.8 secs

     total energy              =    -360.08868448 Ry
     estimated scf accuracy    <       0.04815309 Ry

     iteration #  8     ecut=    50.00 Ry     beta= 0.30
     Davidson diagonalization with overlap
     ethr =  1.02E-05,  avg # of iterations =  5.3

     total cpu time spent up to now is       81.0 secs

     total energy              =    -360.08664047 Ry
     estimated scf accuracy    <       0.01459156 Ry

     iteration #  9     ecut=    50.00 Ry     beta= 0.30
     Davidson diagonalization with overlap
     ethr =  1.02E-05,  avg # of iterations =  5.3

     total cpu time spent up to now is       88.0 secs

     total energy              =    -360.08657573 Ry
     estimated scf accuracy    <       0.00273639 Ry

     iteration # 10     ecut=    50.00 Ry     beta= 0.30
     Davidson diagonalization with overlap
     ethr =  7.60E-06,  avg # of iterations =  4.9

     total cpu time spent up to now is       95.2 secs

     total energy              =    -360.08764205 Ry
     estimated scf accuracy    <       0.00002638 Ry

     iteration # 11     ecut=    50.00 Ry     beta= 0.30
     Davidson diagonalization with overlap
     c_bands:  1 eigenvalues not converged
     ethr =  7.33E-08,  avg # of iterations = 12.5

     total cpu time spent up to now is      111.9 secs

     total energy              =    -360.08769743 Ry
     estimated scf accuracy    <       0.00067134 Ry

     iteration # 12     ecut=    50.00 Ry     beta= 0.30
     Davidson diagonalization with overlap
     ethr =  7.33E-08,  avg # of iterations =  8.9

     total cpu time spent up to now is      124.5 secs

     total energy              =    -360.08772328 Ry
     estimated scf accuracy    <       0.00008236 Ry

     iteration # 13     ecut=    50.00 Ry     beta= 0.30
     Davidson diagonalization with overlap
     ethr =  7.33E-08,  avg # of iterations =  5.3

     total cpu time spent up to now is      131.4 secs

     total energy              =    -360.08772925 Ry
     estimated scf accuracy    <       0.00000665 Ry

     iteration # 14     ecut=    50.00 Ry     beta= 0.30
     Davidson diagonalization with overlap
     ethr =  1.85E-08,  avg # of iterations =  6.8

     total cpu time spent up to now is      140.6 secs

     total energy              =    -360.08773303 Ry
     estimated scf accuracy    <       0.00000479 Ry

     iteration # 15     ecut=    50.00 Ry     beta= 0.30
     Davidson diagonalization with overlap
     ethr =  1.33E-08,  avg # of iterations =  2.0

     total cpu time spent up to now is      145.6 secs

     total energy              =    -360.08773305 Ry
     estimated scf accuracy    <       0.00000082 Ry

     iteration # 16     ecut=    50.00 Ry     beta= 0.30
     Davidson diagonalization with overlap
     ethr =  2.28E-09,  avg # of iterations =  7.3

     total cpu time spent up to now is      156.4 secs

     total energy              =    -360.08773455 Ry
     estimated scf accuracy    <       0.00000105 Ry

     iteration # 17     ecut=    50.00 Ry     beta= 0.30
     Davidson diagonalization with overlap
     ethr =  2.28E-09,  avg # of iterations =  1.9

     total cpu time spent up to now is      161.1 secs

     total energy              =    -360.08773441 Ry
     estimated scf accuracy    <       0.00000188 Ry

     iteration # 18     ecut=    50.00 Ry     beta= 0.30
     Davidson diagonalization with overlap
     ethr =  2.28E-09,  avg # of iterations =  1.0

     total cpu time spent up to now is      165.2 secs

     total energy              =    -360.08773406 Ry
     estimated scf accuracy    <       0.00000166 Ry

     iteration # 19     ecut=    50.00 Ry     beta= 0.30
     Davidson diagonalization with overlap
     ethr =  2.28E-09,  avg # of iterations =  1.0

     total cpu time spent up to now is      169.4 secs

     total energy              =    -360.08773425 Ry
     estimated scf accuracy    <       0.00000100 Ry

     iteration # 20     ecut=    50.00 Ry     beta= 0.30
     Davidson diagonalization with overlap
     ethr =  2.28E-09,  avg # of iterations =  1.0

     total cpu time spent up to now is      173.6 secs

     total energy              =    -360.08773435 Ry
     estimated scf accuracy    <       0.00000128 Ry

     iteration # 21     ecut=    50.00 Ry     beta= 0.30
     Davidson diagonalization with overlap
     ethr =  2.28E-09,  avg # of iterations =  1.0

     total cpu time spent up to now is      177.7 secs

     total energy              =    -360.08773426 Ry
     estimated scf accuracy    <       0.00000151 Ry

     iteration # 22     ecut=    50.00 Ry     beta= 0.30
     Davidson diagonalization with overlap
     ethr =  2.28E-09,  avg # of iterations =  1.0

     total cpu time spent up to now is      181.9 secs

     total energy              =    -360.08773415 Ry
     estimated scf accuracy    <       0.00000125 Ry

     iteration # 23     ecut=    50.00 Ry     beta= 0.30
     Davidson diagonalization with overlap
     ethr =  2.28E-09,  avg # of iterations =  1.0

     total cpu time spent up to now is      186.1 secs

     total energy              =    -360.08773417 Ry
     estimated scf accuracy    <       0.00000101 Ry

     iteration # 24     ecut=    50.00 Ry     beta= 0.30
     Davidson diagonalization with overlap
     ethr =  2.28E-09,  avg # of iterations =  1.0

     total cpu time spent up to now is      190.2 secs

     total energy              =    -360.08773356 Ry
     estimated scf accuracy    <       0.00000100 Ry

     iteration # 25     ecut=    50.00 Ry     beta= 0.30
     Davidson diagonalization with overlap
     ethr =  2.28E-09,  avg # of iterations =  4.7

     total cpu time spent up to now is      198.5 secs

     total energy              =    -360.08773395 Ry
     estimated scf accuracy    <       0.00000019 Ry

     iteration # 26     ecut=    50.00 Ry     beta= 0.30
     Davidson diagonalization with overlap
     ethr =  5.29E-10,  avg # of iterations =  1.7

     total cpu time spent up to now is      203.1 secs

     total energy              =    -360.08773390 Ry
     estimated scf accuracy    <       0.00000013 Ry

     iteration # 27     ecut=    50.00 Ry     beta= 0.30
     Davidson diagonalization with overlap
     ethr =  3.55E-10,  avg # of iterations =  3.6

     total cpu time spent up to now is      209.1 secs

     End of self-consistent calculation

     Number of k-points >= 100: set verbosity='high' to print the bands.

     highest occupied level (ev):     9.6047

!    total energy              =    -360.08773392 Ry
     estimated scf accuracy    <          9.1E-09 Ry

     The total energy is the sum of the following terms:
     one-electron contribution =    -188.54628658 Ry
     hartree contribution      =     135.60920699 Ry
     xc contribution           =    -110.28130199 Ry
     ewald contribution        =    -196.86935234 Ry

     convergence has been achieved in  27 iterations

     Forces acting on atoms (cartesian axes, Ry/au):

     atom    1 type  1   force =     0.07907599   -0.09893077   -0.22352713
     atom    2 type  1   force =    -3.26460963    0.08494571    1.16823679
     atom    3 type  2   force =     3.34819101   -0.08692472   -0.75735326
     atom    4 type  2   force =    -0.16265736    0.10090979   -0.18735641
     The non-local contrib.  to forces
     atom    1 type  1   force =     0.36477286   -0.27776318    0.78496853
     atom    2 type  1   force =    -0.76029841    0.01913270    0.05119552
     atom    3 type  2   force =    -0.24288035   -0.07966985    0.63668407
     atom    4 type  2   force =     0.04182654   -0.20992625    0.51097115
     The ionic contribution  to forces
     atom    1 type  1   force =     0.32291684   -3.25342033  -17.29833272
     atom    2 type  1   force =   -17.94575721    1.12057988   28.09526630
     atom    3 type  2   force =    19.35142170   -0.44336760    2.50186744
     atom    4 type  2   force =    -1.72858132    2.57620806  -13.29880102
     The local contribution  to forces
     atom    1 type  1   force =    -0.58216505    3.40256514   16.31661731
     atom    2 type  1   force =    15.15616901   -1.04565602  -26.86873129
     atom    3 type  2   force =   -15.74921922    0.43506988   -3.89294178
     atom    4 type  2   force =     1.52350921   -2.26661689   12.60364044
     The core correction contribution to forces
     atom    1 type  1   force =    -0.02639763    0.02965669   -0.02659954
     atom    2 type  1   force =     0.28510529   -0.00911612   -0.10951467
     atom    3 type  2   force =    -0.01113493    0.00104088   -0.00294994
     atom    4 type  2   force =     0.00060827    0.00124341   -0.00315861
     The Hubbard contrib.    to forces
     atom    1 type  1   force =     0.00000000    0.00000000    0.00000000
     atom    2 type  1   force =     0.00000000    0.00000000    0.00000000
     atom    3 type  2   force =     0.00000000    0.00000000    0.00000000
     atom    4 type  2   force =     0.00000000    0.00000000    0.00000000
     The SCF correction term to forces
     atom    1 type  1   force =    -0.00004098    0.00003377   -0.00019115
     atom    2 type  1   force =     0.00018174    0.00000812    0.00001049
     atom    3 type  2   force =     0.00001386    0.00000483   -0.00002349
     atom    4 type  2   force =    -0.00001001    0.00000433   -0.00001881

     Total force =     4.894787     Total SCF correction =     0.000272

     Writing all to output data dir ./ZnO_ANN.save/

     init_run     :      3.20s CPU      3.29s WALL (       1 calls)
     electrons    :    201.37s CPU    205.37s WALL (       1 calls)
     forces       :      0.92s CPU      0.94s WALL (       1 calls)

     Called by init_run:
     wfcinit      :      2.41s CPU      2.47s WALL (       1 calls)
     potinit      :      0.20s CPU      0.20s WALL (       1 calls)
     hinit0       :      0.52s CPU      0.53s WALL (       1 calls)

     Called by electrons:
     c_bands      :    181.64s CPU    185.15s WALL (      27 calls)
     sum_band     :     17.96s CPU     18.39s WALL (      27 calls)
     v_of_rho     :      0.38s CPU      0.41s WALL (      28 calls)
     newd         :      1.36s CPU      1.38s WALL (      28 calls)
     mix_rho      :      0.06s CPU      0.07s WALL (      27 calls)

     Called by c_bands:
     init_us_2    :      1.16s CPU      1.18s WALL (    6272 calls)
     init_us_2:cp :      1.14s CPU      1.16s WALL (    6272 calls)
     cegterg      :    177.72s CPU    181.15s WALL (    3024 calls)

     Called by *egterg:
     cdiaghg      :     18.53s CPU     18.65s WALL (   16434 calls)
     h_psi        :    106.07s CPU    108.68s WALL (   16546 calls)
     s_psi        :     11.43s CPU     11.53s WALL (   16546 calls)
     g_psi        :      0.35s CPU      0.35s WALL (   13410 calls)

     Called by h_psi:
     h_psi:calbec :     13.53s CPU     14.05s WALL (   16546 calls)
     vloc_psi     :     80.79s CPU     82.78s WALL (   16546 calls)
     add_vuspsi   :     11.43s CPU     11.55s WALL (   16546 calls)

     General routines
     calbec       :     17.80s CPU     18.44s WALL (   20018 calls)
     fft          :      0.52s CPU      0.56s WALL (     373 calls)
     ffts         :      0.08s CPU      0.08s WALL (      55 calls)
     fftw         :     82.93s CPU     84.98s WALL (  437374 calls)
     interpolate  :      0.09s CPU      0.09s WALL (      28 calls)

     Parallel routines

     PWSCF        :   3m26.22s CPU   3m30.49s WALL


   This run was terminated on:  13:24:24  23Jun2025            

=------------------------------------------------------------------------------=
   JOB DONE.
=------------------------------------------------------------------------------=
Note: The following floating-point exceptions are signalling: IEEE_INVALID_FLAG
