
     Program PWSCF v.7.2 starts on 23Jun2025 at 12:27:21 

     This program is part of the open-source Quantum ESPRESSO suite
     for quantum simulation of materials; please cite
         "P. Giannozzi et al., J. Phys.:Condens. Matter 21 395502 (2009);
         "P. Giannozzi et al., J. Phys.:Condens. Matter 29 465901 (2017);
         "P. Giannozzi et al., J. Chem. Phys. 152 154105 (2020);
          URL http://www.quantum-espresso.org", 
     in publications or presentations arising from this work. More details at
     http://www.quantum-espresso.org/quote

     Parallel version (MPI), running on     8 processors

     MPI processes distributed on     1 nodes
     91334 MiB available memory on the printing compute node when the environment starts

     Reading input from /home/jvc/QEspresso7.2/ZnO_DataBase/scfs_rnd025.in/scf-5.68-1.71-4.in

     Current dimensions of program PWSCF are:
     Max number of different atomic species (ntypx) = 10
     Max number of k-points (npk) =  40000
     Max angular momentum in pseudopotentials (lmaxx) =  4
     file Zn.upf: wavefunction(s)  3D renormalized

     R & G space division:  proc/nbgrp/npool/nimage =       8
     Subspace diagonalization in iterative solution of the eigenvalue problem:
     a serial algorithm will be used


     Parallelization info
     --------------------
     sticks:   dense  smooth     PW     G-vecs:    dense   smooth      PW
     Min         111      54     16                 4585     1622     282
     Max         112      55     18                 4588     1627     286
     Sum         889     439    139                36685    12997    2275

     Using Slab Decomposition



     bravais-lattice index     =            4
     lattice parameter (alat)  =       5.6845  a.u.
     unit-cell volume          =     272.2180 (a.u.)^3
     number of atoms/cell      =            4
     number of atomic types    =            2
     number of electrons       =        36.00
     number of Kohn-Sham states=           18
     kinetic-energy cutoff     =      50.0000  Ry
     charge density cutoff     =     400.0000  Ry
     scf convergence threshold =      1.0E-08
     mixing beta               =       0.3000
     number of iterations used =            8  plain     mixing
     Exchange-correlation= PBE
                           (   1   4   3   4   0   0   0)

     celldm(1)=   5.684516  celldm(2)=   0.000000  celldm(3)=   1.711220
     celldm(4)=   0.000000  celldm(5)=   0.000000  celldm(6)=   0.000000

     crystal axes: (cart. coord. in units of alat)
               a(1) = (   1.000000   0.000000   0.000000 )  
               a(2) = (  -0.500000   0.866025   0.000000 )  
               a(3) = (   0.000000   0.000000   1.711220 )  

     reciprocal axes: (cart. coord. in units 2 pi/alat)
               b(1) = (  1.000000  0.577350 -0.000000 )  
               b(2) = (  0.000000  1.154701  0.000000 )  
               b(3) = (  0.000000 -0.000000  0.584378 )  


     PseudoPot. # 1 for Zn read from file:
     ./pseudos/Zn.upf
     MD5 check sum: 7f56cabf9682ed8c977c2f7d0c5985c5
     Pseudo is Ultrasoft + core correction, Zval = 12.0
     Generated using &quot;atomic&quot; code by A. Dal Corso  v.6.2.2
     Using radial grid of 1201 points,  6 beta functions with: 
                l(1) =   0
                l(2) =   0
                l(3) =   1
                l(4) =   1
                l(5) =   2
                l(6) =   2
     Q(r) pseudized with 0 coefficients 


     PseudoPot. # 2 for O  read from file:
     ./pseudos/O.upf
     MD5 check sum: 91400c9766925bcf19f520983a725ff0
     Pseudo is Ultrasoft + core correction, Zval =  6.0
     Generated using &quot;atomic&quot; code by A. Dal Corso  v.6.3MaX
     Using radial grid of 1095 points,  4 beta functions with: 
                l(1) =   0
                l(2) =   0
                l(3) =   1
                l(4) =   1
     Q(r) pseudized with 0 coefficients 


     atomic species   valence    mass     pseudopotential
        Zn            12.00    63.38000     Zn( 1.00)
        O              6.00    15.99900     O ( 1.00)

     No symmetry found



   Cartesian axes

     site n.     atom                  positions (alat units)
         1           Zn  tau(   1) = (   0.2871928   0.2852632   0.7641935  )
         2           Zn  tau(   2) = (  -0.2359684   0.7589800  -0.2896900  )
         3           O   tau(   3) = (   0.6269475   0.1403182   1.9284162  )
         4           O   tau(   4) = (   0.0740847   0.6993633   0.9922175  )

     number of k points=   112

     Number of k-points >= 100: set verbosity='high' to print them.

     Dense  grid:    36685 G-vectors     FFT dimensions: (  40,  40,  64)

     Smooth grid:    12997 G-vectors     FFT dimensions: (  25,  25,  45)

     Estimated max dynamical RAM per process >      25.92 MB

     Estimated total dynamical RAM >     207.34 MB

     Check: negative core charge=   -0.000002

     Initial potential from superposition of free atoms

     starting charge      35.9925, renormalised to      36.0000
     Starting wfcs are   26 randomized atomic wfcs

     total cpu time spent up to now is        3.3 secs

     Self-consistent Calculation

     iteration #  1     ecut=    50.00 Ry     beta= 0.30
     Davidson diagonalization with overlap
     ethr =  1.00E-02,  avg # of iterations =  2.0

     total cpu time spent up to now is        7.4 secs

     total energy              =    -361.00746485 Ry
     estimated scf accuracy    <       0.88683254 Ry

     iteration #  2     ecut=    50.00 Ry     beta= 0.30
     Davidson diagonalization with overlap
     ethr =  2.46E-03,  avg # of iterations =  2.1

     total cpu time spent up to now is       12.2 secs

     total energy              =    -361.12294133 Ry
     estimated scf accuracy    <       0.12256889 Ry

     iteration #  3     ecut=    50.00 Ry     beta= 0.30
     Davidson diagonalization with overlap
     ethr =  3.40E-04,  avg # of iterations =  6.6

     total cpu time spent up to now is       20.7 secs

     total energy              =    -361.16917951 Ry
     estimated scf accuracy    <       0.11490660 Ry

     iteration #  4     ecut=    50.00 Ry     beta= 0.30
     Davidson diagonalization with overlap
     ethr =  3.19E-04,  avg # of iterations =  5.3

     total cpu time spent up to now is       27.3 secs

     total energy              =    -361.21064054 Ry
     estimated scf accuracy    <       0.06380637 Ry

     iteration #  5     ecut=    50.00 Ry     beta= 0.30
     Davidson diagonalization with overlap
     ethr =  1.77E-04,  avg # of iterations =  1.4

     total cpu time spent up to now is       31.1 secs

     total energy              =    -361.19284620 Ry
     estimated scf accuracy    <       0.02798261 Ry

     iteration #  6     ecut=    50.00 Ry     beta= 0.30
     Davidson diagonalization with overlap
     c_bands:  2 eigenvalues not converged
     c_bands:  1 eigenvalues not converged
     ethr =  7.77E-05,  avg # of iterations =  8.2

     total cpu time spent up to now is       39.3 secs

     total energy              =    -361.20684497 Ry
     estimated scf accuracy    <       0.08981426 Ry

     iteration #  7     ecut=    50.00 Ry     beta= 0.30
     Davidson diagonalization with overlap
     ethr =  7.77E-05,  avg # of iterations =  4.7

     total cpu time spent up to now is       44.1 secs

     total energy              =    -361.20336141 Ry
     estimated scf accuracy    <       0.02180862 Ry

     iteration #  8     ecut=    50.00 Ry     beta= 0.30
     Davidson diagonalization with overlap
     ethr =  6.06E-05,  avg # of iterations =  5.3

     total cpu time spent up to now is       50.0 secs

     total energy              =    -361.21234767 Ry
     estimated scf accuracy    <       0.00164727 Ry

     iteration #  9     ecut=    50.00 Ry     beta= 0.30
     Davidson diagonalization with overlap
     ethr =  4.58E-06,  avg # of iterations =  4.9

     total cpu time spent up to now is       55.4 secs

     total energy              =    -361.21219240 Ry
     estimated scf accuracy    <       0.00397887 Ry

     iteration # 10     ecut=    50.00 Ry     beta= 0.30
     Davidson diagonalization with overlap
     ethr =  4.58E-06,  avg # of iterations =  2.1

     total cpu time spent up to now is       59.6 secs

     total energy              =    -361.21120934 Ry
     estimated scf accuracy    <       0.00210002 Ry

     iteration # 11     ecut=    50.00 Ry     beta= 0.30
     Davidson diagonalization with overlap
     c_bands:  2 eigenvalues not converged
     ethr =  4.58E-06,  avg # of iterations =  6.4

     total cpu time spent up to now is       66.1 secs

     total energy              =    -361.21284063 Ry
     estimated scf accuracy    <       0.00149163 Ry

     iteration # 12     ecut=    50.00 Ry     beta= 0.30
     Davidson diagonalization with overlap
     ethr =  4.14E-06,  avg # of iterations =  1.3

     total cpu time spent up to now is       69.8 secs

     total energy              =    -361.21248181 Ry
     estimated scf accuracy    <       0.00217228 Ry

     iteration # 13     ecut=    50.00 Ry     beta= 0.30
     Davidson diagonalization with overlap
     ethr =  4.14E-06,  avg # of iterations =  1.0

     total cpu time spent up to now is       73.4 secs

     total energy              =    -361.21240164 Ry
     estimated scf accuracy    <       0.00148226 Ry

     iteration # 14     ecut=    50.00 Ry     beta= 0.30
     Davidson diagonalization with overlap
     ethr =  4.12E-06,  avg # of iterations =  1.2

     total cpu time spent up to now is       77.1 secs

     total energy              =    -361.21242732 Ry
     estimated scf accuracy    <       0.00097165 Ry

     iteration # 15     ecut=    50.00 Ry     beta= 0.30
     Davidson diagonalization with overlap
     ethr =  2.70E-06,  avg # of iterations =  1.0

     total cpu time spent up to now is       80.7 secs

     total energy              =    -361.21243249 Ry
     estimated scf accuracy    <       0.00095652 Ry

     iteration # 16     ecut=    50.00 Ry     beta= 0.30
     Davidson diagonalization with overlap
     ethr =  2.66E-06,  avg # of iterations =  1.0

     total cpu time spent up to now is       84.3 secs

     total energy              =    -361.21221602 Ry
     estimated scf accuracy    <       0.00089728 Ry

     iteration # 17     ecut=    50.00 Ry     beta= 0.30
     Davidson diagonalization with overlap
     ethr =  2.49E-06,  avg # of iterations =  1.9

     total cpu time spent up to now is       88.3 secs

     total energy              =    -361.21210511 Ry
     estimated scf accuracy    <       0.00039013 Ry

     iteration # 18     ecut=    50.00 Ry     beta= 0.30
     Davidson diagonalization with overlap
     c_bands:  1 eigenvalues not converged
     ethr =  1.08E-06,  avg # of iterations =  6.2

     total cpu time spent up to now is       94.4 secs

     total energy              =    -361.21230213 Ry
     estimated scf accuracy    <       0.00012681 Ry

     iteration # 19     ecut=    50.00 Ry     beta= 0.30
     Davidson diagonalization with overlap
     ethr =  3.52E-07,  avg # of iterations =  1.3

     total cpu time spent up to now is       98.0 secs

     total energy              =    -361.21233196 Ry
     estimated scf accuracy    <       0.00013912 Ry

     iteration # 20     ecut=    50.00 Ry     beta= 0.30
     Davidson diagonalization with overlap
     ethr =  3.52E-07,  avg # of iterations =  1.3

     total cpu time spent up to now is      101.7 secs

     total energy              =    -361.21230156 Ry
     estimated scf accuracy    <       0.00019934 Ry

     iteration # 21     ecut=    50.00 Ry     beta= 0.30
     Davidson diagonalization with overlap
     ethr =  3.52E-07,  avg # of iterations =  1.0

     total cpu time spent up to now is      105.3 secs

     total energy              =    -361.21229363 Ry
     estimated scf accuracy    <       0.00014530 Ry

     iteration # 22     ecut=    50.00 Ry     beta= 0.30
     Davidson diagonalization with overlap
     ethr =  3.52E-07,  avg # of iterations =  1.0

     total cpu time spent up to now is      108.8 secs

     total energy              =    -361.21229513 Ry
     estimated scf accuracy    <       0.00011058 Ry

     iteration # 23     ecut=    50.00 Ry     beta= 0.30
     Davidson diagonalization with overlap
     ethr =  3.07E-07,  avg # of iterations =  1.0

     total cpu time spent up to now is      112.3 secs

     total energy              =    -361.21227172 Ry
     estimated scf accuracy    <       0.00010869 Ry

     iteration # 24     ecut=    50.00 Ry     beta= 0.30
     Davidson diagonalization with overlap
     ethr =  3.02E-07,  avg # of iterations =  1.5

     total cpu time spent up to now is      116.0 secs

     total energy              =    -361.21225448 Ry
     estimated scf accuracy    <       0.00005653 Ry

     iteration # 25     ecut=    50.00 Ry     beta= 0.30
     Davidson diagonalization with overlap
     c_bands:  2 eigenvalues not converged
     ethr =  1.57E-07,  avg # of iterations =  6.1

     total cpu time spent up to now is      121.9 secs

     total energy              =    -361.21228098 Ry
     estimated scf accuracy    <       0.00002136 Ry

     iteration # 26     ecut=    50.00 Ry     beta= 0.30
     Davidson diagonalization with overlap
     ethr =  5.93E-08,  avg # of iterations =  1.2

     total cpu time spent up to now is      125.6 secs

     total energy              =    -361.21228123 Ry
     estimated scf accuracy    <       0.00001498 Ry

     iteration # 27     ecut=    50.00 Ry     beta= 0.30
     Davidson diagonalization with overlap
     ethr =  4.16E-08,  avg # of iterations =  1.5

     total cpu time spent up to now is      129.3 secs

     total energy              =    -361.21227754 Ry
     estimated scf accuracy    <       0.00001232 Ry

     iteration # 28     ecut=    50.00 Ry     beta= 0.30
     Davidson diagonalization with overlap
     ethr =  3.42E-08,  avg # of iterations =  5.8

     total cpu time spent up to now is      134.6 secs

     total energy              =    -361.21228096 Ry
     estimated scf accuracy    <       0.00000029 Ry

     iteration # 29     ecut=    50.00 Ry     beta= 0.30
     Davidson diagonalization with overlap
     c_bands:  2 eigenvalues not converged
     ethr =  8.01E-10,  avg # of iterations =  9.7

     total cpu time spent up to now is      144.1 secs

     total energy              =    -361.21228146 Ry
     estimated scf accuracy    <       0.00000362 Ry

     iteration # 30     ecut=    50.00 Ry     beta= 0.30
     Davidson diagonalization with overlap
     c_bands:  1 eigenvalues not converged
     ethr =  8.01E-10,  avg # of iterations =  1.7

     total cpu time spent up to now is      147.8 secs

     total energy              =    -361.21228133 Ry
     estimated scf accuracy    <       0.00000314 Ry

     iteration # 31     ecut=    50.00 Ry     beta= 0.30
     Davidson diagonalization with overlap
     ethr =  8.01E-10,  avg # of iterations =  4.6

     total cpu time spent up to now is      153.0 secs

     total energy              =    -361.21228038 Ry
     estimated scf accuracy    <       0.00000227 Ry

     iteration # 32     ecut=    50.00 Ry     beta= 0.30
     Davidson diagonalization with overlap
     c_bands:  2 eigenvalues not converged
     c_bands:  2 eigenvalues not converged
     ethr =  8.01E-10,  avg # of iterations = 10.1

     total cpu time spent up to now is      162.4 secs

     total energy              =    -361.21228133 Ry
     estimated scf accuracy    <       0.00000046 Ry

     iteration # 33     ecut=    50.00 Ry     beta= 0.30
     Davidson diagonalization with overlap
     c_bands:  2 eigenvalues not converged
     ethr =  8.01E-10,  avg # of iterations =  6.6

     total cpu time spent up to now is      168.5 secs

     total energy              =    -361.21228048 Ry
     estimated scf accuracy    <       0.00000234 Ry

     iteration # 34     ecut=    50.00 Ry     beta= 0.30
     Davidson diagonalization with overlap
     c_bands:  2 eigenvalues not converged
     c_bands:  2 eigenvalues not converged
     ethr =  8.01E-10,  avg # of iterations =  9.5

     total cpu time spent up to now is      177.5 secs

     total energy              =    -361.21228101 Ry
     estimated scf accuracy    <       0.00000018 Ry

     iteration # 35     ecut=    50.00 Ry     beta= 0.30
     Davidson diagonalization with overlap
     ethr =  4.96E-10,  avg # of iterations =  1.5

     total cpu time spent up to now is      181.3 secs

     total energy              =    -361.21228099 Ry
     estimated scf accuracy    <       0.00000009 Ry

     iteration # 36     ecut=    50.00 Ry     beta= 0.30
     Davidson diagonalization with overlap
     ethr =  2.37E-10,  avg # of iterations =  4.5

     total cpu time spent up to now is      186.4 secs

     End of self-consistent calculation

     Number of k-points >= 100: set verbosity='high' to print the bands.

     highest occupied level (ev):    10.6330

!    total energy              =    -361.21228100 Ry
     estimated scf accuracy    <          8.8E-09 Ry

     The total energy is the sum of the following terms:
     one-electron contribution =    -143.34309690 Ry
     hartree contribution      =     115.17460494 Ry
     xc contribution           =    -109.89214376 Ry
     ewald contribution        =    -223.15164528 Ry

     convergence has been achieved in  36 iterations

     Forces acting on atoms (cartesian axes, Ry/au):

     atom    1 type  1   force =     0.10698346   -0.19037880   -0.39126450
     atom    2 type  1   force =    -0.19127154   -0.00337187    0.47005642
     atom    3 type  2   force =     0.00943515    0.03113755   -0.07308064
     atom    4 type  2   force =     0.07485293    0.16261312   -0.00571128
     The non-local contrib.  to forces
     atom    1 type  1   force =    -0.06726484   -0.28910949    0.11871471
     atom    2 type  1   force =    -0.70209665    0.08037783   -0.12501532
     atom    3 type  2   force =    -0.38965679    0.17332099   -0.24483531
     atom    4 type  2   force =    -0.41017064   -0.19533440    0.22520496
     The ionic contribution  to forces
     atom    1 type  1   force =    -0.39106764   -0.65768419  -16.50144574
     atom    2 type  1   force =    -5.61382693   -1.20437329   18.90406443
     atom    3 type  2   force =     2.71010626    0.25409515   -1.05749045
     atom    4 type  2   force =     3.29478831    1.60796233   -1.34512824
     The local contribution  to forces
     atom    1 type  1   force =     0.56722804    0.72378512   15.94671870
     atom    2 type  1   force =     6.05942352    1.12476677  -18.26445796
     atom    3 type  2   force =    -2.31432323   -0.39432311    1.22651337
     atom    4 type  2   force =    -2.81283903   -1.25096085    1.11612164
     The core correction contribution to forces
     atom    1 type  1   force =    -0.00189553    0.03259288    0.04463025
     atom    2 type  1   force =     0.06527933   -0.00412491   -0.04444376
     atom    3 type  2   force =     0.00329498   -0.00193839    0.00273629
     atom    4 type  2   force =     0.00306354    0.00095435   -0.00190197
     The Hubbard contrib.    to forces
     atom    1 type  1   force =     0.00000000    0.00000000    0.00000000
     atom    2 type  1   force =     0.00000000    0.00000000    0.00000000
     atom    3 type  2   force =     0.00000000    0.00000000    0.00000000
     atom    4 type  2   force =     0.00000000    0.00000000    0.00000000
     The SCF correction term to forces
     atom    1 type  1   force =    -0.00002947    0.00003532    0.00012614
     atom    2 type  1   force =    -0.00006371   -0.00001982   -0.00008242
     atom    3 type  2   force =     0.00000103   -0.00001865    0.00000401
     atom    4 type  2   force =    -0.00000215   -0.00000987    0.00000090

     Total force =     0.704844     Total SCF correction =     0.000172

     Writing all to output data dir ./ZnO_ANN.save/

     init_run     :      2.74s CPU      2.83s WALL (       1 calls)
     electrons    :    179.15s CPU    183.08s WALL (       1 calls)
     forces       :      0.88s CPU      0.89s WALL (       1 calls)

     Called by init_run:
     wfcinit      :      2.00s CPU      2.06s WALL (       1 calls)
     potinit      :      0.17s CPU      0.17s WALL (       1 calls)
     hinit0       :      0.50s CPU      0.51s WALL (       1 calls)

     Called by electrons:
     c_bands      :    157.32s CPU    160.64s WALL (      36 calls)
     sum_band     :     19.52s CPU     20.06s WALL (      36 calls)
     v_of_rho     :      0.50s CPU      0.54s WALL (      37 calls)
     newd         :      1.73s CPU      1.76s WALL (      37 calls)
     mix_rho      :      0.08s CPU      0.09s WALL (      36 calls)

     Called by c_bands:
     init_us_2    :      1.49s CPU      1.51s WALL (    8288 calls)
     init_us_2:cp :      1.47s CPU      1.49s WALL (    8288 calls)
     cegterg      :    152.41s CPU    155.66s WALL (    4032 calls)

     Called by *egterg:
     cdiaghg      :     19.03s CPU     19.19s WALL (   18850 calls)
     h_psi        :     85.73s CPU     88.13s WALL (   18962 calls)
     s_psi        :     10.58s CPU     10.69s WALL (   18962 calls)
     g_psi        :      0.30s CPU      0.31s WALL (   14818 calls)

     Called by h_psi:
     h_psi:calbec :     13.13s CPU     13.64s WALL (   18962 calls)
     vloc_psi     :     61.68s CPU     63.45s WALL (   18962 calls)
     add_vuspsi   :     10.62s CPU     10.73s WALL (   18962 calls)

     General routines
     calbec       :     18.31s CPU     19.00s WALL (   23442 calls)
     fft          :      0.68s CPU      0.73s WALL (     490 calls)
     ffts         :      0.06s CPU      0.06s WALL (      73 calls)
     fftw         :     63.76s CPU     65.57s WALL (  467848 calls)
     interpolate  :      0.08s CPU      0.08s WALL (      37 calls)

     Parallel routines

     PWSCF        :   3m 3.48s CPU   3m 7.64s WALL


   This run was terminated on:  12:30:29  23Jun2025            

=------------------------------------------------------------------------------=
   JOB DONE.
=------------------------------------------------------------------------------=
Note: The following floating-point exceptions are signalling: IEEE_INVALID_FLAG
