
     Program PWSCF v.7.2 starts on 23Jun2025 at 14:19:22 

     This program is part of the open-source Quantum ESPRESSO suite
     for quantum simulation of materials; please cite
         "P. Giannozzi et al., J. Phys.:Condens. Matter 21 395502 (2009);
         "P. Giannozzi et al., J. Phys.:Condens. Matter 29 465901 (2017);
         "P. Giannozzi et al., J. Chem. Phys. 152 154105 (2020);
          URL http://www.quantum-espresso.org", 
     in publications or presentations arising from this work. More details at
     http://www.quantum-espresso.org/quote

     Parallel version (MPI), running on     8 processors

     MPI processes distributed on     1 nodes
     91158 MiB available memory on the printing compute node when the environment starts

     Reading input from /home/jvc/QEspresso7.2/ZnO_DataBase/scfs_rnd025.in/scf-6.18-1.49-3.in

     Current dimensions of program PWSCF are:
     Max number of different atomic species (ntypx) = 10
     Max number of k-points (npk) =  40000
     Max angular momentum in pseudopotentials (lmaxx) =  4
     file Zn.upf: wavefunction(s)  3D renormalized

     R & G space division:  proc/nbgrp/npool/nimage =       8
     Subspace diagonalization in iterative solution of the eigenvalue problem:
     a serial algorithm will be used


     Parallelization info
     --------------------
     sticks:   dense  smooth     PW     G-vecs:    dense   smooth      PW
     Min         130      64     20                 5122     1804     310
     Max         132      66     21                 5123     1807     313
     Sum        1045     517    163                40979    14441    2489

     Using Slab Decomposition



     bravais-lattice index     =            4
     lattice parameter (alat)  =       6.1788  a.u.
     unit-cell volume          =     303.4138 (a.u.)^3
     number of atoms/cell      =            4
     number of atomic types    =            2
     number of electrons       =        36.00
     number of Kohn-Sham states=           18
     kinetic-energy cutoff     =      50.0000  Ry
     charge density cutoff     =     400.0000  Ry
     scf convergence threshold =      1.0E-08
     mixing beta               =       0.3000
     number of iterations used =            8  plain     mixing
     Exchange-correlation= PBE
                           (   1   4   3   4   0   0   0)

     celldm(1)=   6.178821  celldm(2)=   0.000000  celldm(3)=   1.485210
     celldm(4)=   0.000000  celldm(5)=   0.000000  celldm(6)=   0.000000

     crystal axes: (cart. coord. in units of alat)
               a(1) = (   1.000000   0.000000   0.000000 )  
               a(2) = (  -0.500000   0.866025   0.000000 )  
               a(3) = (   0.000000   0.000000   1.485210 )  

     reciprocal axes: (cart. coord. in units 2 pi/alat)
               b(1) = (  1.000000  0.577350 -0.000000 )  
               b(2) = (  0.000000  1.154701  0.000000 )  
               b(3) = (  0.000000 -0.000000  0.673306 )  


     PseudoPot. # 1 for Zn read from file:
     ./pseudos/Zn.upf
     MD5 check sum: 7f56cabf9682ed8c977c2f7d0c5985c5
     Pseudo is Ultrasoft + core correction, Zval = 12.0
     Generated using &quot;atomic&quot; code by A. Dal Corso  v.6.2.2
     Using radial grid of 1201 points,  6 beta functions with: 
                l(1) =   0
                l(2) =   0
                l(3) =   1
                l(4) =   1
                l(5) =   2
                l(6) =   2
     Q(r) pseudized with 0 coefficients 


     PseudoPot. # 2 for O  read from file:
     ./pseudos/O.upf
     MD5 check sum: 91400c9766925bcf19f520983a725ff0
     Pseudo is Ultrasoft + core correction, Zval =  6.0
     Generated using &quot;atomic&quot; code by A. Dal Corso  v.6.3MaX
     Using radial grid of 1095 points,  4 beta functions with: 
                l(1) =   0
                l(2) =   0
                l(3) =   1
                l(4) =   1
     Q(r) pseudized with 0 coefficients 


     atomic species   valence    mass     pseudopotential
        Zn            12.00    63.38000     Zn( 1.00)
        O              6.00    15.99900     O ( 1.00)

     No symmetry found



   Cartesian axes

     site n.     atom                  positions (alat units)
         1           Zn  tau(   1) = (   0.5515663   0.1343269   0.6647036  )
         2           Zn  tau(   2) = (   0.1568862   0.4705397   0.2524954  )
         3           O   tau(   3) = (   0.5499416   0.2727689   0.9425168  )
         4           O   tau(   4) = (   0.0657656   0.7757253   0.4811345  )

     number of k points=   112

     Number of k-points >= 100: set verbosity='high' to print them.

     Dense  grid:    40979 G-vectors     FFT dimensions: (  40,  40,  60)

     Smooth grid:    14441 G-vectors     FFT dimensions: (  27,  27,  45)

     Estimated max dynamical RAM per process >      28.44 MB

     Estimated total dynamical RAM >     227.52 MB

     Check: negative core charge=   -0.000002

     Initial potential from superposition of free atoms

     starting charge      35.9925, renormalised to      36.0000
     Starting wfcs are   26 randomized atomic wfcs

     total cpu time spent up to now is        3.8 secs

     Self-consistent Calculation

     iteration #  1     ecut=    50.00 Ry     beta= 0.30
     Davidson diagonalization with overlap
     ethr =  1.00E-02,  avg # of iterations =  3.0

     total cpu time spent up to now is       11.5 secs

     total energy              =    -353.85051857 Ry
     estimated scf accuracy    <       2.17223945 Ry

     iteration #  2     ecut=    50.00 Ry     beta= 0.30
     Davidson diagonalization with overlap
     ethr =  6.03E-03,  avg # of iterations =  2.0

     total cpu time spent up to now is       16.9 secs

     total energy              =    -353.77526973 Ry
     estimated scf accuracy    <       0.49448478 Ry

     iteration #  3     ecut=    50.00 Ry     beta= 0.30
     Davidson diagonalization with overlap
     ethr =  1.37E-03,  avg # of iterations = 10.0

     total cpu time spent up to now is       28.3 secs

     total energy              =    -354.63805543 Ry
     estimated scf accuracy    <       1.57610030 Ry

     iteration #  4     ecut=    50.00 Ry     beta= 0.30
     Davidson diagonalization with overlap
     ethr =  1.37E-03,  avg # of iterations =  1.7

     total cpu time spent up to now is       33.1 secs

     total energy              =    -354.12253854 Ry
     estimated scf accuracy    <       1.96883027 Ry

     iteration #  5     ecut=    50.00 Ry     beta= 0.30
     Davidson diagonalization with overlap
     ethr =  1.37E-03,  avg # of iterations =  4.0

     total cpu time spent up to now is       39.1 secs

     total energy              =    -353.89105118 Ry
     estimated scf accuracy    <       0.65647231 Ry

     iteration #  6     ecut=    50.00 Ry     beta= 0.30
     Davidson diagonalization with overlap
     ethr =  1.37E-03,  avg # of iterations = 10.6

     total cpu time spent up to now is       49.0 secs

     total energy              =    -354.12583695 Ry
     estimated scf accuracy    <       0.51978922 Ry

     iteration #  7     ecut=    50.00 Ry     beta= 0.30
     Davidson diagonalization with overlap
     ethr =  1.37E-03,  avg # of iterations =  2.8

     total cpu time spent up to now is       54.3 secs

     total energy              =    -354.13799756 Ry
     estimated scf accuracy    <       0.12590749 Ry

     iteration #  8     ecut=    50.00 Ry     beta= 0.30
     Davidson diagonalization with overlap
     ethr =  3.50E-04,  avg # of iterations =  7.1

     total cpu time spent up to now is       61.8 secs

     total energy              =    -354.18004840 Ry
     estimated scf accuracy    <       0.01880958 Ry

     iteration #  9     ecut=    50.00 Ry     beta= 0.30
     Davidson diagonalization with overlap
     ethr =  5.22E-05,  avg # of iterations = 10.6

     total cpu time spent up to now is       71.2 secs

     total energy              =    -354.18606465 Ry
     estimated scf accuracy    <       0.04699104 Ry

     iteration # 10     ecut=    50.00 Ry     beta= 0.30
     Davidson diagonalization with overlap
     ethr =  5.22E-05,  avg # of iterations =  5.3

     total cpu time spent up to now is       77.0 secs

     total energy              =    -354.18332481 Ry
     estimated scf accuracy    <       0.01095510 Ry

     iteration # 11     ecut=    50.00 Ry     beta= 0.30
     Davidson diagonalization with overlap
     ethr =  3.04E-05,  avg # of iterations = 10.0

     total cpu time spent up to now is       85.8 secs

     total energy              =    -354.19202954 Ry
     estimated scf accuracy    <       0.01713365 Ry

     iteration # 12     ecut=    50.00 Ry     beta= 0.30
     Davidson diagonalization with overlap
     ethr =  3.04E-05,  avg # of iterations =  1.0

     total cpu time spent up to now is       90.2 secs

     total energy              =    -354.18659728 Ry
     estimated scf accuracy    <       0.01645401 Ry

     iteration # 13     ecut=    50.00 Ry     beta= 0.30
     Davidson diagonalization with overlap
     ethr =  3.04E-05,  avg # of iterations =  6.2

     total cpu time spent up to now is       96.4 secs

     total energy              =    -354.18902922 Ry
     estimated scf accuracy    <       0.00025475 Ry

     iteration # 14     ecut=    50.00 Ry     beta= 0.30
     Davidson diagonalization with overlap
     c_bands:  1 eigenvalues not converged
     ethr =  7.08E-07,  avg # of iterations = 10.7

     total cpu time spent up to now is      107.8 secs

     total energy              =    -354.18971338 Ry
     estimated scf accuracy    <       0.00031753 Ry

     iteration # 15     ecut=    50.00 Ry     beta= 0.30
     Davidson diagonalization with overlap
     ethr =  7.08E-07,  avg # of iterations =  3.8

     total cpu time spent up to now is      113.0 secs

     total energy              =    -354.18971733 Ry
     estimated scf accuracy    <       0.00061169 Ry

     iteration # 16     ecut=    50.00 Ry     beta= 0.30
     Davidson diagonalization with overlap
     ethr =  7.08E-07,  avg # of iterations =  2.1

     total cpu time spent up to now is      117.8 secs

     total energy              =    -354.18953891 Ry
     estimated scf accuracy    <       0.00065745 Ry

     iteration # 17     ecut=    50.00 Ry     beta= 0.30
     Davidson diagonalization with overlap
     ethr =  7.08E-07,  avg # of iterations =  5.4

     total cpu time spent up to now is      123.9 secs

     total energy              =    -354.18956152 Ry
     estimated scf accuracy    <       0.00009332 Ry

     iteration # 18     ecut=    50.00 Ry     beta= 0.30
     Davidson diagonalization with overlap
     ethr =  2.59E-07,  avg # of iterations =  7.1

     total cpu time spent up to now is      131.0 secs

     total energy              =    -354.18960171 Ry
     estimated scf accuracy    <       0.00001581 Ry

     iteration # 19     ecut=    50.00 Ry     beta= 0.30
     Davidson diagonalization with overlap
     ethr =  4.39E-08,  avg # of iterations =  5.3

     total cpu time spent up to now is      137.1 secs

     total energy              =    -354.18960121 Ry
     estimated scf accuracy    <       0.00002701 Ry

     iteration # 20     ecut=    50.00 Ry     beta= 0.30
     Davidson diagonalization with overlap
     ethr =  4.39E-08,  avg # of iterations =  1.9

     total cpu time spent up to now is      141.8 secs

     total energy              =    -354.18959725 Ry
     estimated scf accuracy    <       0.00001552 Ry

     iteration # 21     ecut=    50.00 Ry     beta= 0.30
     Davidson diagonalization with overlap
     ethr =  4.31E-08,  avg # of iterations =  7.6

     total cpu time spent up to now is      148.4 secs

     total energy              =    -354.18960133 Ry
     estimated scf accuracy    <       0.00000106 Ry

     iteration # 22     ecut=    50.00 Ry     beta= 0.30
     Davidson diagonalization with overlap
     ethr =  2.95E-09,  avg # of iterations =  7.1

     total cpu time spent up to now is      155.5 secs

     total energy              =    -354.18960172 Ry
     estimated scf accuracy    <       0.00000010 Ry

     iteration # 23     ecut=    50.00 Ry     beta= 0.30
     Davidson diagonalization with overlap
     c_bands:  1 eigenvalues not converged
     c_bands:  1 eigenvalues not converged
     c_bands:  1 eigenvalues not converged
     c_bands:  1 eigenvalues not converged
     c_bands:  1 eigenvalues not converged
     ethr =  2.73E-10,  avg # of iterations = 12.2

     total cpu time spent up to now is      166.7 secs

     total energy              =    -354.18960174 Ry
     estimated scf accuracy    <       0.00000071 Ry

     iteration # 24     ecut=    50.00 Ry     beta= 0.30
     Davidson diagonalization with overlap
     ethr =  2.73E-10,  avg # of iterations =  8.9

     total cpu time spent up to now is      175.1 secs

     total energy              =    -354.18960181 Ry
     estimated scf accuracy    <       0.00000002 Ry

     iteration # 25     ecut=    50.00 Ry     beta= 0.30
     Davidson diagonalization with overlap
     ethr =  5.53E-11,  avg # of iterations =  5.9

     total cpu time spent up to now is      181.1 secs

     End of self-consistent calculation

     Number of k-points >= 100: set verbosity='high' to print the bands.

     highest occupied level (ev):    11.0698

!    total energy              =    -354.18960181 Ry
     estimated scf accuracy    <          9.5E-10 Ry

     The total energy is the sum of the following terms:
     one-electron contribution =    -284.95843339 Ry
     hartree contribution      =     180.16910240 Ry
     xc contribution           =    -112.17518970 Ry
     ewald contribution        =    -137.22508113 Ry

     convergence has been achieved in  25 iterations

     Forces acting on atoms (cartesian axes, Ry/au):

     atom    1 type  1   force =    -0.51025764    5.03007938    0.05434363
     atom    2 type  1   force =     0.37531743   -1.39778815   -1.29654940
     atom    3 type  2   force =    -0.02300207    3.43200729    6.99645372
     atom    4 type  2   force =     0.15794228   -7.06429852   -5.75424795
     The non-local contrib.  to forces
     atom    1 type  1   force =     0.06061451   -0.97376966   -0.47674062
     atom    2 type  1   force =     0.27867212   -0.73925483    0.09396778
     atom    3 type  2   force =     0.01810672   -0.18770686   -0.48029563
     atom    4 type  2   force =     0.22477471   -0.75876791   -0.48781777
     The ionic contribution  to forces
     atom    1 type  1   force =    -0.25155457   15.45474786   11.69382224
     atom    2 type  1   force =     1.95405036  -13.46232809  -36.06345109
     atom    3 type  2   force =     0.19942622   16.17044491   42.32932089
     atom    4 type  2   force =    -1.90192201  -18.16286468  -17.95969203
     The local contribution  to forces
     atom    1 type  1   force =    -0.33304933   -9.25205710  -11.18902105
     atom    2 type  1   force =    -1.81669072   12.64450263   34.53972396
     atom    3 type  2   force =    -0.24050371  -12.54120419  -34.83473577
     atom    4 type  2   force =     1.83613673   11.83731550   12.67662773
     The core correction contribution to forces
     atom    1 type  1   force =     0.01373006   -0.19892372    0.02612702
     atom    2 type  1   force =    -0.04071434    0.15929887    0.13320324
     atom    3 type  2   force =    -0.00003306   -0.00952925   -0.01783185
     atom    4 type  2   force =    -0.00105043    0.02001207    0.01661854
     The Hubbard contrib.    to forces
     atom    1 type  1   force =     0.00000000    0.00000000    0.00000000
     atom    2 type  1   force =     0.00000000    0.00000000    0.00000000
     atom    3 type  2   force =     0.00000000    0.00000000    0.00000000
     atom    4 type  2   force =     0.00000000    0.00000000    0.00000000
     The SCF correction term to forces
     atom    1 type  1   force =    -0.00000050    0.00008432    0.00015705
     atom    2 type  1   force =    -0.00000217   -0.00000441    0.00000771
     atom    3 type  2   force =    -0.00000042    0.00000500   -0.00000292
     atom    4 type  2   force =     0.00000110    0.00000883    0.00001659

     Total force =    13.157163     Total SCF correction =     0.000180

     Writing all to output data dir ./ZnO_ANN.save/

     init_run     :      3.28s CPU      3.36s WALL (       1 calls)
     electrons    :    174.18s CPU    177.27s WALL (       1 calls)
     forces       :      0.94s CPU      0.96s WALL (       1 calls)

     Called by init_run:
     wfcinit      :      2.48s CPU      2.53s WALL (       1 calls)
     potinit      :      0.20s CPU      0.20s WALL (       1 calls)
     hinit0       :      0.53s CPU      0.54s WALL (       1 calls)

     Called by electrons:
     c_bands      :    154.98s CPU    157.63s WALL (      25 calls)
     sum_band     :     17.41s CPU     17.80s WALL (      25 calls)
     v_of_rho     :      0.35s CPU      0.38s WALL (      26 calls)
     newd         :      1.40s CPU      1.42s WALL (      26 calls)
     mix_rho      :      0.06s CPU      0.07s WALL (      25 calls)

     Called by c_bands:
     init_us_2    :      1.12s CPU      1.14s WALL (    5824 calls)
     init_us_2:cp :      1.10s CPU      1.12s WALL (    5824 calls)
     cegterg      :    151.23s CPU    153.83s WALL (    2800 calls)

     Called by *egterg:
     cdiaghg      :     20.93s CPU     21.13s WALL (   19848 calls)
     h_psi        :     87.92s CPU     89.80s WALL (   19960 calls)
     s_psi        :      9.33s CPU      9.43s WALL (   19960 calls)
     g_psi        :      0.28s CPU      0.28s WALL (   17048 calls)

     Called by h_psi:
     h_psi:calbec :     11.35s CPU     11.73s WALL (   19960 calls)
     vloc_psi     :     66.92s CPU     68.33s WALL (   19960 calls)
     add_vuspsi   :      9.34s CPU      9.44s WALL (   19960 calls)

     General routines
     calbec       :     15.49s CPU     16.01s WALL (   23208 calls)
     fft          :      0.66s CPU      0.70s WALL (     347 calls)
     ffts         :      0.08s CPU      0.08s WALL (      51 calls)
     fftw         :     70.47s CPU     71.97s WALL (  354984 calls)
     interpolate  :      0.09s CPU      0.09s WALL (      26 calls)

     Parallel routines

     PWSCF        :   2m59.11s CPU   3m 2.44s WALL


   This run was terminated on:  14:22:24  23Jun2025            

=------------------------------------------------------------------------------=
   JOB DONE.
=------------------------------------------------------------------------------=
Note: The following floating-point exceptions are signalling: IEEE_INVALID_FLAG
