
     Program PWSCF v.7.2 starts on 23Jun2025 at 19: 3:27 

     This program is part of the open-source Quantum ESPRESSO suite
     for quantum simulation of materials; please cite
         "P. Giannozzi et al., J. Phys.:Condens. Matter 21 395502 (2009);
         "P. Giannozzi et al., J. Phys.:Condens. Matter 29 465901 (2017);
         "P. Giannozzi et al., J. Chem. Phys. 152 154105 (2020);
          URL http://www.quantum-espresso.org", 
     in publications or presentations arising from this work. More details at
     http://www.quantum-espresso.org/quote

     Parallel version (MPI), running on     8 processors

     MPI processes distributed on     1 nodes
     90524 MiB available memory on the printing compute node when the environment starts

     Reading input from /home/jvc/QEspresso7.2/ZnO_DataBase/scfs_rnd025.in/scf-6.80-1.78-3.in

     Current dimensions of program PWSCF are:
     Max number of different atomic species (ntypx) = 10
     Max number of k-points (npk) =  40000
     Max angular momentum in pseudopotentials (lmaxx) =  4
     file Zn.upf: wavefunction(s)  3D renormalized

     R & G space division:  proc/nbgrp/npool/nimage =       8
     Subspace diagonalization in iterative solution of the eigenvalue problem:
     a serial algorithm will be used


     Parallelization info
     --------------------
     sticks:   dense  smooth     PW     G-vecs:    dense   smooth      PW
     Min         159      81     24                 8154     2881     472
     Max         162      82     26                 8155     2883     475
     Sum        1285     649    199                65237    23059    3791

     Using Slab Decomposition



     bravais-lattice index     =            4
     lattice parameter (alat)  =       6.7967  a.u.
     unit-cell volume          =     482.8567 (a.u.)^3
     number of atoms/cell      =            4
     number of atomic types    =            2
     number of electrons       =        36.00
     number of Kohn-Sham states=           18
     kinetic-energy cutoff     =      50.0000  Ry
     charge density cutoff     =     400.0000  Ry
     scf convergence threshold =      1.0E-08
     mixing beta               =       0.3000
     number of iterations used =            8  plain     mixing
     Exchange-correlation= PBE
                           (   1   4   3   4   0   0   0)

     celldm(1)=   6.796704  celldm(2)=   0.000000  celldm(3)=   1.775794
     celldm(4)=   0.000000  celldm(5)=   0.000000  celldm(6)=   0.000000

     crystal axes: (cart. coord. in units of alat)
               a(1) = (   1.000000   0.000000   0.000000 )  
               a(2) = (  -0.500000   0.866025   0.000000 )  
               a(3) = (   0.000000   0.000000   1.775794 )  

     reciprocal axes: (cart. coord. in units 2 pi/alat)
               b(1) = (  1.000000  0.577350 -0.000000 )  
               b(2) = (  0.000000  1.154701  0.000000 )  
               b(3) = (  0.000000 -0.000000  0.563128 )  


     PseudoPot. # 1 for Zn read from file:
     ./pseudos/Zn.upf
     MD5 check sum: 7f56cabf9682ed8c977c2f7d0c5985c5
     Pseudo is Ultrasoft + core correction, Zval = 12.0
     Generated using &quot;atomic&quot; code by A. Dal Corso  v.6.2.2
     Using radial grid of 1201 points,  6 beta functions with: 
                l(1) =   0
                l(2) =   0
                l(3) =   1
                l(4) =   1
                l(5) =   2
                l(6) =   2
     Q(r) pseudized with 0 coefficients 


     PseudoPot. # 2 for O  read from file:
     ./pseudos/O.upf
     MD5 check sum: 91400c9766925bcf19f520983a725ff0
     Pseudo is Ultrasoft + core correction, Zval =  6.0
     Generated using &quot;atomic&quot; code by A. Dal Corso  v.6.3MaX
     Using radial grid of 1095 points,  4 beta functions with: 
                l(1) =   0
                l(2) =   0
                l(3) =   1
                l(4) =   1
     Q(r) pseudized with 0 coefficients 


     atomic species   valence    mass     pseudopotential
        Zn            12.00    63.38000     Zn( 1.00)
        O              6.00    15.99900     O ( 1.00)

     No symmetry found



   Cartesian axes

     site n.     atom                  positions (alat units)
         1           Zn  tau(   1) = (   0.1914895   0.4494173   0.4503129  )
         2           Zn  tau(   2) = (   0.3038984   0.3800607   0.2889839  )
         3           O   tau(   3) = (   0.3823930   0.3883788   1.5502560  )
         4           O   tau(   4) = (  -0.2687255   0.6819737   0.3427052  )

     number of k points=   112

     Number of k-points >= 100: set verbosity='high' to print them.

     Dense  grid:    65237 G-vectors     FFT dimensions: (  45,  45,  80)

     Smooth grid:    23059 G-vectors     FFT dimensions: (  32,  32,  60)

     Estimated max dynamical RAM per process >      43.37 MB

     Estimated total dynamical RAM >     346.95 MB

     Check: negative core charge=   -0.000003

     Initial potential from superposition of free atoms

     starting charge      35.9925, renormalised to      36.0000
     Starting wfcs are   26 randomized atomic wfcs

     total cpu time spent up to now is        5.0 secs

     Self-consistent Calculation

     iteration #  1     ecut=    50.00 Ry     beta= 0.30
     Davidson diagonalization with overlap
     ethr =  1.00E-02,  avg # of iterations =  8.3

     total cpu time spent up to now is       17.9 secs

     total energy              =    -338.19423551 Ry
     estimated scf accuracy    <       2.91072774 Ry

     iteration #  2     ecut=    50.00 Ry     beta= 0.30
     Davidson diagonalization with overlap
     ethr =  8.09E-03,  avg # of iterations =  3.8

     total cpu time spent up to now is       26.2 secs

     total energy              =    -338.77666983 Ry
     estimated scf accuracy    <       0.68953736 Ry

     iteration #  3     ecut=    50.00 Ry     beta= 0.30
     Davidson diagonalization with overlap
     ethr =  1.92E-03,  avg # of iterations =  7.4

     total cpu time spent up to now is       38.4 secs

     total energy              =    -338.71646816 Ry
     estimated scf accuracy    <       1.38714642 Ry

     iteration #  4     ecut=    50.00 Ry     beta= 0.30
     Davidson diagonalization with overlap
     ethr =  1.92E-03,  avg # of iterations =  7.8

     total cpu time spent up to now is       48.5 secs

     total energy              =    -339.09415995 Ry
     estimated scf accuracy    <       0.79894394 Ry

     iteration #  5     ecut=    50.00 Ry     beta= 0.30
     Davidson diagonalization with overlap
     ethr =  1.92E-03,  avg # of iterations =  1.0

     total cpu time spent up to now is       54.5 secs

     total energy              =    -338.87436304 Ry
     estimated scf accuracy    <       0.58576450 Ry

     iteration #  6     ecut=    50.00 Ry     beta= 0.30
     Davidson diagonalization with overlap
     ethr =  1.63E-03,  avg # of iterations =  7.4

     total cpu time spent up to now is       63.4 secs

     total energy              =    -339.02732977 Ry
     estimated scf accuracy    <       0.25549993 Ry

     iteration #  7     ecut=    50.00 Ry     beta= 0.30
     Davidson diagonalization with overlap
     ethr =  7.10E-04,  avg # of iterations =  1.6

     total cpu time spent up to now is       69.8 secs

     total energy              =    -338.94686786 Ry
     estimated scf accuracy    <       0.22433970 Ry

     iteration #  8     ecut=    50.00 Ry     beta= 0.30
     Davidson diagonalization with overlap
     ethr =  6.23E-04,  avg # of iterations =  6.3

     total cpu time spent up to now is       78.6 secs

     total energy              =    -339.03158720 Ry
     estimated scf accuracy    <       0.12670736 Ry

     iteration #  9     ecut=    50.00 Ry     beta= 0.30
     Davidson diagonalization with overlap
     ethr =  3.52E-04,  avg # of iterations =  1.4

     total cpu time spent up to now is       84.8 secs

     total energy              =    -338.99293623 Ry
     estimated scf accuracy    <       0.11446849 Ry

     iteration # 10     ecut=    50.00 Ry     beta= 0.30
     Davidson diagonalization with overlap
     ethr =  3.18E-04,  avg # of iterations =  6.3

     total cpu time spent up to now is       93.3 secs

     total energy              =    -339.01987521 Ry
     estimated scf accuracy    <       0.03487184 Ry

     iteration # 11     ecut=    50.00 Ry     beta= 0.30
     Davidson diagonalization with overlap
     ethr =  9.69E-05,  avg # of iterations =  3.1

     total cpu time spent up to now is      100.3 secs

     total energy              =    -339.02599584 Ry
     estimated scf accuracy    <       0.02752908 Ry

     iteration # 12     ecut=    50.00 Ry     beta= 0.30
     Davidson diagonalization with overlap
     ethr =  7.65E-05,  avg # of iterations =  2.4

     total cpu time spent up to now is      106.9 secs

     total energy              =    -339.02455838 Ry
     estimated scf accuracy    <       0.03350543 Ry

     iteration # 13     ecut=    50.00 Ry     beta= 0.30
     Davidson diagonalization with overlap
     ethr =  7.65E-05,  avg # of iterations =  1.2

     total cpu time spent up to now is      113.1 secs

     total energy              =    -339.02381540 Ry
     estimated scf accuracy    <       0.02718264 Ry

     iteration # 14     ecut=    50.00 Ry     beta= 0.30
     Davidson diagonalization with overlap
     ethr =  7.55E-05,  avg # of iterations =  1.1

     total cpu time spent up to now is      119.2 secs

     total energy              =    -339.02068147 Ry
     estimated scf accuracy    <       0.02389826 Ry

     iteration # 15     ecut=    50.00 Ry     beta= 0.30
     Davidson diagonalization with overlap
     ethr =  6.64E-05,  avg # of iterations =  4.8

     total cpu time spent up to now is      126.9 secs

     total energy              =    -339.02692766 Ry
     estimated scf accuracy    <       0.00113034 Ry

     iteration # 16     ecut=    50.00 Ry     beta= 0.30
     Davidson diagonalization with overlap
     c_bands:  1 eigenvalues not converged
     c_bands:  2 eigenvalues not converged
     c_bands:  1 eigenvalues not converged
     c_bands:  1 eigenvalues not converged
     c_bands:  1 eigenvalues not converged
     c_bands:  1 eigenvalues not converged
     c_bands:  1 eigenvalues not converged
     c_bands:  1 eigenvalues not converged
     c_bands:  1 eigenvalues not converged
     c_bands:  1 eigenvalues not converged
     c_bands:  1 eigenvalues not converged
     ethr =  3.14E-06,  avg # of iterations = 10.7

     total cpu time spent up to now is      138.1 secs

     total energy              =    -339.03492451 Ry
     estimated scf accuracy    <       0.00450369 Ry

     iteration # 17     ecut=    50.00 Ry     beta= 0.30
     Davidson diagonalization with overlap
     c_bands:  1 eigenvalues not converged
     c_bands:  2 eigenvalues not converged
     c_bands:  2 eigenvalues not converged
     c_bands:  1 eigenvalues not converged
     c_bands:  1 eigenvalues not converged
     c_bands:  2 eigenvalues not converged
     c_bands:  2 eigenvalues not converged
     c_bands:  1 eigenvalues not converged
     c_bands:  2 eigenvalues not converged
     c_bands:  2 eigenvalues not converged
     c_bands:  2 eigenvalues not converged
     c_bands:  2 eigenvalues not converged
     c_bands:  1 eigenvalues not converged
     c_bands:  2 eigenvalues not converged
     c_bands:  2 eigenvalues not converged
     c_bands:  1 eigenvalues not converged
     c_bands:  1 eigenvalues not converged
     c_bands:  1 eigenvalues not converged
     c_bands:  2 eigenvalues not converged
     ethr =  3.14E-06,  avg # of iterations = 13.9

     total cpu time spent up to now is      152.7 secs

     total energy              =    -339.04588693 Ry
     estimated scf accuracy    <       0.10178183 Ry

     iteration # 18     ecut=    50.00 Ry     beta= 0.30
     Davidson diagonalization with overlap
     ethr =  3.14E-06,  avg # of iterations =  8.8

     total cpu time spent up to now is      162.9 secs

     total energy              =    -339.02428527 Ry
     estimated scf accuracy    <       0.17168295 Ry

     iteration # 19     ecut=    50.00 Ry     beta= 0.30
     Davidson diagonalization with overlap
     c_bands:  1 eigenvalues not converged
     c_bands:  1 eigenvalues not converged
     c_bands:  3 eigenvalues not converged
     c_bands:  1 eigenvalues not converged
     c_bands:  1 eigenvalues not converged
     c_bands:  2 eigenvalues not converged
     c_bands:  2 eigenvalues not converged
     c_bands:  2 eigenvalues not converged
     c_bands:  1 eigenvalues not converged
     c_bands:  1 eigenvalues not converged
     c_bands:  2 eigenvalues not converged
     c_bands:  2 eigenvalues not converged
     c_bands:  2 eigenvalues not converged
     c_bands:  1 eigenvalues not converged
     c_bands:  1 eigenvalues not converged
     ethr =  3.14E-06,  avg # of iterations = 15.4

     total cpu time spent up to now is      178.7 secs

     total energy              =    -339.03017721 Ry
     estimated scf accuracy    <       0.01133281 Ry

     iteration # 20     ecut=    50.00 Ry     beta= 0.30
     Davidson diagonalization with overlap
     c_bands:  2 eigenvalues not converged
     ethr =  3.14E-06,  avg # of iterations =  9.0

     total cpu time spent up to now is      189.5 secs

     total energy              =    -339.03121429 Ry
     estimated scf accuracy    <       0.00362889 Ry

     iteration # 21     ecut=    50.00 Ry     beta= 0.30
     Davidson diagonalization with overlap
     ethr =  3.14E-06,  avg # of iterations =  8.8

     total cpu time spent up to now is      199.8 secs

     total energy              =    -339.03375791 Ry
     estimated scf accuracy    <       0.00292909 Ry

     iteration # 22     ecut=    50.00 Ry     beta= 0.30
     Davidson diagonalization with overlap
     c_bands:  1 eigenvalues not converged
     c_bands:  1 eigenvalues not converged
     c_bands:  2 eigenvalues not converged
     c_bands:  2 eigenvalues not converged
     c_bands:  2 eigenvalues not converged
     c_bands:  2 eigenvalues not converged
     ethr =  3.14E-06,  avg # of iterations =  9.3

     total cpu time spent up to now is      211.2 secs

     total energy              =    -339.03717737 Ry
     estimated scf accuracy    <       0.05720430 Ry

     iteration # 23     ecut=    50.00 Ry     beta= 0.30
     Davidson diagonalization with overlap
     ethr =  3.14E-06,  avg # of iterations =  1.4

     total cpu time spent up to now is      217.4 secs

     total energy              =    -339.04195815 Ry
     estimated scf accuracy    <       0.05964201 Ry

     iteration # 24     ecut=    50.00 Ry     beta= 0.30
     Davidson diagonalization with overlap
     c_bands:  2 eigenvalues not converged
     c_bands:  1 eigenvalues not converged
     c_bands:  2 eigenvalues not converged
     ethr =  3.14E-06,  avg # of iterations =  9.3

     total cpu time spent up to now is      228.0 secs

     total energy              =    -339.03194623 Ry
     estimated scf accuracy    <       0.12485474 Ry

     iteration # 25     ecut=    50.00 Ry     beta= 0.30
     Davidson diagonalization with overlap
     c_bands:  1 eigenvalues not converged
     c_bands:  2 eigenvalues not converged
     c_bands:  1 eigenvalues not converged
     c_bands:  2 eigenvalues not converged
     c_bands:  2 eigenvalues not converged
     c_bands:  2 eigenvalues not converged
     c_bands:  2 eigenvalues not converged
     c_bands:  1 eigenvalues not converged
     c_bands:  2 eigenvalues not converged
     c_bands:  1 eigenvalues not converged
     ethr =  3.14E-06,  avg # of iterations = 10.2

     total cpu time spent up to now is      239.7 secs

     total energy              =    -339.03376616 Ry
     estimated scf accuracy    <       0.03603006 Ry

     iteration # 26     ecut=    50.00 Ry     beta= 0.30
     Davidson diagonalization with overlap
     ethr =  3.14E-06,  avg # of iterations =  1.4

     total cpu time spent up to now is      245.8 secs

     total energy              =    -339.03019935 Ry
     estimated scf accuracy    <       0.03451890 Ry

     iteration # 27     ecut=    50.00 Ry     beta= 0.30
     Davidson diagonalization with overlap
     c_bands:  1 eigenvalues not converged
     c_bands:  1 eigenvalues not converged
     ethr =  3.14E-06,  avg # of iterations =  9.0

     total cpu time spent up to now is      256.4 secs

     total energy              =    -339.03166916 Ry
     estimated scf accuracy    <       0.00319045 Ry

     iteration # 28     ecut=    50.00 Ry     beta= 0.30
     Davidson diagonalization with overlap
     ethr =  3.14E-06,  avg # of iterations =  1.1

     total cpu time spent up to now is      262.4 secs

     total energy              =    -339.03125185 Ry
     estimated scf accuracy    <       0.00310546 Ry

     iteration # 29     ecut=    50.00 Ry     beta= 0.30
     Davidson diagonalization with overlap
     ethr =  3.14E-06,  avg # of iterations =  4.9

     total cpu time spent up to now is      270.0 secs

     total energy              =    -339.03150598 Ry
     estimated scf accuracy    <       0.00030280 Ry

     iteration # 30     ecut=    50.00 Ry     beta= 0.30
     Davidson diagonalization with overlap
     c_bands:  1 eigenvalues not converged
     c_bands:  1 eigenvalues not converged
     c_bands:  1 eigenvalues not converged
     c_bands:  1 eigenvalues not converged
     c_bands:  1 eigenvalues not converged
     ethr =  8.41E-07,  avg # of iterations =  7.4

     total cpu time spent up to now is      278.7 secs

     total energy              =    -339.03168810 Ry
     estimated scf accuracy    <       0.00029942 Ry

     iteration # 31     ecut=    50.00 Ry     beta= 0.30
     Davidson diagonalization with overlap
     c_bands:  1 eigenvalues not converged
     c_bands:  1 eigenvalues not converged
     ethr =  8.32E-07,  avg # of iterations =  2.1

     total cpu time spent up to now is      285.1 secs

     total energy              =    -339.03173929 Ry
     estimated scf accuracy    <       0.00060811 Ry

     iteration # 32     ecut=    50.00 Ry     beta= 0.30
     Davidson diagonalization with overlap
     ethr =  8.32E-07,  avg # of iterations =  1.2

     total cpu time spent up to now is      291.2 secs

     total energy              =    -339.03173957 Ry
     estimated scf accuracy    <       0.00062401 Ry

     iteration # 33     ecut=    50.00 Ry     beta= 0.30
     Davidson diagonalization with overlap
     ethr =  8.32E-07,  avg # of iterations =  1.1

     total cpu time spent up to now is      297.2 secs

     total energy              =    -339.03174820 Ry
     estimated scf accuracy    <       0.00062590 Ry

     iteration # 34     ecut=    50.00 Ry     beta= 0.30
     Davidson diagonalization with overlap
     ethr =  8.32E-07,  avg # of iterations =  1.2

     total cpu time spent up to now is      303.2 secs

     total energy              =    -339.03179540 Ry
     estimated scf accuracy    <       0.00066423 Ry

     iteration # 35     ecut=    50.00 Ry     beta= 0.30
     Davidson diagonalization with overlap
     ethr =  8.32E-07,  avg # of iterations =  1.7

     total cpu time spent up to now is      309.5 secs

     total energy              =    -339.03194282 Ry
     estimated scf accuracy    <       0.00082548 Ry

     iteration # 36     ecut=    50.00 Ry     beta= 0.30
     Davidson diagonalization with overlap
     c_bands:  1 eigenvalues not converged
     c_bands:  1 eigenvalues not converged
     ethr =  8.32E-07,  avg # of iterations =  9.4

     total cpu time spent up to now is      319.8 secs

     total energy              =    -339.03179405 Ry
     estimated scf accuracy    <       0.00660536 Ry

     iteration # 37     ecut=    50.00 Ry     beta= 0.30
     Davidson diagonalization with overlap
     c_bands:  1 eigenvalues not converged
     ethr =  8.32E-07,  avg # of iterations =  4.4

     total cpu time spent up to now is      327.1 secs

     total energy              =    -339.03185095 Ry
     estimated scf accuracy    <       0.00439623 Ry

     iteration # 38     ecut=    50.00 Ry     beta= 0.30
     Davidson diagonalization with overlap
     ethr =  8.32E-07,  avg # of iterations =  1.8

     total cpu time spent up to now is      333.5 secs

     total energy              =    -339.03028531 Ry
     estimated scf accuracy    <       0.00424710 Ry

     iteration # 39     ecut=    50.00 Ry     beta= 0.30
     Davidson diagonalization with overlap
     c_bands:  2 eigenvalues not converged
     c_bands:  2 eigenvalues not converged
     c_bands:  1 eigenvalues not converged
     c_bands:  1 eigenvalues not converged
     c_bands:  2 eigenvalues not converged
     c_bands:  1 eigenvalues not converged
     c_bands:  2 eigenvalues not converged
     c_bands:  1 eigenvalues not converged
     c_bands:  2 eigenvalues not converged
     c_bands:  2 eigenvalues not converged
     c_bands:  2 eigenvalues not converged
     c_bands:  2 eigenvalues not converged
     c_bands:  1 eigenvalues not converged
     c_bands:  2 eigenvalues not converged
     c_bands:  2 eigenvalues not converged
     c_bands:  1 eigenvalues not converged
     c_bands:  1 eigenvalues not converged
     c_bands:  2 eigenvalues not converged
     c_bands:  1 eigenvalues not converged
     c_bands:  2 eigenvalues not converged
     c_bands:  2 eigenvalues not converged
     c_bands:  2 eigenvalues not converged
     c_bands:  1 eigenvalues not converged
     c_bands:  2 eigenvalues not converged
     c_bands:  2 eigenvalues not converged
     c_bands:  2 eigenvalues not converged
     c_bands:  1 eigenvalues not converged
     c_bands:  1 eigenvalues not converged
     c_bands:  2 eigenvalues not converged
     ethr =  8.32E-07,  avg # of iterations = 15.2

     total cpu time spent up to now is      348.9 secs

     total energy              =    -339.03246754 Ry
     estimated scf accuracy    <       0.01349637 Ry

     iteration # 40     ecut=    50.00 Ry     beta= 0.30
     Davidson diagonalization with overlap
     c_bands:  1 eigenvalues not converged
     c_bands:  1 eigenvalues not converged
     ethr =  8.32E-07,  avg # of iterations =  5.5

     total cpu time spent up to now is      356.5 secs

     total energy              =    -339.03265554 Ry
     estimated scf accuracy    <       0.01491045 Ry

     iteration # 41     ecut=    50.00 Ry     beta= 0.30
     Davidson diagonalization with overlap
     ethr =  8.32E-07,  avg # of iterations =  1.1

     total cpu time spent up to now is      362.6 secs

     total energy              =    -339.02980018 Ry
     estimated scf accuracy    <       0.01452046 Ry

     iteration # 42     ecut=    50.00 Ry     beta= 0.30
     Davidson diagonalization with overlap
     c_bands:  2 eigenvalues not converged
     c_bands:  1 eigenvalues not converged
     c_bands:  2 eigenvalues not converged
     c_bands:  2 eigenvalues not converged
     c_bands:  2 eigenvalues not converged
     c_bands:  2 eigenvalues not converged
     c_bands:  2 eigenvalues not converged
     c_bands:  1 eigenvalues not converged
     c_bands:  1 eigenvalues not converged
     c_bands:  1 eigenvalues not converged
     c_bands:  1 eigenvalues not converged
     c_bands:  2 eigenvalues not converged
     c_bands:  2 eigenvalues not converged
     c_bands:  2 eigenvalues not converged
     c_bands:  2 eigenvalues not converged
     c_bands:  2 eigenvalues not converged
     c_bands:  2 eigenvalues not converged
     c_bands:  2 eigenvalues not converged
     c_bands:  2 eigenvalues not converged
     c_bands:  2 eigenvalues not converged
     c_bands:  2 eigenvalues not converged
     c_bands:  2 eigenvalues not converged
     c_bands:  2 eigenvalues not converged
     c_bands:  1 eigenvalues not converged
     c_bands:  1 eigenvalues not converged
     c_bands:  1 eigenvalues not converged
     c_bands:  1 eigenvalues not converged
     c_bands:  2 eigenvalues not converged
     c_bands:  1 eigenvalues not converged
     c_bands:  2 eigenvalues not converged
     c_bands:  1 eigenvalues not converged
     c_bands:  2 eigenvalues not converged
     c_bands:  1 eigenvalues not converged
     c_bands:  2 eigenvalues not converged
     c_bands:  2 eigenvalues not converged
     c_bands:  2 eigenvalues not converged
     c_bands:  1 eigenvalues not converged
     c_bands:  1 eigenvalues not converged
     ethr =  8.32E-07,  avg # of iterations = 15.2

     total cpu time spent up to now is      377.6 secs

     total energy              =    -339.03177619 Ry
     estimated scf accuracy    <       0.00087569 Ry

     iteration # 43     ecut=    50.00 Ry     beta= 0.30
     Davidson diagonalization with overlap
     c_bands:  1 eigenvalues not converged
     c_bands:  1 eigenvalues not converged
     c_bands:  1 eigenvalues not converged
     c_bands:  1 eigenvalues not converged
     ethr =  8.32E-07,  avg # of iterations =  7.7

     total cpu time spent up to now is      386.3 secs

     total energy              =    -339.03220671 Ry
     estimated scf accuracy    <       0.00422202 Ry

     iteration # 44     ecut=    50.00 Ry     beta= 0.30
     Davidson diagonalization with overlap
     c_bands:  1 eigenvalues not converged
     c_bands:  1 eigenvalues not converged
     ethr =  8.32E-07,  avg # of iterations =  3.8

     total cpu time spent up to now is      393.3 secs

     total energy              =    -339.03203129 Ry
     estimated scf accuracy    <       0.00636118 Ry

     iteration # 45     ecut=    50.00 Ry     beta= 0.30
     Davidson diagonalization with overlap
     ethr =  8.32E-07,  avg # of iterations =  1.1

     total cpu time spent up to now is      399.2 secs

     total energy              =    -339.03158541 Ry
     estimated scf accuracy    <       0.00588184 Ry

     iteration # 46     ecut=    50.00 Ry     beta= 0.30
     Davidson diagonalization with overlap
     ethr =  8.32E-07,  avg # of iterations =  7.7

     total cpu time spent up to now is      408.0 secs

     total energy              =    -339.03180794 Ry
     estimated scf accuracy    <       0.00157512 Ry

     iteration # 47     ecut=    50.00 Ry     beta= 0.30
     Davidson diagonalization with overlap
     ethr =  8.32E-07,  avg # of iterations =  1.2

     total cpu time spent up to now is      413.9 secs

     total energy              =    -339.03155750 Ry
     estimated scf accuracy    <       0.00174175 Ry

     iteration # 48     ecut=    50.00 Ry     beta= 0.30
     Davidson diagonalization with overlap
     ethr =  8.32E-07,  avg # of iterations =  2.1

     total cpu time spent up to now is      420.3 secs

     total energy              =    -339.03149688 Ry
     estimated scf accuracy    <       0.00112621 Ry

     iteration # 49     ecut=    50.00 Ry     beta= 0.30
     Davidson diagonalization with overlap
     ethr =  8.32E-07,  avg # of iterations =  8.9

     total cpu time spent up to now is      430.2 secs

     total energy              =    -339.03169721 Ry
     estimated scf accuracy    <       0.00063997 Ry

     iteration # 50     ecut=    50.00 Ry     beta= 0.30
     Davidson diagonalization with overlap
     ethr =  8.32E-07,  avg # of iterations =  4.0

     total cpu time spent up to now is      437.3 secs

     total energy              =    -339.03191021 Ry
     estimated scf accuracy    <       0.00123048 Ry

     iteration # 51     ecut=    50.00 Ry     beta= 0.30
     Davidson diagonalization with overlap
     c_bands:  1 eigenvalues not converged
     ethr =  8.32E-07,  avg # of iterations =  8.4

     total cpu time spent up to now is      446.5 secs

     total energy              =    -339.03216937 Ry
     estimated scf accuracy    <       0.00536815 Ry

     iteration # 52     ecut=    50.00 Ry     beta= 0.30
     Davidson diagonalization with overlap
     c_bands:  1 eigenvalues not converged
     ethr =  8.32E-07,  avg # of iterations =  2.1

     total cpu time spent up to now is      452.8 secs

     total energy              =    -339.03283795 Ry
     estimated scf accuracy    <       0.00607520 Ry

     iteration # 53     ecut=    50.00 Ry     beta= 0.30
     Davidson diagonalization with overlap
     c_bands:  1 eigenvalues not converged
     c_bands:  1 eigenvalues not converged
     c_bands:  1 eigenvalues not converged
     ethr =  8.32E-07,  avg # of iterations =  9.4

     total cpu time spent up to now is      462.7 secs

     total energy              =    -339.03183685 Ry
     estimated scf accuracy    <       0.01709610 Ry

     iteration # 54     ecut=    50.00 Ry     beta= 0.30
     Davidson diagonalization with overlap
     ethr =  8.32E-07,  avg # of iterations =  8.7

     total cpu time spent up to now is      472.5 secs

     total energy              =    -339.03107644 Ry
     estimated scf accuracy    <       0.00597677 Ry

     iteration # 55     ecut=    50.00 Ry     beta= 0.30
     Davidson diagonalization with overlap
     c_bands:  1 eigenvalues not converged
     c_bands:  1 eigenvalues not converged
     c_bands:  1 eigenvalues not converged
     c_bands:  2 eigenvalues not converged
     c_bands:  1 eigenvalues not converged
     c_bands:  1 eigenvalues not converged
     c_bands:  1 eigenvalues not converged
     c_bands:  1 eigenvalues not converged
     c_bands:  1 eigenvalues not converged
     c_bands:  1 eigenvalues not converged
     c_bands:  1 eigenvalues not converged
     ethr =  8.32E-07,  avg # of iterations =  9.4

     total cpu time spent up to now is      483.5 secs

     total energy              =    -339.03165248 Ry
     estimated scf accuracy    <       0.00026218 Ry

     iteration # 56     ecut=    50.00 Ry     beta= 0.30
     Davidson diagonalization with overlap
     c_bands:  1 eigenvalues not converged
     c_bands:  1 eigenvalues not converged
     c_bands:  1 eigenvalues not converged
     ethr =  7.28E-07,  avg # of iterations =  2.6

     total cpu time spent up to now is      489.8 secs

     total energy              =    -339.03172830 Ry
     estimated scf accuracy    <       0.00085914 Ry

     iteration # 57     ecut=    50.00 Ry     beta= 0.30
     Davidson diagonalization with overlap
     ethr =  7.28E-07,  avg # of iterations =  1.1

     total cpu time spent up to now is      495.7 secs

     total energy              =    -339.03171459 Ry
     estimated scf accuracy    <       0.00073033 Ry

     iteration # 58     ecut=    50.00 Ry     beta= 0.30
     Davidson diagonalization with overlap
     ethr =  7.28E-07,  avg # of iterations =  1.3

     total cpu time spent up to now is      501.7 secs

     total energy              =    -339.03177116 Ry
     estimated scf accuracy    <       0.00068399 Ry

     iteration # 59     ecut=    50.00 Ry     beta= 0.30
     Davidson diagonalization with overlap
     ethr =  7.28E-07,  avg # of iterations =  1.0

     total cpu time spent up to now is      507.6 secs

     total energy              =    -339.03167802 Ry
     estimated scf accuracy    <       0.00080414 Ry

     iteration # 60     ecut=    50.00 Ry     beta= 0.30
     Davidson diagonalization with overlap
     ethr =  7.28E-07,  avg # of iterations =  1.8

     total cpu time spent up to now is      513.8 secs

     total energy              =    -339.03166416 Ry
     estimated scf accuracy    <       0.00057061 Ry

     iteration # 61     ecut=    50.00 Ry     beta= 0.30
     Davidson diagonalization with overlap
     ethr =  7.28E-07,  avg # of iterations =  2.0

     total cpu time spent up to now is      520.0 secs

     total energy              =    -339.03167682 Ry
     estimated scf accuracy    <       0.00051335 Ry

     iteration # 62     ecut=    50.00 Ry     beta= 0.30
     Davidson diagonalization with overlap
     c_bands:  1 eigenvalues not converged
     c_bands:  1 eigenvalues not converged
     ethr =  7.28E-07,  avg # of iterations =  8.8

     total cpu time spent up to now is      529.4 secs

     total energy              =    -339.03164306 Ry
     estimated scf accuracy    <       0.00209709 Ry

     iteration # 63     ecut=    50.00 Ry     beta= 0.30
     Davidson diagonalization with overlap
     ethr =  7.28E-07,  avg # of iterations =  6.0

     total cpu time spent up to now is      537.3 secs

     total energy              =    -339.03152494 Ry
     estimated scf accuracy    <       0.00090641 Ry

     iteration # 64     ecut=    50.00 Ry     beta= 0.30
     Davidson diagonalization with overlap
     c_bands:  1 eigenvalues not converged
     c_bands:  1 eigenvalues not converged
     c_bands:  1 eigenvalues not converged
     c_bands:  2 eigenvalues not converged
     c_bands:  1 eigenvalues not converged
     c_bands:  1 eigenvalues not converged
     c_bands:  1 eigenvalues not converged
     c_bands:  1 eigenvalues not converged
     c_bands:  1 eigenvalues not converged
     c_bands:  2 eigenvalues not converged
     c_bands:  1 eigenvalues not converged
     c_bands:  1 eigenvalues not converged
     c_bands:  2 eigenvalues not converged
     c_bands:  1 eigenvalues not converged
     c_bands:  1 eigenvalues not converged
     c_bands:  2 eigenvalues not converged
     c_bands:  1 eigenvalues not converged
     c_bands:  1 eigenvalues not converged
     c_bands:  1 eigenvalues not converged
     c_bands:  1 eigenvalues not converged
     c_bands:  1 eigenvalues not converged
     c_bands:  1 eigenvalues not converged
     c_bands:  2 eigenvalues not converged
     c_bands:  1 eigenvalues not converged
     c_bands:  1 eigenvalues not converged
     c_bands:  1 eigenvalues not converged
     c_bands:  2 eigenvalues not converged
     c_bands:  1 eigenvalues not converged
     c_bands:  1 eigenvalues not converged
     c_bands:  1 eigenvalues not converged
     c_bands:  2 eigenvalues not converged
     c_bands:  1 eigenvalues not converged
     ethr =  7.28E-07,  avg # of iterations = 14.3

     total cpu time spent up to now is      551.1 secs

     total energy              =    -339.02830818 Ry
     estimated scf accuracy    <       0.01363092 Ry

     iteration # 65     ecut=    50.00 Ry     beta= 0.30
     Davidson diagonalization with overlap
     c_bands:  2 eigenvalues not converged
     c_bands:  1 eigenvalues not converged
     c_bands:  2 eigenvalues not converged
     c_bands:  2 eigenvalues not converged
     c_bands:  2 eigenvalues not converged
     c_bands:  1 eigenvalues not converged
     c_bands:  1 eigenvalues not converged
     c_bands:  1 eigenvalues not converged
     c_bands:  1 eigenvalues not converged
     c_bands:  1 eigenvalues not converged
     c_bands:  2 eigenvalues not converged
     c_bands:  2 eigenvalues not converged
     c_bands:  2 eigenvalues not converged
     c_bands:  2 eigenvalues not converged
     c_bands:  2 eigenvalues not converged
     c_bands:  2 eigenvalues not converged
     c_bands:  2 eigenvalues not converged
     c_bands:  2 eigenvalues not converged
     c_bands:  3 eigenvalues not converged
     c_bands:  1 eigenvalues not converged
     c_bands:  2 eigenvalues not converged
     c_bands:  2 eigenvalues not converged
     c_bands:  2 eigenvalues not converged
     c_bands:  3 eigenvalues not converged
     c_bands:  2 eigenvalues not converged
     c_bands:  1 eigenvalues not converged
     c_bands:  3 eigenvalues not converged
     c_bands:  2 eigenvalues not converged
     c_bands:  1 eigenvalues not converged
     c_bands:  2 eigenvalues not converged
     c_bands:  2 eigenvalues not converged
     c_bands:  1 eigenvalues not converged
     c_bands:  2 eigenvalues not converged
     c_bands:  2 eigenvalues not converged
     c_bands:  1 eigenvalues not converged
     c_bands:  2 eigenvalues not converged
     c_bands:  1 eigenvalues not converged
     c_bands:  2 eigenvalues not converged
     c_bands:  2 eigenvalues not converged
     c_bands:  2 eigenvalues not converged
     c_bands:  1 eigenvalues not converged
     c_bands:  1 eigenvalues not converged
     c_bands:  2 eigenvalues not converged
     c_bands:  2 eigenvalues not converged
     c_bands:  2 eigenvalues not converged
     c_bands:  2 eigenvalues not converged
     ethr =  7.28E-07,  avg # of iterations = 17.7

     total cpu time spent up to now is      570.9 secs

     total energy              =    -339.03128554 Ry
     estimated scf accuracy    <       0.01916543 Ry

     iteration # 66     ecut=    50.00 Ry     beta= 0.30
     Davidson diagonalization with overlap
     c_bands:  1 eigenvalues not converged
     c_bands:  2 eigenvalues not converged
     c_bands:  1 eigenvalues not converged
     c_bands:  1 eigenvalues not converged
     c_bands:  1 eigenvalues not converged
     ethr =  7.28E-07,  avg # of iterations = 10.1

     total cpu time spent up to now is      582.3 secs

     total energy              =    -339.03152342 Ry
     estimated scf accuracy    <       0.00369598 Ry

     iteration # 67     ecut=    50.00 Ry     beta= 0.30
     Davidson diagonalization with overlap
     c_bands:  1 eigenvalues not converged
     ethr =  7.28E-07,  avg # of iterations =  7.6

     total cpu time spent up to now is      588.8 secs

     total energy              =    -339.03160428 Ry
     estimated scf accuracy    <       0.00091952 Ry

     iteration # 68     ecut=    50.00 Ry     beta= 0.30
     Davidson diagonalization with overlap
     ethr =  7.28E-07,  avg # of iterations =  3.0

     total cpu time spent up to now is      593.7 secs

     total energy              =    -339.03149920 Ry
     estimated scf accuracy    <       0.00060483 Ry

     iteration # 69     ecut=    50.00 Ry     beta= 0.30
     Davidson diagonalization with overlap
     c_bands:  1 eigenvalues not converged
     ethr =  7.28E-07,  avg # of iterations =  8.4

     total cpu time spent up to now is      600.3 secs

     total energy              =    -339.03163256 Ry
     estimated scf accuracy    <       0.00014034 Ry

     iteration # 70     ecut=    50.00 Ry     beta= 0.30
     Davidson diagonalization with overlap
     c_bands:  1 eigenvalues not converged
     ethr =  3.90E-07,  avg # of iterations =  2.5

     total cpu time spent up to now is      605.0 secs

     total energy              =    -339.03161985 Ry
     estimated scf accuracy    <       0.00014446 Ry

     iteration # 71     ecut=    50.00 Ry     beta= 0.30
     Davidson diagonalization with overlap
     ethr =  3.90E-07,  avg # of iterations =  1.6

     total cpu time spent up to now is      609.5 secs

     total energy              =    -339.03161621 Ry
     estimated scf accuracy    <       0.00008773 Ry

     iteration # 72     ecut=    50.00 Ry     beta= 0.30
     Davidson diagonalization with overlap
     ethr =  2.44E-07,  avg # of iterations =  1.5

     total cpu time spent up to now is      613.9 secs

     total energy              =    -339.03160712 Ry
     estimated scf accuracy    <       0.00006781 Ry

     iteration # 73     ecut=    50.00 Ry     beta= 0.30
     Davidson diagonalization with overlap
     ethr =  1.88E-07,  avg # of iterations =  4.8

     total cpu time spent up to now is      619.3 secs

     total energy              =    -339.03162081 Ry
     estimated scf accuracy    <       0.00000626 Ry

     iteration # 74     ecut=    50.00 Ry     beta= 0.30
     Davidson diagonalization with overlap
     c_bands:  1 eigenvalues not converged
     c_bands:  1 eigenvalues not converged
     c_bands:  1 eigenvalues not converged
     c_bands:  1 eigenvalues not converged
     ethr =  1.74E-08,  avg # of iterations =  8.4

     total cpu time spent up to now is      626.0 secs

     total energy              =    -339.03163269 Ry
     estimated scf accuracy    <       0.00002793 Ry

     iteration # 75     ecut=    50.00 Ry     beta= 0.30
     Davidson diagonalization with overlap
     c_bands:  1 eigenvalues not converged
     c_bands:  1 eigenvalues not converged
     c_bands:  1 eigenvalues not converged
     c_bands:  1 eigenvalues not converged
     ethr =  1.74E-08,  avg # of iterations =  1.7

     total cpu time spent up to now is      630.4 secs

     total energy              =    -339.03164039 Ry
     estimated scf accuracy    <       0.00005523 Ry

     iteration # 76     ecut=    50.00 Ry     beta= 0.30
     Davidson diagonalization with overlap
     c_bands:  1 eigenvalues not converged
     ethr =  1.74E-08,  avg # of iterations =  1.9

     total cpu time spent up to now is      634.9 secs

     total energy              =    -339.03163602 Ry
     estimated scf accuracy    <       0.00006747 Ry

     iteration # 77     ecut=    50.00 Ry     beta= 0.30
     Davidson diagonalization with overlap
     ethr =  1.74E-08,  avg # of iterations =  1.2

     total cpu time spent up to now is      639.2 secs

     total energy              =    -339.03163494 Ry
     estimated scf accuracy    <       0.00005642 Ry

     iteration # 78     ecut=    50.00 Ry     beta= 0.30
     Davidson diagonalization with overlap
     ethr =  1.74E-08,  avg # of iterations =  1.5

     total cpu time spent up to now is      643.6 secs

     total energy              =    -339.03164110 Ry
     estimated scf accuracy    <       0.00005169 Ry

     iteration # 79     ecut=    50.00 Ry     beta= 0.30
     Davidson diagonalization with overlap
     ethr =  1.74E-08,  avg # of iterations =  1.2

     total cpu time spent up to now is      647.9 secs

     total energy              =    -339.03164980 Ry
     estimated scf accuracy    <       0.00006519 Ry

     iteration # 80     ecut=    50.00 Ry     beta= 0.30
     Davidson diagonalization with overlap
     c_bands:  1 eigenvalues not converged
     c_bands:  1 eigenvalues not converged
     ethr =  1.74E-08,  avg # of iterations =  5.8

     total cpu time spent up to now is      653.3 secs

     total energy              =    -339.03163211 Ry
     estimated scf accuracy    <       0.00022573 Ry

     iteration # 81     ecut=    50.00 Ry     beta= 0.30
     Davidson diagonalization with overlap
     c_bands:  1 eigenvalues not converged
     ethr =  1.74E-08,  avg # of iterations =  5.7

     total cpu time spent up to now is      659.0 secs

     total energy              =    -339.03164837 Ry
     estimated scf accuracy    <       0.00006061 Ry

     iteration # 82     ecut=    50.00 Ry     beta= 0.30
     Davidson diagonalization with overlap
     c_bands:  1 eigenvalues not converged
     c_bands:  1 eigenvalues not converged
     ethr =  1.74E-08,  avg # of iterations =  3.6

     total cpu time spent up to now is      663.9 secs

     total energy              =    -339.03164008 Ry
     estimated scf accuracy    <       0.00013806 Ry

     iteration # 83     ecut=    50.00 Ry     beta= 0.30
     Davidson diagonalization with overlap
     ethr =  1.74E-08,  avg # of iterations =  1.4

     total cpu time spent up to now is      668.1 secs

     total energy              =    -339.03163141 Ry
     estimated scf accuracy    <       0.00011471 Ry

     iteration # 84     ecut=    50.00 Ry     beta= 0.30
     Davidson diagonalization with overlap
     c_bands:  1 eigenvalues not converged
     ethr =  1.74E-08,  avg # of iterations =  6.9

     total cpu time spent up to now is      674.1 secs

     total energy              =    -339.03163201 Ry
     estimated scf accuracy    <       0.00004906 Ry

     iteration # 85     ecut=    50.00 Ry     beta= 0.30
     Davidson diagonalization with overlap
     c_bands:  1 eigenvalues not converged
     ethr =  1.74E-08,  avg # of iterations =  1.9

     total cpu time spent up to now is      678.5 secs

     total energy              =    -339.03163387 Ry
     estimated scf accuracy    <       0.00002422 Ry

     iteration # 86     ecut=    50.00 Ry     beta= 0.30
     Davidson diagonalization with overlap
     ethr =  1.74E-08,  avg # of iterations =  4.4

     total cpu time spent up to now is      683.6 secs

     total energy              =    -339.03163175 Ry
     estimated scf accuracy    <       0.00003311 Ry

     iteration # 87     ecut=    50.00 Ry     beta= 0.30
     Davidson diagonalization with overlap
     ethr =  1.74E-08,  avg # of iterations =  1.5

     total cpu time spent up to now is      687.8 secs

     total energy              =    -339.03163341 Ry
     estimated scf accuracy    <       0.00001958 Ry

     iteration # 88     ecut=    50.00 Ry     beta= 0.30
     Davidson diagonalization with overlap
     ethr =  1.74E-08,  avg # of iterations =  1.1

     total cpu time spent up to now is      691.9 secs

     total energy              =    -339.03163251 Ry
     estimated scf accuracy    <       0.00002137 Ry

     iteration # 89     ecut=    50.00 Ry     beta= 0.30
     Davidson diagonalization with overlap
     ethr =  1.74E-08,  avg # of iterations =  1.2

     total cpu time spent up to now is      696.1 secs

     total energy              =    -339.03162782 Ry
     estimated scf accuracy    <       0.00001899 Ry

     iteration # 90     ecut=    50.00 Ry     beta= 0.30
     Davidson diagonalization with overlap
     c_bands:  1 eigenvalues not converged
     c_bands:  1 eigenvalues not converged
     ethr =  1.74E-08,  avg # of iterations =  9.6

     total cpu time spent up to now is      703.0 secs

     total energy              =    -339.03163259 Ry
     estimated scf accuracy    <       0.00001938 Ry

     iteration # 91     ecut=    50.00 Ry     beta= 0.30
     Davidson diagonalization with overlap
     ethr =  1.74E-08,  avg # of iterations =  1.3

     total cpu time spent up to now is      707.2 secs

     total energy              =    -339.03163191 Ry
     estimated scf accuracy    <       0.00001404 Ry

     iteration # 92     ecut=    50.00 Ry     beta= 0.30
     Davidson diagonalization with overlap
     ethr =  1.74E-08,  avg # of iterations =  1.3

     total cpu time spent up to now is      711.4 secs

     total energy              =    -339.03163145 Ry
     estimated scf accuracy    <       0.00001179 Ry

     iteration # 93     ecut=    50.00 Ry     beta= 0.30
     Davidson diagonalization with overlap
     ethr =  1.74E-08,  avg # of iterations =  1.7

     total cpu time spent up to now is      715.7 secs

     total energy              =    -339.03163027 Ry
     estimated scf accuracy    <       0.00000876 Ry

     iteration # 94     ecut=    50.00 Ry     beta= 0.30
     Davidson diagonalization with overlap
     ethr =  1.74E-08,  avg # of iterations =  6.5

     total cpu time spent up to now is      721.6 secs

     total energy              =    -339.03163247 Ry
     estimated scf accuracy    <       0.00000138 Ry

     iteration # 95     ecut=    50.00 Ry     beta= 0.30
     Davidson diagonalization with overlap
     c_bands:  1 eigenvalues not converged
     c_bands:  1 eigenvalues not converged
     ethr =  3.82E-09,  avg # of iterations =  6.9

     total cpu time spent up to now is      727.5 secs

     total energy              =    -339.03163328 Ry
     estimated scf accuracy    <       0.00000063 Ry

     iteration # 96     ecut=    50.00 Ry     beta= 0.30
     Davidson diagonalization with overlap
     c_bands:  1 eigenvalues not converged
     c_bands:  1 eigenvalues not converged
     c_bands:  2 eigenvalues not converged
     c_bands:  1 eigenvalues not converged
     c_bands:  1 eigenvalues not converged
     c_bands:  1 eigenvalues not converged
     c_bands:  1 eigenvalues not converged
     c_bands:  1 eigenvalues not converged
     c_bands:  1 eigenvalues not converged
     c_bands:  1 eigenvalues not converged
     c_bands:  1 eigenvalues not converged
     c_bands:  1 eigenvalues not converged
     ethr =  1.76E-09,  avg # of iterations =  9.6

     total cpu time spent up to now is      734.5 secs

     total energy              =    -339.03163408 Ry
     estimated scf accuracy    <       0.00000794 Ry

     iteration # 97     ecut=    50.00 Ry     beta= 0.30
     Davidson diagonalization with overlap
     c_bands:  1 eigenvalues not converged
     ethr =  1.76E-09,  avg # of iterations =  1.7

     total cpu time spent up to now is      738.8 secs

     total energy              =    -339.03163228 Ry
     estimated scf accuracy    <       0.00000861 Ry

     iteration # 98     ecut=    50.00 Ry     beta= 0.30
     Davidson diagonalization with overlap
     c_bands:  1 eigenvalues not converged
     c_bands:  1 eigenvalues not converged
     c_bands:  1 eigenvalues not converged
     c_bands:  1 eigenvalues not converged
     c_bands:  1 eigenvalues not converged
     c_bands:  1 eigenvalues not converged
     c_bands:  1 eigenvalues not converged
     c_bands:  1 eigenvalues not converged
     ethr =  1.76E-09,  avg # of iterations =  9.3

     total cpu time spent up to now is      746.1 secs

     total energy              =    -339.03163287 Ry
     estimated scf accuracy    <       0.00000222 Ry

     iteration # 99     ecut=    50.00 Ry     beta= 0.30
     Davidson diagonalization with overlap
     c_bands:  1 eigenvalues not converged
     c_bands:  1 eigenvalues not converged
     c_bands:  1 eigenvalues not converged
     c_bands:  1 eigenvalues not converged
     c_bands:  1 eigenvalues not converged
     c_bands:  1 eigenvalues not converged
     ethr =  1.76E-09,  avg # of iterations =  3.1

     total cpu time spent up to now is      750.8 secs

     total energy              =    -339.03163340 Ry
     estimated scf accuracy    <       0.00000233 Ry

     iteration #100     ecut=    50.00 Ry     beta= 0.30
     Davidson diagonalization with overlap
     ethr =  1.76E-09,  avg # of iterations =  3.9

     total cpu time spent up to now is      755.6 secs

     total energy              =    -339.03163321 Ry
     estimated scf accuracy    <       0.00000400 Ry

     End of self-consistent calculation

     convergence NOT achieved after 100 iterations: stopping

     Writing config to output data dir ./ZnO_ANN.save/

     init_run     :      4.40s CPU      4.51s WALL (       1 calls)
     electrons    :    740.14s CPU    750.65s WALL (       1 calls)

     Called by init_run:
     wfcinit      :      3.34s CPU      3.39s WALL (       1 calls)
     potinit      :      0.38s CPU      0.38s WALL (       1 calls)
     hinit0       :      0.58s CPU      0.59s WALL (       1 calls)

     Called by electrons:
     c_bands      :    643.73s CPU    652.60s WALL (     100 calls)
     sum_band     :     85.76s CPU     87.15s WALL (     100 calls)
     v_of_rho     :      2.11s CPU      2.27s WALL (     101 calls)
     newd         :      8.02s CPU      8.09s WALL (     101 calls)
     mix_rho      :      0.36s CPU      0.40s WALL (     100 calls)

     Called by c_bands:
     init_us_2    :      6.39s CPU      6.48s WALL (   22512 calls)
     init_us_2:cp :      6.32s CPU      6.42s WALL (   22512 calls)
     cegterg      :    621.61s CPU    630.23s WALL (   11200 calls)

     Called by *egterg:
     cdiaghg      :     66.20s CPU     66.73s WALL (   69366 calls)
     h_psi        :    354.01s CPU    360.24s WALL (   69478 calls)
     s_psi        :     42.00s CPU     42.30s WALL (   69478 calls)
     g_psi        :      1.37s CPU      1.38s WALL (   58166 calls)

     Called by h_psi:
     h_psi:calbec :     54.01s CPU     55.14s WALL (   69478 calls)
     vloc_psi     :    256.27s CPU    261.13s WALL (   69478 calls)
     add_vuspsi   :     42.47s CPU     42.73s WALL (   69478 calls)

     General routines
     calbec       :     73.60s CPU     75.11s WALL (   80678 calls)
     fft          :      2.08s CPU      2.30s WALL (    1313 calls)
     ffts         :      0.23s CPU      0.25s WALL (     201 calls)
     fftw         :    268.42s CPU    273.40s WALL ( 1252604 calls)
     interpolate  :      0.30s CPU      0.33s WALL (     101 calls)
     davcio       :      0.00s CPU      0.01s WALL (     130 calls)

     Parallel routines

     PWSCF        :  12m25.02s CPU  12m35.66s WALL


   This run was terminated on:  19:16: 3  23Jun2025            

=------------------------------------------------------------------------------=
   JOB DONE.
=------------------------------------------------------------------------------=
STOP 2
STOP 2
STOP 2
STOP 2
STOP 2
STOP 2
STOP 2
STOP 2
--------------------------------------------------------------------------
Primary job  terminated normally, but 1 process returned
a non-zero exit code. Per user-direction, the job has been aborted.
--------------------------------------------------------------------------
--------------------------------------------------------------------------
mpirun detected that one or more processes exited with non-zero status, thus causing
the job to be terminated. The first process to do so was:

  Process name: [[32449,1],7]
  Exit code:    2
--------------------------------------------------------------------------
