
     Program PWSCF v.7.2 starts on 23Jun2025 at 12:37:14 

     This program is part of the open-source Quantum ESPRESSO suite
     for quantum simulation of materials; please cite
         "P. Giannozzi et al., J. Phys.:Condens. Matter 21 395502 (2009);
         "P. Giannozzi et al., J. Phys.:Condens. Matter 29 465901 (2017);
         "P. Giannozzi et al., J. Chem. Phys. 152 154105 (2020);
          URL http://www.quantum-espresso.org", 
     in publications or presentations arising from this work. More details at
     http://www.quantum-espresso.org/quote

     Parallel version (MPI), running on     8 processors

     MPI processes distributed on     1 nodes
     91361 MiB available memory on the printing compute node when the environment starts

     Reading input from /home/jvc/QEspresso7.2/ZnO_DataBase/scfs_rnd025.in/scf-5.81-1.49-4.in

     Current dimensions of program PWSCF are:
     Max number of different atomic species (ntypx) = 10
     Max number of k-points (npk) =  40000
     Max angular momentum in pseudopotentials (lmaxx) =  4
     file Zn.upf: wavefunction(s)  3D renormalized

     R & G space division:  proc/nbgrp/npool/nimage =       8
     Subspace diagonalization in iterative solution of the eigenvalue problem:
     a serial algorithm will be used


     Parallelization info
     --------------------
     sticks:   dense  smooth     PW     G-vecs:    dense   smooth      PW
     Min         116      57     18                 4253     1500     259
     Max         118      59     19                 4256     1503     261
     Sum         931     463    151                34033    12009    2079

     Using Slab Decomposition



     bravais-lattice index     =            4
     lattice parameter (alat)  =       5.8081  a.u.
     unit-cell volume          =     252.0106 (a.u.)^3
     number of atoms/cell      =            4
     number of atomic types    =            2
     number of electrons       =        36.00
     number of Kohn-Sham states=           18
     kinetic-energy cutoff     =      50.0000  Ry
     charge density cutoff     =     400.0000  Ry
     scf convergence threshold =      1.0E-08
     mixing beta               =       0.3000
     number of iterations used =            8  plain     mixing
     Exchange-correlation= PBE
                           (   1   4   3   4   0   0   0)

     celldm(1)=   5.808092  celldm(2)=   0.000000  celldm(3)=   1.485210
     celldm(4)=   0.000000  celldm(5)=   0.000000  celldm(6)=   0.000000

     crystal axes: (cart. coord. in units of alat)
               a(1) = (   1.000000   0.000000   0.000000 )  
               a(2) = (  -0.500000   0.866025   0.000000 )  
               a(3) = (   0.000000   0.000000   1.485210 )  

     reciprocal axes: (cart. coord. in units 2 pi/alat)
               b(1) = (  1.000000  0.577350 -0.000000 )  
               b(2) = (  0.000000  1.154701  0.000000 )  
               b(3) = (  0.000000 -0.000000  0.673306 )  


     PseudoPot. # 1 for Zn read from file:
     ./pseudos/Zn.upf
     MD5 check sum: 7f56cabf9682ed8c977c2f7d0c5985c5
     Pseudo is Ultrasoft + core correction, Zval = 12.0
     Generated using &quot;atomic&quot; code by A. Dal Corso  v.6.2.2
     Using radial grid of 1201 points,  6 beta functions with: 
                l(1) =   0
                l(2) =   0
                l(3) =   1
                l(4) =   1
                l(5) =   2
                l(6) =   2
     Q(r) pseudized with 0 coefficients 


     PseudoPot. # 2 for O  read from file:
     ./pseudos/O.upf
     MD5 check sum: 91400c9766925bcf19f520983a725ff0
     Pseudo is Ultrasoft + core correction, Zval =  6.0
     Generated using &quot;atomic&quot; code by A. Dal Corso  v.6.3MaX
     Using radial grid of 1095 points,  4 beta functions with: 
                l(1) =   0
                l(2) =   0
                l(3) =   1
                l(4) =   1
     Q(r) pseudized with 0 coefficients 


     atomic species   valence    mass     pseudopotential
        Zn            12.00    63.38000     Zn( 1.00)
        O              6.00    15.99900     O ( 1.00)

     No symmetry found



   Cartesian axes

     site n.     atom                  positions (alat units)
         1           Zn  tau(   1) = (   0.5737708   0.2771180   0.8134407  )
         2           Zn  tau(   2) = (   0.1215378   0.3875860   0.2672088  )
         3           O   tau(   3) = (   0.5077091   0.0899652   1.2177229  )
         4           O   tau(   4) = (  -0.2623395   0.6889267   0.6904750  )

     number of k points=   112

     Number of k-points >= 100: set verbosity='high' to print them.

     Dense  grid:    34033 G-vectors     FFT dimensions: (  40,  40,  60)

     Smooth grid:    12009 G-vectors     FFT dimensions: (  27,  27,  40)

     Estimated max dynamical RAM per process >      24.32 MB

     Estimated total dynamical RAM >     194.60 MB

     Check: negative core charge=   -0.000002

     Initial potential from superposition of free atoms

     starting charge      35.9925, renormalised to      36.0000
     Starting wfcs are   26 randomized atomic wfcs

     total cpu time spent up to now is        3.4 secs

     Self-consistent Calculation

     iteration #  1     ecut=    50.00 Ry     beta= 0.30
     Davidson diagonalization with overlap
     ethr =  1.00E-02,  avg # of iterations =  2.4

     total cpu time spent up to now is        8.0 secs

     total energy              =    -360.34639036 Ry
     estimated scf accuracy    <       1.18541874 Ry

     iteration #  2     ecut=    50.00 Ry     beta= 0.30
     Davidson diagonalization with overlap
     ethr =  3.29E-03,  avg # of iterations =  2.2

     total cpu time spent up to now is       12.7 secs

     total energy              =    -360.44489219 Ry
     estimated scf accuracy    <       0.18068357 Ry

     iteration #  3     ecut=    50.00 Ry     beta= 0.30
     Davidson diagonalization with overlap
     c_bands:  1 eigenvalues not converged
     ethr =  5.02E-04,  avg # of iterations =  8.5

     total cpu time spent up to now is       22.8 secs

     total energy              =    -360.63122064 Ry
     estimated scf accuracy    <       0.39746466 Ry

     iteration #  4     ecut=    50.00 Ry     beta= 0.30
     Davidson diagonalization with overlap
     ethr =  5.02E-04,  avg # of iterations =  2.0

     total cpu time spent up to now is       27.0 secs

     total energy              =    -360.48056949 Ry
     estimated scf accuracy    <       0.19945505 Ry

     iteration #  5     ecut=    50.00 Ry     beta= 0.30
     Davidson diagonalization with overlap
     c_bands:  1 eigenvalues not converged
     ethr =  5.02E-04,  avg # of iterations =  9.1

     total cpu time spent up to now is       38.9 secs

     total energy              =    -360.62158740 Ry
     estimated scf accuracy    <       0.83829612 Ry

     iteration #  6     ecut=    50.00 Ry     beta= 0.30
     Davidson diagonalization with overlap
     ethr =  5.02E-04,  avg # of iterations =  4.2

     total cpu time spent up to now is       44.3 secs

     total energy              =    -360.58306521 Ry
     estimated scf accuracy    <       0.26857223 Ry

     iteration #  7     ecut=    50.00 Ry     beta= 0.30
     Davidson diagonalization with overlap
     ethr =  5.02E-04,  avg # of iterations =  4.0

     total cpu time spent up to now is       49.3 secs

     total energy              =    -360.60131110 Ry
     estimated scf accuracy    <       0.05012864 Ry

     iteration #  8     ecut=    50.00 Ry     beta= 0.30
     Davidson diagonalization with overlap
     c_bands:  1 eigenvalues not converged
     ethr =  1.39E-04,  avg # of iterations =  5.8

     total cpu time spent up to now is       56.5 secs

     total energy              =    -360.63314866 Ry
     estimated scf accuracy    <       0.00408961 Ry

     iteration #  9     ecut=    50.00 Ry     beta= 0.30
     Davidson diagonalization with overlap
     ethr =  1.14E-05,  avg # of iterations =  6.3

     total cpu time spent up to now is       62.6 secs

     total energy              =    -360.63502967 Ry
     estimated scf accuracy    <       0.00492392 Ry

     iteration # 10     ecut=    50.00 Ry     beta= 0.30
     Davidson diagonalization with overlap
     ethr =  1.14E-05,  avg # of iterations =  1.2

     total cpu time spent up to now is       66.4 secs

     total energy              =    -360.63239956 Ry
     estimated scf accuracy    <       0.00549219 Ry

     iteration # 11     ecut=    50.00 Ry     beta= 0.30
     Davidson diagonalization with overlap
     ethr =  1.14E-05,  avg # of iterations =  5.3

     total cpu time spent up to now is       72.3 secs

     total energy              =    -360.63360170 Ry
     estimated scf accuracy    <       0.00007979 Ry

     iteration # 12     ecut=    50.00 Ry     beta= 0.30
     Davidson diagonalization with overlap
     c_bands:  2 eigenvalues not converged
     c_bands:  1 eigenvalues not converged
     ethr =  2.22E-07,  avg # of iterations =  9.5

     total cpu time spent up to now is       83.7 secs

     total energy              =    -360.63369544 Ry
     estimated scf accuracy    <       0.00047582 Ry

     iteration # 13     ecut=    50.00 Ry     beta= 0.30
     Davidson diagonalization with overlap
     ethr =  2.22E-07,  avg # of iterations =  7.5

     total cpu time spent up to now is       91.6 secs

     total energy              =    -360.63374344 Ry
     estimated scf accuracy    <       0.00003278 Ry

     iteration # 14     ecut=    50.00 Ry     beta= 0.30
     Davidson diagonalization with overlap
     ethr =  9.10E-08,  avg # of iterations =  2.4

     total cpu time spent up to now is       95.9 secs

     total energy              =    -360.63374197 Ry
     estimated scf accuracy    <       0.00001281 Ry

     iteration # 15     ecut=    50.00 Ry     beta= 0.30
     Davidson diagonalization with overlap
     c_bands:  1 eigenvalues not converged
     ethr =  3.56E-08,  avg # of iterations =  5.8

     total cpu time spent up to now is      102.3 secs

     total energy              =    -360.63374740 Ry
     estimated scf accuracy    <       0.00000034 Ry

     iteration # 16     ecut=    50.00 Ry     beta= 0.30
     Davidson diagonalization with overlap
     c_bands:  3 eigenvalues not converged
     c_bands:  1 eigenvalues not converged
     ethr =  9.42E-10,  avg # of iterations = 10.8

     total cpu time spent up to now is      113.3 secs

     total energy              =    -360.63374854 Ry
     estimated scf accuracy    <       0.00000273 Ry

     iteration # 17     ecut=    50.00 Ry     beta= 0.30
     Davidson diagonalization with overlap
     ethr =  9.42E-10,  avg # of iterations =  2.7

     total cpu time spent up to now is      117.8 secs

     total energy              =    -360.63374752 Ry
     estimated scf accuracy    <       0.00000352 Ry

     iteration # 18     ecut=    50.00 Ry     beta= 0.30
     Davidson diagonalization with overlap
     ethr =  9.42E-10,  avg # of iterations =  6.5

     total cpu time spent up to now is      124.9 secs

     total energy              =    -360.63374732 Ry
     estimated scf accuracy    <       0.00000078 Ry

     iteration # 19     ecut=    50.00 Ry     beta= 0.30
     Davidson diagonalization with overlap
     ethr =  9.42E-10,  avg # of iterations =  7.7

     total cpu time spent up to now is      133.4 secs

     total energy              =    -360.63374759 Ry
     estimated scf accuracy    <       0.00000011 Ry

     iteration # 20     ecut=    50.00 Ry     beta= 0.30
     Davidson diagonalization with overlap
     ethr =  3.13E-10,  avg # of iterations =  2.2

     total cpu time spent up to now is      137.6 secs

     total energy              =    -360.63374756 Ry
     estimated scf accuracy    <       0.00000006 Ry

     iteration # 21     ecut=    50.00 Ry     beta= 0.30
     Davidson diagonalization with overlap
     c_bands:  1 eigenvalues not converged
     ethr =  1.64E-10,  avg # of iterations =  6.2

     total cpu time spent up to now is      145.5 secs

     total energy              =    -360.63374759 Ry
     estimated scf accuracy    <       0.00000004 Ry

     iteration # 22     ecut=    50.00 Ry     beta= 0.30
     Davidson diagonalization with overlap
     ethr =  1.16E-10,  avg # of iterations =  2.5

     total cpu time spent up to now is      150.1 secs

     End of self-consistent calculation

     Number of k-points >= 100: set verbosity='high' to print the bands.

     highest occupied level (ev):    12.7864

!    total energy              =    -360.63374759 Ry
     estimated scf accuracy    <          5.4E-09 Ry

     The total energy is the sum of the following terms:
     one-electron contribution =    -144.12063976 Ry
     hartree contribution      =     116.83451304 Ry
     xc contribution           =    -110.28234206 Ry
     ewald contribution        =    -223.06527880 Ry

     convergence has been achieved in  22 iterations

     Forces acting on atoms (cartesian axes, Ry/au):

     atom    1 type  1   force =    -0.07436982   -0.25227767   -0.53693575
     atom    2 type  1   force =    -0.01110834    0.00381876   -0.22751165
     atom    3 type  2   force =    -0.11460673   -0.42930406    1.21319657
     atom    4 type  2   force =     0.20008489    0.67776296   -0.44874917
     The non-local contrib.  to forces
     atom    1 type  1   force =    -0.03601969   -0.12828678   -1.04834165
     atom    2 type  1   force =    -0.00307527    0.00404744    0.21738084
     atom    3 type  2   force =     0.18784188    0.46563918    0.00652532
     atom    4 type  2   force =    -0.05374526   -0.62527919   -0.72184709
     The ionic contribution  to forces
     atom    1 type  1   force =     1.28338746   -1.94710208    2.94856642
     atom    2 type  1   force =    -0.52478156    0.53589137  -16.98502844
     atom    3 type  2   force =    -0.80651266   -5.53152983   16.12399671
     atom    4 type  2   force =     0.04790676    6.94274054   -2.08753470
     The local contribution  to forces
     atom    1 type  1   force =    -1.33013266    1.77899754   -2.53817847
     atom    2 type  1   force =     0.51853671   -0.53622611   16.52439611
     atom    3 type  2   force =     0.50522120    4.63837457  -14.91056744
     atom    4 type  2   force =     0.20592905   -5.64230206    2.35202936
     The core correction contribution to forces
     atom    1 type  1   force =     0.00840058    0.04411501    0.10078991
     atom    2 type  1   force =    -0.00177854    0.00010455    0.01575462
     atom    3 type  2   force =    -0.00115068   -0.00177696   -0.00664410
     atom    4 type  2   force =    -0.00001222    0.00259516    0.00849428
     The Hubbard contrib.    to forces
     atom    1 type  1   force =     0.00000000    0.00000000    0.00000000
     atom    2 type  1   force =     0.00000000    0.00000000    0.00000000
     atom    3 type  2   force =     0.00000000    0.00000000    0.00000000
     atom    4 type  2   force =     0.00000000    0.00000000    0.00000000
     The SCF correction term to forces
     atom    1 type  1   force =    -0.00000482    0.00000052    0.00024962
     atom    2 type  1   force =    -0.00000898    0.00000340    0.00000681
     atom    3 type  2   force =    -0.00000578   -0.00000912   -0.00009233
     atom    4 type  2   force =     0.00000725    0.00001041    0.00013057

     Total force =     1.667162     Total SCF correction =     0.000297

     Writing all to output data dir ./ZnO_ANN.save/

     init_run     :      2.91s CPU      2.99s WALL (       1 calls)
     electrons    :    144.01s CPU    146.66s WALL (       1 calls)
     forces       :      0.82s CPU      0.84s WALL (       1 calls)

     Called by init_run:
     wfcinit      :      2.12s CPU      2.17s WALL (       1 calls)
     potinit      :      0.22s CPU      0.22s WALL (       1 calls)
     hinit0       :      0.51s CPU      0.52s WALL (       1 calls)

     Called by electrons:
     c_bands      :    129.56s CPU    131.86s WALL (      22 calls)
     sum_band     :     13.14s CPU     13.45s WALL (      22 calls)
     v_of_rho     :      0.31s CPU      0.33s WALL (      23 calls)
     newd         :      0.98s CPU      1.00s WALL (      23 calls)
     mix_rho      :      0.04s CPU      0.05s WALL (      22 calls)

     Called by c_bands:
     init_us_2    :      0.78s CPU      0.79s WALL (    5152 calls)
     init_us_2:cp :      0.76s CPU      0.78s WALL (    5152 calls)
     cegterg      :    126.81s CPU    129.08s WALL (    2464 calls)

     Called by *egterg:
     cdiaghg      :     15.06s CPU     15.18s WALL (   15351 calls)
     h_psi        :     73.10s CPU     74.78s WALL (   15463 calls)
     s_psi        :      5.96s CPU      6.03s WALL (   15463 calls)
     g_psi        :      0.24s CPU      0.24s WALL (   12887 calls)

     Called by h_psi:
     h_psi:calbec :      9.53s CPU      9.86s WALL (   15463 calls)
     vloc_psi     :     57.35s CPU     58.64s WALL (   15463 calls)
     add_vuspsi   :      6.01s CPU      6.08s WALL (   15463 calls)

     General routines
     calbec       :     12.72s CPU     13.15s WALL (   18375 calls)
     fft          :      0.61s CPU      0.65s WALL (     308 calls)
     ffts         :      0.10s CPU      0.11s WALL (      45 calls)
     fftw         :     60.16s CPU     61.52s WALL (  348722 calls)
     interpolate  :      0.11s CPU      0.12s WALL (      23 calls)

     Parallel routines

     PWSCF        :   2m28.43s CPU   2m31.35s WALL


   This run was terminated on:  12:39:46  23Jun2025            

=------------------------------------------------------------------------------=
   JOB DONE.
=------------------------------------------------------------------------------=
Note: The following floating-point exceptions are signalling: IEEE_INVALID_FLAG
