
     Program PWSCF v.7.2 starts on 23Jun2025 at 18: 0:23 

     This program is part of the open-source Quantum ESPRESSO suite
     for quantum simulation of materials; please cite
         "P. Giannozzi et al., J. Phys.:Condens. Matter 21 395502 (2009);
         "P. Giannozzi et al., J. Phys.:Condens. Matter 29 465901 (2017);
         "P. Giannozzi et al., J. Chem. Phys. 152 154105 (2020);
          URL http://www.quantum-espresso.org", 
     in publications or presentations arising from this work. More details at
     http://www.quantum-espresso.org/quote

     Parallel version (MPI), running on     8 processors

     MPI processes distributed on     1 nodes
     90586 MiB available memory on the printing compute node when the environment starts

     Reading input from /home/jvc/QEspresso7.2/ZnO_DataBase/scfs_rnd025.in/scf-6.67-1.74-3.in

     Current dimensions of program PWSCF are:
     Max number of different atomic species (ntypx) = 10
     Max number of k-points (npk) =  40000
     Max angular momentum in pseudopotentials (lmaxx) =  4
     file Zn.upf: wavefunction(s)  3D renormalized

     R & G space division:  proc/nbgrp/npool/nimage =       8
     Subspace diagonalization in iterative solution of the eigenvalue problem:
     a serial algorithm will be used


     Parallelization info
     --------------------
     sticks:   dense  smooth     PW     G-vecs:    dense   smooth      PW
     Min         154      75     23                 7574     2671     437
     Max         155      78     24                 7579     2679     442
     Sum        1237     613    187                60615    21389    3515

     Using Slab Decomposition



     bravais-lattice index     =            4
     lattice parameter (alat)  =       6.6731  a.u.
     unit-cell volume          =     448.6860 (a.u.)^3
     number of atoms/cell      =            4
     number of atomic types    =            2
     number of electrons       =        36.00
     number of Kohn-Sham states=           18
     kinetic-energy cutoff     =      50.0000  Ry
     charge density cutoff     =     400.0000  Ry
     scf convergence threshold =      1.0E-08
     mixing beta               =       0.3000
     number of iterations used =            8  plain     mixing
     Exchange-correlation= PBE
                           (   1   4   3   4   0   0   0)

     celldm(1)=   6.673127  celldm(2)=   0.000000  celldm(3)=   1.743507
     celldm(4)=   0.000000  celldm(5)=   0.000000  celldm(6)=   0.000000

     crystal axes: (cart. coord. in units of alat)
               a(1) = (   1.000000   0.000000   0.000000 )  
               a(2) = (  -0.500000   0.866025   0.000000 )  
               a(3) = (   0.000000   0.000000   1.743507 )  

     reciprocal axes: (cart. coord. in units 2 pi/alat)
               b(1) = (  1.000000  0.577350 -0.000000 )  
               b(2) = (  0.000000  1.154701  0.000000 )  
               b(3) = (  0.000000 -0.000000  0.573557 )  


     PseudoPot. # 1 for Zn read from file:
     ./pseudos/Zn.upf
     MD5 check sum: 7f56cabf9682ed8c977c2f7d0c5985c5
     Pseudo is Ultrasoft + core correction, Zval = 12.0
     Generated using &quot;atomic&quot; code by A. Dal Corso  v.6.2.2
     Using radial grid of 1201 points,  6 beta functions with: 
                l(1) =   0
                l(2) =   0
                l(3) =   1
                l(4) =   1
                l(5) =   2
                l(6) =   2
     Q(r) pseudized with 0 coefficients 


     PseudoPot. # 2 for O  read from file:
     ./pseudos/O.upf
     MD5 check sum: 91400c9766925bcf19f520983a725ff0
     Pseudo is Ultrasoft + core correction, Zval =  6.0
     Generated using &quot;atomic&quot; code by A. Dal Corso  v.6.3MaX
     Using radial grid of 1095 points,  4 beta functions with: 
                l(1) =   0
                l(2) =   0
                l(3) =   1
                l(4) =   1
     Q(r) pseudized with 0 coefficients 


     atomic species   valence    mass     pseudopotential
        Zn            12.00    63.38000     Zn( 1.00)
        O              6.00    15.99900     O ( 1.00)

     No symmetry found



   Cartesian axes

     site n.     atom                  positions (alat units)
         1           Zn  tau(   1) = (   0.5987122   0.2670626   0.8298174  )
         2           Zn  tau(   2) = (   0.1597447   0.5580858   0.1611649  )
         3           O   tau(   3) = (   0.3875034   0.2231110   1.8519306  )
         4           O   tau(   4) = (  -0.0425321   0.6534972   0.6712001  )

     number of k points=   112

     Number of k-points >= 100: set verbosity='high' to print them.

     Dense  grid:    60615 G-vectors     FFT dimensions: (  45,  45,  75)

     Smooth grid:    21389 G-vectors     FFT dimensions: (  32,  32,  54)

     Estimated max dynamical RAM per process >      40.62 MB

     Estimated total dynamical RAM >     324.93 MB

     Check: negative core charge=   -0.000002

     Initial potential from superposition of free atoms

     starting charge      35.9925, renormalised to      36.0000
     Starting wfcs are   26 randomized atomic wfcs

     total cpu time spent up to now is        4.6 secs

     Self-consistent Calculation

     iteration #  1     ecut=    50.00 Ry     beta= 0.30
     Davidson diagonalization with overlap
     ethr =  1.00E-02,  avg # of iterations =  2.0

     total cpu time spent up to now is       10.9 secs

     total energy              =    -360.98402798 Ry
     estimated scf accuracy    <       1.22792417 Ry

     iteration #  2     ecut=    50.00 Ry     beta= 0.30
     Davidson diagonalization with overlap
     ethr =  3.41E-03,  avg # of iterations =  2.1

     total cpu time spent up to now is       17.8 secs

     total energy              =    -361.11304566 Ry
     estimated scf accuracy    <       0.15523801 Ry

     iteration #  3     ecut=    50.00 Ry     beta= 0.30
     Davidson diagonalization with overlap
     ethr =  4.31E-04,  avg # of iterations =  8.8

     total cpu time spent up to now is       32.3 secs

     total energy              =    -361.21626653 Ry
     estimated scf accuracy    <       0.36112637 Ry

     iteration #  4     ecut=    50.00 Ry     beta= 0.30
     Davidson diagonalization with overlap
     ethr =  4.31E-04,  avg # of iterations =  4.3

     total cpu time spent up to now is       39.9 secs

     total energy              =    -361.18836154 Ry
     estimated scf accuracy    <       0.07274009 Ry

     iteration #  5     ecut=    50.00 Ry     beta= 0.30
     Davidson diagonalization with overlap
     ethr =  2.02E-04,  avg # of iterations =  9.7

     total cpu time spent up to now is       58.9 secs

     total energy              =    -361.30411687 Ry
     estimated scf accuracy    <       0.59127121 Ry

     iteration #  6     ecut=    50.00 Ry     beta= 0.30
     Davidson diagonalization with overlap
     ethr =  2.02E-04,  avg # of iterations =  2.0

     total cpu time spent up to now is       65.4 secs

     total energy              =    -361.16070771 Ry
     estimated scf accuracy    <       0.39318650 Ry

     iteration #  7     ecut=    50.00 Ry     beta= 0.30
     Davidson diagonalization with overlap
     ethr =  2.02E-04,  avg # of iterations =  7.5

     total cpu time spent up to now is       78.5 secs

     total energy              =    -361.25482084 Ry
     estimated scf accuracy    <       0.00326090 Ry

     iteration #  8     ecut=    50.00 Ry     beta= 0.30
     Davidson diagonalization with overlap
     ethr =  9.06E-06,  avg # of iterations =  6.5

     total cpu time spent up to now is       88.2 secs

     total energy              =    -361.25662058 Ry
     estimated scf accuracy    <       0.00032002 Ry

     iteration #  9     ecut=    50.00 Ry     beta= 0.30
     Davidson diagonalization with overlap
     ethr =  8.89E-07,  avg # of iterations =  6.0

     total cpu time spent up to now is       97.8 secs

     total energy              =    -361.25674478 Ry
     estimated scf accuracy    <       0.00006062 Ry

     iteration # 10     ecut=    50.00 Ry     beta= 0.30
     Davidson diagonalization with overlap
     ethr =  1.68E-07,  avg # of iterations =  5.3

     total cpu time spent up to now is      107.7 secs

     total energy              =    -361.25677251 Ry
     estimated scf accuracy    <       0.00001056 Ry

     iteration # 11     ecut=    50.00 Ry     beta= 0.30
     Davidson diagonalization with overlap
     c_bands:  1 eigenvalues not converged
     ethr =  2.93E-08,  avg # of iterations = 12.9

     total cpu time spent up to now is      128.7 secs

     total energy              =    -361.25674790 Ry
     estimated scf accuracy    <       0.00028698 Ry

     iteration # 12     ecut=    50.00 Ry     beta= 0.30
     Davidson diagonalization with overlap
     c_bands:  1 eigenvalues not converged
     ethr =  2.93E-08,  avg # of iterations =  9.3

     total cpu time spent up to now is      144.9 secs

     total energy              =    -361.25675981 Ry
     estimated scf accuracy    <       0.00002475 Ry

     iteration # 13     ecut=    50.00 Ry     beta= 0.30
     Davidson diagonalization with overlap
     ethr =  2.93E-08,  avg # of iterations =  8.6

     total cpu time spent up to now is      158.4 secs

     total energy              =    -361.25677352 Ry
     estimated scf accuracy    <       0.00002126 Ry

     iteration # 14     ecut=    50.00 Ry     beta= 0.30
     Davidson diagonalization with overlap
     ethr =  2.93E-08,  avg # of iterations =  1.0

     total cpu time spent up to now is      163.9 secs

     total energy              =    -361.25676903 Ry
     estimated scf accuracy    <       0.00001797 Ry

     iteration # 15     ecut=    50.00 Ry     beta= 0.30
     Davidson diagonalization with overlap
     ethr =  2.93E-08,  avg # of iterations =  3.3

     total cpu time spent up to now is      170.5 secs

     total energy              =    -361.25676679 Ry
     estimated scf accuracy    <       0.00000560 Ry

     iteration # 16     ecut=    50.00 Ry     beta= 0.30
     Davidson diagonalization with overlap
     ethr =  1.56E-08,  avg # of iterations =  7.4

     total cpu time spent up to now is      181.9 secs

     total energy              =    -361.25676984 Ry
     estimated scf accuracy    <       0.00000596 Ry

     iteration # 17     ecut=    50.00 Ry     beta= 0.30
     Davidson diagonalization with overlap
     ethr =  1.56E-08,  avg # of iterations =  1.5

     total cpu time spent up to now is      187.7 secs

     total energy              =    -361.25676895 Ry
     estimated scf accuracy    <       0.00000268 Ry

     iteration # 18     ecut=    50.00 Ry     beta= 0.30
     Davidson diagonalization with overlap
     ethr =  7.44E-09,  avg # of iterations =  5.9

     total cpu time spent up to now is      197.1 secs

     total energy              =    -361.25677026 Ry
     estimated scf accuracy    <       0.00000058 Ry

     iteration # 19     ecut=    50.00 Ry     beta= 0.30
     Davidson diagonalization with overlap
     ethr =  1.61E-09,  avg # of iterations =  3.1

     total cpu time spent up to now is      203.8 secs

     total energy              =    -361.25677010 Ry
     estimated scf accuracy    <       0.00000076 Ry

     iteration # 20     ecut=    50.00 Ry     beta= 0.30
     Davidson diagonalization with overlap
     ethr =  1.61E-09,  avg # of iterations =  1.9

     total cpu time spent up to now is      209.9 secs

     total energy              =    -361.25677003 Ry
     estimated scf accuracy    <       0.00000032 Ry

     iteration # 21     ecut=    50.00 Ry     beta= 0.30
     Davidson diagonalization with overlap
     ethr =  8.95E-10,  avg # of iterations =  5.7

     total cpu time spent up to now is      218.2 secs

     End of self-consistent calculation

     Number of k-points >= 100: set verbosity='high' to print the bands.

     highest occupied level (ev):     4.1674

!    total energy              =    -361.25677013 Ry
     estimated scf accuracy    <          1.5E-09 Ry

     The total energy is the sum of the following terms:
     one-electron contribution =    -251.55744625 Ry
     hartree contribution      =     161.86559955 Ry
     xc contribution           =    -109.42384235 Ry
     ewald contribution        =    -162.14108107 Ry

     convergence has been achieved in  21 iterations

     Forces acting on atoms (cartesian axes, Ry/au):

     atom    1 type  1   force =     0.00602163    0.03155828   -0.03347874
     atom    2 type  1   force =    -0.42459500    0.62786317    0.05465945
     atom    3 type  2   force =     0.43657067   -0.61600580   -0.12837997
     atom    4 type  2   force =    -0.01799730   -0.04341566    0.10719926
     The non-local contrib.  to forces
     atom    1 type  1   force =    -0.10858661    0.22050314    0.43452074
     atom    2 type  1   force =    -0.50886996    0.84165264   -0.02536944
     atom    3 type  2   force =    -0.30126203    0.49325581    0.10636322
     atom    4 type  2   force =    -0.01918297    0.04217394    0.51675326
     The ionic contribution  to forces
     atom    1 type  1   force =    -0.33024784    1.77000930   21.77304652
     atom    2 type  1   force =    -4.46139669    7.71239928  -17.63559941
     atom    3 type  2   force =     5.67241876   -8.35532792  -11.66833886
     atom    4 type  2   force =    -0.88077423   -1.12708066    7.53089175
     The local contribution  to forces
     atom    1 type  1   force =     0.43582433   -1.94284413  -22.21020021
     atom    2 type  1   force =     4.48090704   -7.82461989   17.71076690
     atom    3 type  2   force =    -4.93478008    7.24690330   11.43341332
     atom    4 type  2   force =     0.88145850    1.04157505   -7.93458834
     The core correction contribution to forces
     atom    1 type  1   force =     0.00902776   -0.01610439   -0.03074063
     atom    2 type  1   force =     0.06475459   -0.10155897    0.00480050
     atom    3 type  2   force =     0.00020533   -0.00084703    0.00012543
     atom    4 type  2   force =     0.00050232   -0.00009323   -0.00586718
     The Hubbard contrib.    to forces
     atom    1 type  1   force =     0.00000000    0.00000000    0.00000000
     atom    2 type  1   force =     0.00000000    0.00000000    0.00000000
     atom    3 type  2   force =     0.00000000    0.00000000    0.00000000
     atom    4 type  2   force =     0.00000000    0.00000000    0.00000000
     The SCF correction term to forces
     atom    1 type  1   force =     0.00000957   -0.00001582   -0.00013219
     atom    2 type  1   force =     0.00001560   -0.00002008    0.00003387
     atom    3 type  2   force =    -0.00000573   -0.00000014    0.00002989
     atom    4 type  2   force =     0.00000466   -0.00000094   -0.00001726

     Total force =     1.086219     Total SCF correction =     0.000144

     Writing all to output data dir ./ZnO_ANN.save/

     init_run     :      4.00s CPU      4.10s WALL (       1 calls)
     electrons    :    210.07s CPU    213.68s WALL (       1 calls)
     forces       :      1.41s CPU      1.42s WALL (       1 calls)

     Called by init_run:
     wfcinit      :      3.04s CPU      3.10s WALL (       1 calls)
     potinit      :      0.34s CPU      0.35s WALL (       1 calls)
     hinit0       :      0.50s CPU      0.51s WALL (       1 calls)

     Called by electrons:
     c_bands      :    189.56s CPU    192.74s WALL (      21 calls)
     sum_band     :     18.30s CPU     18.67s WALL (      21 calls)
     v_of_rho     :      0.49s CPU      0.52s WALL (      22 calls)
     newd         :      1.70s CPU      1.73s WALL (      22 calls)
     mix_rho      :      0.07s CPU      0.08s WALL (      21 calls)

     Called by c_bands:
     init_us_2    :      1.55s CPU      1.57s WALL (    4928 calls)
     init_us_2:cp :      1.53s CPU      1.56s WALL (    4928 calls)
     cegterg      :    184.94s CPU    188.06s WALL (    2352 calls)

     Called by *egterg:
     cdiaghg      :     17.71s CPU     17.83s WALL (   15211 calls)
     h_psi        :    104.65s CPU    106.97s WALL (   15323 calls)
     s_psi        :     15.49s CPU     15.60s WALL (   15323 calls)
     g_psi        :      0.42s CPU      0.43s WALL (   12859 calls)

     Called by h_psi:
     h_psi:calbec :     16.06s CPU     16.56s WALL (   15323 calls)
     vloc_psi     :     72.78s CPU     74.52s WALL (   15323 calls)
     add_vuspsi   :     15.44s CPU     15.54s WALL (   15323 calls)

     General routines
     calbec       :     21.24s CPU     21.82s WALL (   18123 calls)
     fft          :      0.47s CPU      0.52s WALL (     295 calls)
     ffts         :      0.15s CPU      0.15s WALL (      43 calls)
     fftw         :     70.64s CPU     72.32s WALL (  345506 calls)
     interpolate  :      0.16s CPU      0.17s WALL (      22 calls)

     Parallel routines

     PWSCF        :   3m36.25s CPU   3m40.30s WALL


   This run was terminated on:  18: 4: 3  23Jun2025            

=------------------------------------------------------------------------------=
   JOB DONE.
=------------------------------------------------------------------------------=
Note: The following floating-point exceptions are signalling: IEEE_INVALID_FLAG
