
     Program PWSCF v.7.2 starts on 23Jun2025 at 12: 2:47 

     This program is part of the open-source Quantum ESPRESSO suite
     for quantum simulation of materials; please cite
         "P. Giannozzi et al., J. Phys.:Condens. Matter 21 395502 (2009);
         "P. Giannozzi et al., J. Phys.:Condens. Matter 29 465901 (2017);
         "P. Giannozzi et al., J. Chem. Phys. 152 154105 (2020);
          URL http://www.quantum-espresso.org", 
     in publications or presentations arising from this work. More details at
     http://www.quantum-espresso.org/quote

     Parallel version (MPI), running on     8 processors

     MPI processes distributed on     1 nodes
     91419 MiB available memory on the printing compute node when the environment starts

     Reading input from /home/jvc/QEspresso7.2/ZnO_DataBase/scfs_rnd025.in/scf-5.56-1.71-4.in

     Current dimensions of program PWSCF are:
     Max number of different atomic species (ntypx) = 10
     Max number of k-points (npk) =  40000
     Max angular momentum in pseudopotentials (lmaxx) =  4
     file Zn.upf: wavefunction(s)  3D renormalized

     R & G space division:  proc/nbgrp/npool/nimage =       8
     Subspace diagonalization in iterative solution of the eigenvalue problem:
     a serial algorithm will be used


     Parallelization info
     --------------------
     sticks:   dense  smooth     PW     G-vecs:    dense   smooth      PW
     Min         105      53     15                 4293     1527     255
     Max         106      55     16                 4302     1530     262
     Sum         847     433    127                34399    12223    2057

     Using Slab Decomposition



     bravais-lattice index     =            4
     lattice parameter (alat)  =       5.5609  a.u.
     unit-cell volume          =     254.8478 (a.u.)^3
     number of atoms/cell      =            4
     number of atomic types    =            2
     number of electrons       =        36.00
     number of Kohn-Sham states=           18
     kinetic-energy cutoff     =      50.0000  Ry
     charge density cutoff     =     400.0000  Ry
     scf convergence threshold =      1.0E-08
     mixing beta               =       0.3000
     number of iterations used =            8  plain     mixing
     Exchange-correlation= PBE
                           (   1   4   3   4   0   0   0)

     celldm(1)=   5.560939  celldm(2)=   0.000000  celldm(3)=   1.711220
     celldm(4)=   0.000000  celldm(5)=   0.000000  celldm(6)=   0.000000

     crystal axes: (cart. coord. in units of alat)
               a(1) = (   1.000000   0.000000   0.000000 )  
               a(2) = (  -0.500000   0.866025   0.000000 )  
               a(3) = (   0.000000   0.000000   1.711220 )  

     reciprocal axes: (cart. coord. in units 2 pi/alat)
               b(1) = (  1.000000  0.577350 -0.000000 )  
               b(2) = (  0.000000  1.154701  0.000000 )  
               b(3) = (  0.000000 -0.000000  0.584378 )  


     PseudoPot. # 1 for Zn read from file:
     ./pseudos/Zn.upf
     MD5 check sum: 7f56cabf9682ed8c977c2f7d0c5985c5
     Pseudo is Ultrasoft + core correction, Zval = 12.0
     Generated using &quot;atomic&quot; code by A. Dal Corso  v.6.2.2
     Using radial grid of 1201 points,  6 beta functions with: 
                l(1) =   0
                l(2) =   0
                l(3) =   1
                l(4) =   1
                l(5) =   2
                l(6) =   2
     Q(r) pseudized with 0 coefficients 


     PseudoPot. # 2 for O  read from file:
     ./pseudos/O.upf
     MD5 check sum: 91400c9766925bcf19f520983a725ff0
     Pseudo is Ultrasoft + core correction, Zval =  6.0
     Generated using &quot;atomic&quot; code by A. Dal Corso  v.6.3MaX
     Using radial grid of 1095 points,  4 beta functions with: 
                l(1) =   0
                l(2) =   0
                l(3) =   1
                l(4) =   1
     Q(r) pseudized with 0 coefficients 


     atomic species   valence    mass     pseudopotential
        Zn            12.00    63.38000     Zn( 1.00)
        O              6.00    15.99900     O ( 1.00)

     No symmetry found



   Cartesian axes

     site n.     atom                  positions (alat units)
         1           Zn  tau(   1) = (   0.2404389   0.3393517   1.2638474  )
         2           Zn  tau(   2) = (   0.1394510   0.5632732  -0.3637452  )
         3           O   tau(   3) = (   0.2537683   0.3154520   1.7277534  )
         4           O   tau(   4) = (   0.0606424   0.6773851   0.7885456  )

     number of k points=   112

     Number of k-points >= 100: set verbosity='high' to print them.

     Dense  grid:    34399 G-vectors     FFT dimensions: (  36,  36,  64)

     Smooth grid:    12223 G-vectors     FFT dimensions: (  25,  25,  45)

     Estimated max dynamical RAM per process >      24.38 MB

     Estimated total dynamical RAM >     195.06 MB

     Check: negative core charge=   -0.000003

     Initial potential from superposition of free atoms

     starting charge      35.9925, renormalised to      36.0000
     Starting wfcs are   26 randomized atomic wfcs

     total cpu time spent up to now is        3.1 secs

     Self-consistent Calculation

     iteration #  1     ecut=    50.00 Ry     beta= 0.30
     Davidson diagonalization with overlap
     ethr =  1.00E-02,  avg # of iterations =  7.7

     total cpu time spent up to now is       11.5 secs

     total energy              =    -339.03476379 Ry
     estimated scf accuracy    <       2.70454056 Ry

     iteration #  2     ecut=    50.00 Ry     beta= 0.30
     Davidson diagonalization with overlap
     ethr =  7.51E-03,  avg # of iterations =  2.0

     total cpu time spent up to now is       15.4 secs

     total energy              =    -338.79315934 Ry
     estimated scf accuracy    <       0.66449576 Ry

     iteration #  3     ecut=    50.00 Ry     beta= 0.30
     Davidson diagonalization with overlap
     ethr =  1.85E-03,  avg # of iterations =  6.9

     total cpu time spent up to now is       24.0 secs

     total energy              =    -339.41908346 Ry
     estimated scf accuracy    <       1.12787886 Ry

     iteration #  4     ecut=    50.00 Ry     beta= 0.30
     Davidson diagonalization with overlap
     ethr =  1.85E-03,  avg # of iterations =  1.0

     total cpu time spent up to now is       27.5 secs

     total energy              =    -338.78449723 Ry
     estimated scf accuracy    <       0.80581843 Ry

     iteration #  5     ecut=    50.00 Ry     beta= 0.30
     Davidson diagonalization with overlap
     ethr =  1.85E-03,  avg # of iterations =  7.9

     total cpu time spent up to now is       37.7 secs

     total energy              =    -339.27831588 Ry
     estimated scf accuracy    <       2.18397449 Ry

     iteration #  6     ecut=    50.00 Ry     beta= 0.30
     Davidson diagonalization with overlap
     ethr =  1.85E-03,  avg # of iterations =  2.0

     total cpu time spent up to now is       41.6 secs

     total energy              =    -338.89538321 Ry
     estimated scf accuracy    <       1.05804668 Ry

     iteration #  7     ecut=    50.00 Ry     beta= 0.30
     Davidson diagonalization with overlap
     ethr =  1.85E-03,  avg # of iterations =  5.3

     total cpu time spent up to now is       48.0 secs

     total energy              =    -339.29119298 Ry
     estimated scf accuracy    <       0.07386089 Ry

     iteration #  8     ecut=    50.00 Ry     beta= 0.30
     Davidson diagonalization with overlap
     ethr =  2.05E-04,  avg # of iterations =  2.9

     total cpu time spent up to now is       52.1 secs

     total energy              =    -339.29845459 Ry
     estimated scf accuracy    <       0.06948554 Ry

     iteration #  9     ecut=    50.00 Ry     beta= 0.30
     Davidson diagonalization with overlap
     ethr =  1.93E-04,  avg # of iterations =  1.0

     total cpu time spent up to now is       55.5 secs

     total energy              =    -339.29376458 Ry
     estimated scf accuracy    <       0.07006012 Ry

     iteration # 10     ecut=    50.00 Ry     beta= 0.30
     Davidson diagonalization with overlap
     ethr =  1.93E-04,  avg # of iterations =  1.0

     total cpu time spent up to now is       59.0 secs

     total energy              =    -339.24984803 Ry
     estimated scf accuracy    <       0.05865497 Ry

     iteration # 11     ecut=    50.00 Ry     beta= 0.30
     Davidson diagonalization with overlap
     ethr =  1.63E-04,  avg # of iterations =  8.0

     total cpu time spent up to now is       67.7 secs

     total energy              =    -339.35667083 Ry
     estimated scf accuracy    <       0.23487210 Ry

     iteration # 12     ecut=    50.00 Ry     beta= 0.30
     Davidson diagonalization with overlap
     ethr =  1.63E-04,  avg # of iterations =  1.5

     total cpu time spent up to now is       71.3 secs

     total energy              =    -339.26272713 Ry
     estimated scf accuracy    <       0.27126846 Ry

     iteration # 13     ecut=    50.00 Ry     beta= 0.30
     Davidson diagonalization with overlap
     ethr =  1.63E-04,  avg # of iterations =  5.8

     total cpu time spent up to now is       77.1 secs

     total energy              =    -339.28982038 Ry
     estimated scf accuracy    <       0.02573670 Ry

     iteration # 14     ecut=    50.00 Ry     beta= 0.30
     Davidson diagonalization with overlap
     ethr =  7.15E-05,  avg # of iterations =  1.5

     total cpu time spent up to now is       80.6 secs

     total energy              =    -339.29414989 Ry
     estimated scf accuracy    <       0.02944395 Ry

     iteration # 15     ecut=    50.00 Ry     beta= 0.30
     Davidson diagonalization with overlap
     ethr =  7.15E-05,  avg # of iterations =  3.0

     total cpu time spent up to now is       84.6 secs

     total energy              =    -339.28430963 Ry
     estimated scf accuracy    <       0.04853453 Ry

     iteration # 16     ecut=    50.00 Ry     beta= 0.30
     Davidson diagonalization with overlap
     ethr =  7.15E-05,  avg # of iterations =  1.9

     total cpu time spent up to now is       88.2 secs

     total energy              =    -339.27944963 Ry
     estimated scf accuracy    <       0.02675977 Ry

     iteration # 17     ecut=    50.00 Ry     beta= 0.30
     Davidson diagonalization with overlap
     ethr =  7.15E-05,  avg # of iterations =  2.8

     total cpu time spent up to now is       92.3 secs

     total energy              =    -339.28251972 Ry
     estimated scf accuracy    <       0.00702119 Ry

     iteration # 18     ecut=    50.00 Ry     beta= 0.30
     Davidson diagonalization with overlap
     ethr =  1.95E-05,  avg # of iterations =  5.2

     total cpu time spent up to now is       97.6 secs

     total energy              =    -339.28457010 Ry
     estimated scf accuracy    <       0.00220534 Ry

     iteration # 19     ecut=    50.00 Ry     beta= 0.30
     Davidson diagonalization with overlap
     c_bands:  2 eigenvalues not converged
     ethr =  6.13E-06,  avg # of iterations =  7.0

     total cpu time spent up to now is      104.1 secs

     total energy              =    -339.28361069 Ry
     estimated scf accuracy    <       0.00444845 Ry

     iteration # 20     ecut=    50.00 Ry     beta= 0.30
     Davidson diagonalization with overlap
     ethr =  6.13E-06,  avg # of iterations =  5.5

     total cpu time spent up to now is      110.6 secs

     total energy              =    -339.28432149 Ry
     estimated scf accuracy    <       0.00264551 Ry

     iteration # 21     ecut=    50.00 Ry     beta= 0.30
     Davidson diagonalization with overlap
     ethr =  6.13E-06,  avg # of iterations =  7.7

     total cpu time spent up to now is      115.9 secs

     total energy              =    -339.28479739 Ry
     estimated scf accuracy    <       0.00042507 Ry

     iteration # 22     ecut=    50.00 Ry     beta= 0.30
     Davidson diagonalization with overlap
     ethr =  1.18E-06,  avg # of iterations =  6.6

     total cpu time spent up to now is      123.5 secs

     total energy              =    -339.28527599 Ry
     estimated scf accuracy    <       0.00191737 Ry

     iteration # 23     ecut=    50.00 Ry     beta= 0.30
     Davidson diagonalization with overlap
     ethr =  1.18E-06,  avg # of iterations =  1.1

     total cpu time spent up to now is      126.9 secs

     total energy              =    -339.28506379 Ry
     estimated scf accuracy    <       0.00195319 Ry

     iteration # 24     ecut=    50.00 Ry     beta= 0.30
     Davidson diagonalization with overlap
     ethr =  1.18E-06,  avg # of iterations =  1.1

     total cpu time spent up to now is      130.3 secs

     total energy              =    -339.28521126 Ry
     estimated scf accuracy    <       0.00153851 Ry

     iteration # 25     ecut=    50.00 Ry     beta= 0.30
     Davidson diagonalization with overlap
     ethr =  1.18E-06,  avg # of iterations =  1.1

     total cpu time spent up to now is      133.7 secs

     total energy              =    -339.28469584 Ry
     estimated scf accuracy    <       0.00179014 Ry

     iteration # 26     ecut=    50.00 Ry     beta= 0.30
     Davidson diagonalization with overlap
     ethr =  1.18E-06,  avg # of iterations =  6.0

     total cpu time spent up to now is      139.5 secs

     total energy              =    -339.28477987 Ry
     estimated scf accuracy    <       0.00015920 Ry

     iteration # 27     ecut=    50.00 Ry     beta= 0.30
     Davidson diagonalization with overlap
     ethr =  4.42E-07,  avg # of iterations =  6.6

     total cpu time spent up to now is      146.1 secs

     total energy              =    -339.28485007 Ry
     estimated scf accuracy    <       0.00008539 Ry

     iteration # 28     ecut=    50.00 Ry     beta= 0.30
     Davidson diagonalization with overlap
     ethr =  2.37E-07,  avg # of iterations =  4.5

     total cpu time spent up to now is      150.8 secs

     total energy              =    -339.28485733 Ry
     estimated scf accuracy    <       0.00002980 Ry

     iteration # 29     ecut=    50.00 Ry     beta= 0.30
     Davidson diagonalization with overlap
     ethr =  8.28E-08,  avg # of iterations =  7.3

     total cpu time spent up to now is      159.0 secs

     total energy              =    -339.28486151 Ry
     estimated scf accuracy    <       0.00017520 Ry

     iteration # 30     ecut=    50.00 Ry     beta= 0.30
     Davidson diagonalization with overlap
     ethr =  8.28E-08,  avg # of iterations =  4.0

     total cpu time spent up to now is      163.5 secs

     total energy              =    -339.28484890 Ry
     estimated scf accuracy    <       0.00008044 Ry

     iteration # 31     ecut=    50.00 Ry     beta= 0.30
     Davidson diagonalization with overlap
     ethr =  8.28E-08,  avg # of iterations =  6.5

     total cpu time spent up to now is      169.5 secs

     total energy              =    -339.28486098 Ry
     estimated scf accuracy    <       0.00001108 Ry

     iteration # 32     ecut=    50.00 Ry     beta= 0.30
     Davidson diagonalization with overlap
     ethr =  3.08E-08,  avg # of iterations =  2.8

     total cpu time spent up to now is      173.5 secs

     total energy              =    -339.28486056 Ry
     estimated scf accuracy    <       0.00000355 Ry

     iteration # 33     ecut=    50.00 Ry     beta= 0.30
     Davidson diagonalization with overlap
     ethr =  9.86E-09,  avg # of iterations =  9.4

     total cpu time spent up to now is      181.7 secs

     total energy              =    -339.28486258 Ry
     estimated scf accuracy    <       0.00000966 Ry

     iteration # 34     ecut=    50.00 Ry     beta= 0.30
     Davidson diagonalization with overlap
     ethr =  9.86E-09,  avg # of iterations =  2.8

     total cpu time spent up to now is      185.6 secs

     total energy              =    -339.28486207 Ry
     estimated scf accuracy    <       0.00000499 Ry

     iteration # 35     ecut=    50.00 Ry     beta= 0.30
     Davidson diagonalization with overlap
     ethr =  9.86E-09,  avg # of iterations =  6.9

     total cpu time spent up to now is      191.5 secs

     total energy              =    -339.28486284 Ry
     estimated scf accuracy    <       0.00000215 Ry

     iteration # 36     ecut=    50.00 Ry     beta= 0.30
     Davidson diagonalization with overlap
     ethr =  5.96E-09,  avg # of iterations =  3.0

     total cpu time spent up to now is      195.7 secs

     total energy              =    -339.28486322 Ry
     estimated scf accuracy    <       0.00000133 Ry

     iteration # 37     ecut=    50.00 Ry     beta= 0.30
     Davidson diagonalization with overlap
     ethr =  3.71E-09,  avg # of iterations =  2.8

     total cpu time spent up to now is      199.8 secs

     total energy              =    -339.28486329 Ry
     estimated scf accuracy    <       0.00000179 Ry

     iteration # 38     ecut=    50.00 Ry     beta= 0.30
     Davidson diagonalization with overlap
     ethr =  3.71E-09,  avg # of iterations =  1.8

     total cpu time spent up to now is      203.6 secs

     total energy              =    -339.28486308 Ry
     estimated scf accuracy    <       0.00000183 Ry

     iteration # 39     ecut=    50.00 Ry     beta= 0.30
     Davidson diagonalization with overlap
     ethr =  3.71E-09,  avg # of iterations =  2.0

     total cpu time spent up to now is      207.6 secs

     total energy              =    -339.28486303 Ry
     estimated scf accuracy    <       0.00000136 Ry

     iteration # 40     ecut=    50.00 Ry     beta= 0.30
     Davidson diagonalization with overlap
     ethr =  3.71E-09,  avg # of iterations =  2.6

     total cpu time spent up to now is      211.8 secs

     total energy              =    -339.28486309 Ry
     estimated scf accuracy    <       0.00000108 Ry

     iteration # 41     ecut=    50.00 Ry     beta= 0.30
     Davidson diagonalization with overlap
     ethr =  3.00E-09,  avg # of iterations =  2.3

     total cpu time spent up to now is      215.9 secs

     total energy              =    -339.28486313 Ry
     estimated scf accuracy    <       0.00000102 Ry

     iteration # 42     ecut=    50.00 Ry     beta= 0.30
     Davidson diagonalization with overlap
     ethr =  2.83E-09,  avg # of iterations =  1.6

     total cpu time spent up to now is      219.6 secs

     total energy              =    -339.28486308 Ry
     estimated scf accuracy    <       0.00000098 Ry

     iteration # 43     ecut=    50.00 Ry     beta= 0.30
     Davidson diagonalization with overlap
     ethr =  2.72E-09,  avg # of iterations =  1.2

     total cpu time spent up to now is      223.1 secs

     total energy              =    -339.28486301 Ry
     estimated scf accuracy    <       0.00000080 Ry

     iteration # 44     ecut=    50.00 Ry     beta= 0.30
     Davidson diagonalization with overlap
     ethr =  2.22E-09,  avg # of iterations =  1.8

     total cpu time spent up to now is      227.0 secs

     total energy              =    -339.28486304 Ry
     estimated scf accuracy    <       0.00000053 Ry

     iteration # 45     ecut=    50.00 Ry     beta= 0.30
     Davidson diagonalization with overlap
     ethr =  1.48E-09,  avg # of iterations =  2.6

     total cpu time spent up to now is      231.0 secs

     total energy              =    -339.28486295 Ry
     estimated scf accuracy    <       0.00000048 Ry

     iteration # 46     ecut=    50.00 Ry     beta= 0.30
     Davidson diagonalization with overlap
     ethr =  1.34E-09,  avg # of iterations =  2.7

     total cpu time spent up to now is      235.0 secs

     total energy              =    -339.28486297 Ry
     estimated scf accuracy    <       0.00000020 Ry

     iteration # 47     ecut=    50.00 Ry     beta= 0.30
     Davidson diagonalization with overlap
     ethr =  5.55E-10,  avg # of iterations =  4.6

     total cpu time spent up to now is      239.9 secs

     total energy              =    -339.28486301 Ry
     estimated scf accuracy    <       0.00000007 Ry

     iteration # 48     ecut=    50.00 Ry     beta= 0.30
     Davidson diagonalization with overlap
     ethr =  1.89E-10,  avg # of iterations =  3.7

     total cpu time spent up to now is      244.5 secs

     total energy              =    -339.28486300 Ry
     estimated scf accuracy    <       0.00000005 Ry

     iteration # 49     ecut=    50.00 Ry     beta= 0.30
     Davidson diagonalization with overlap
     ethr =  1.41E-10,  avg # of iterations =  3.0

     total cpu time spent up to now is      248.9 secs

     total energy              =    -339.28486300 Ry
     estimated scf accuracy    <       0.00000002 Ry

     iteration # 50     ecut=    50.00 Ry     beta= 0.30
     Davidson diagonalization with overlap
     ethr =  5.16E-11,  avg # of iterations =  5.3

     total cpu time spent up to now is      254.7 secs

     End of self-consistent calculation

     Number of k-points >= 100: set verbosity='high' to print the bands.

     highest occupied level (ev):    11.2214

!    total energy              =    -339.28486301 Ry
     estimated scf accuracy    <          4.2E-10 Ry

     The total energy is the sum of the following terms:
     one-electron contribution =    -353.95479254 Ry
     hartree contribution      =     216.58283441 Ry
     xc contribution           =    -115.63129834 Ry
     ewald contribution        =     -86.28160654 Ry

     convergence has been achieved in  50 iterations

     Forces acting on atoms (cartesian axes, Ry/au):

     atom    1 type  1   force =    20.08913944  -44.54884261  -18.21346941
     atom    2 type  1   force =   -20.43349573   45.32369684   15.64548753
     atom    3 type  2   force =     0.42694073   -0.90767268    2.86391822
     atom    4 type  2   force =    -0.08258444    0.13281845   -0.29593634
     The non-local contrib.  to forces
     atom    1 type  1   force =    -2.57863803    5.77790838    1.11173348
     atom    2 type  1   force =     2.34453983   -5.11953699   -2.95875443
     atom    3 type  2   force =    -0.06852897    0.15639750   -1.12965836
     atom    4 type  2   force =     0.18592710   -0.33222873    1.57789271
     The ionic contribution  to forces
     atom    1 type  1   force =    49.07501229 -108.87270689  -56.69345056
     atom    2 type  1   force =   -50.57379391  112.97023741   40.87835713
     atom    3 type  2   force =     3.61676532   -7.72859450   42.49341387
     atom    4 type  2   force =    -2.11798370    3.63106398  -26.67832045
     The local contribution  to forces
     atom    1 type  1   force =   -25.15824380   55.77583263   36.20434534
     atom    2 type  1   force =    26.52450192  -59.70308673  -21.30659654
     atom    3 type  2   force =    -3.11977842    6.66138318  -38.49439615
     atom    4 type  2   force =     1.85029995   -3.16759802   24.81463538
     The core correction contribution to forces
     atom    1 type  1   force =    -1.24899633    2.77014058    1.16392077
     atom    2 type  1   force =     1.27126119   -2.82392474   -0.96749734
     atom    3 type  2   force =    -0.00151989    0.00314718   -0.00541363
     atom    4 type  2   force =    -0.00082305    0.00157088   -0.01012771
     The Hubbard contrib.    to forces
     atom    1 type  1   force =     0.00000000    0.00000000    0.00000000
     atom    2 type  1   force =     0.00000000    0.00000000    0.00000000
     atom    3 type  2   force =     0.00000000    0.00000000    0.00000000
     atom    4 type  2   force =     0.00000000    0.00000000    0.00000000
     The SCF correction term to forces
     atom    1 type  1   force =     0.00000572   -0.00002064   -0.00000296
     atom    2 type  1   force =    -0.00000437    0.00000455   -0.00000580
     atom    3 type  2   force =     0.00000309   -0.00000938   -0.00001202
     atom    4 type  2   force =    -0.00000433    0.00000700   -0.00000077

     Total force =    73.795461     Total SCF correction =     0.000029

     Writing all to output data dir ./ZnO_ANN.save/

     init_run     :      2.58s CPU      2.68s WALL (       1 calls)
     electrons    :    245.72s CPU    251.58s WALL (       1 calls)
     forces       :      0.84s CPU      0.85s WALL (       1 calls)

     Called by init_run:
     wfcinit      :      1.89s CPU      1.95s WALL (       1 calls)
     potinit      :      0.16s CPU      0.17s WALL (       1 calls)
     hinit0       :      0.48s CPU      0.49s WALL (       1 calls)

     Called by electrons:
     c_bands      :    217.24s CPU    222.23s WALL (      50 calls)
     sum_band     :     25.56s CPU     26.35s WALL (      50 calls)
     v_of_rho     :      0.56s CPU      0.60s WALL (      51 calls)
     newd         :      2.23s CPU      2.27s WALL (      51 calls)
     mix_rho      :      0.11s CPU      0.12s WALL (      50 calls)

     Called by c_bands:
     init_us_2    :      1.96s CPU      2.00s WALL (   11424 calls)
     init_us_2:cp :      1.93s CPU      1.97s WALL (   11424 calls)
     cegterg      :    210.98s CPU    215.84s WALL (    5600 calls)

     Called by *egterg:
     cdiaghg      :     29.29s CPU     29.59s WALL (   27470 calls)
     h_psi        :    116.45s CPU    120.09s WALL (   27582 calls)
     s_psi        :     15.82s CPU     15.99s WALL (   27582 calls)
     g_psi        :      0.42s CPU      0.42s WALL (   21870 calls)

     Called by h_psi:
     h_psi:calbec :     17.37s CPU     18.15s WALL (   27582 calls)
     vloc_psi     :     82.74s CPU     85.41s WALL (   27582 calls)
     add_vuspsi   :     15.88s CPU     16.08s WALL (   27582 calls)

     General routines
     calbec       :     23.84s CPU     24.87s WALL (   33630 calls)
     fft          :      0.65s CPU      0.70s WALL (     672 calls)
     ffts         :      0.07s CPU      0.07s WALL (     101 calls)
     fftw         :     85.21s CPU     87.97s WALL (  665204 calls)
     interpolate  :      0.08s CPU      0.09s WALL (      51 calls)

     Parallel routines

     PWSCF        :   4m 9.87s CPU   4m15.98s WALL


   This run was terminated on:  12: 7: 3  23Jun2025            

=------------------------------------------------------------------------------=
   JOB DONE.
=------------------------------------------------------------------------------=
Note: The following floating-point exceptions are signalling: IEEE_INVALID_FLAG
