Authorization required, but no authorization protocol specified

Authorization required, but no authorization protocol specified

Authorization required, but no authorization protocol specified

Authorization required, but no authorization protocol specified

Authorization required, but no authorization protocol specified

Authorization required, but no authorization protocol specified

Authorization required, but no authorization protocol specified

Authorization required, but no authorization protocol specified

Authorization required, but no authorization protocol specified

Authorization required, but no authorization protocol specified


     Program PWSCF v.7.2 starts on 13Jul2025 at 11:45:42 

     This program is part of the open-source Quantum ESPRESSO suite
     for quantum simulation of materials; please cite
         "P. Giannozzi et al., J. Phys.:Condens. Matter 21 395502 (2009);
         "P. Giannozzi et al., J. Phys.:Condens. Matter 29 465901 (2017);
         "P. Giannozzi et al., J. Chem. Phys. 152 154105 (2020);
          URL http://www.quantum-espresso.org", 
     in publications or presentations arising from this work. More details at
     http://www.quantum-espresso.org/quote

     Parallel version (MPI), running on     8 processors

     MPI processes distributed on     1 nodes
     55403 MiB available memory on the printing compute node when the environment starts

     Reading input from /home/jvc/QEspresso7.2/ZnO_database/scripts/cell112.in/ZnO-3.07-1.55-112.in
Warning: card &CELL ignored
Warning: card / ignored
Warning: card &FCP ignored
Warning: card / ignored
Warning: card &RISM ignored
Warning: card / ignored

     Current dimensions of program PWSCF are:
     Max number of different atomic species (ntypx) = 10
     Max number of k-points (npk) =  40000
     Max angular momentum in pseudopotentials (lmaxx) =  4
     file Zn.upf: wavefunction(s)  3D renormalized
     Found identity + (  0.0000  0.0000 -0.5000) symmetry
     This is a supercell, fractional translations are disabled
     Message from routine setup:
     using ibrav=0 with symmetry is DISCOURAGED, use correct ibrav instead

     K-points division:     npool     =       2
     R & G space division:  proc/nbgrp/npool/nimage =       4
     Subspace diagonalization in iterative solution of the eigenvalue problem:
     a serial algorithm will be used


     Parallelization info
     --------------------
     sticks:   dense  smooth     PW     G-vecs:    dense   smooth      PW
     Min         232     115     37                17782     6255    1071
     Max         234     116     39                17786     6262    1073
     Sum         931     463    151                71137    25035    4287

     Using Slab Decomposition



     bravais-lattice index     =            0
     lattice parameter (alat)  =       5.8081  a.u.
     unit-cell volume          =     525.9436 (a.u.)^3
     number of atoms/cell      =            8
     number of atomic types    =            2
     number of electrons       =        72.00
     number of Kohn-Sham states=           36
     kinetic-energy cutoff     =      50.0000  Ry
     charge density cutoff     =     400.0000  Ry
     scf convergence threshold =      1.0E-08
     mixing beta               =       0.3000
     number of iterations used =            8  plain     mixing
     Exchange-correlation= PBE
                           (   1   4   3   4   0   0   0)

     celldm(1)=   5.808123  celldm(2)=   0.000000  celldm(3)=   0.000000
     celldm(4)=   0.000000  celldm(5)=   0.000000  celldm(6)=   0.000000

     crystal axes: (cart. coord. in units of alat)
               a(1) = (   1.000000   0.000000   0.000000 )  
               a(2) = (  -0.500000   0.866025   0.000000 )  
               a(3) = (   0.000000   0.000000   3.099568 )  

     reciprocal axes: (cart. coord. in units 2 pi/alat)
               b(1) = (  1.000000  0.577350 -0.000000 )  
               b(2) = (  0.000000  1.154701  0.000000 )  
               b(3) = (  0.000000 -0.000000  0.322626 )  


     PseudoPot. # 1 for Zn read from file:
     /home/jvc/QEspresso7.2/ZnO_database/pseudos/Zn.upf
     MD5 check sum: 7f56cabf9682ed8c977c2f7d0c5985c5
     Pseudo is Ultrasoft + core correction, Zval = 12.0
     Generated using &quot;atomic&quot; code by A. Dal Corso  v.6.2.2
     Using radial grid of 1201 points,  6 beta functions with: 
                l(1) =   0
                l(2) =   0
                l(3) =   1
                l(4) =   1
                l(5) =   2
                l(6) =   2
     Q(r) pseudized with 0 coefficients 


     PseudoPot. # 2 for O  read from file:
     /home/jvc/QEspresso7.2/ZnO_database/pseudos/O.upf
     MD5 check sum: 91400c9766925bcf19f520983a725ff0
     Pseudo is Ultrasoft + core correction, Zval =  6.0
     Generated using &quot;atomic&quot; code by A. Dal Corso  v.6.3MaX
     Using radial grid of 1095 points,  4 beta functions with: 
                l(1) =   0
                l(2) =   0
                l(3) =   1
                l(4) =   1
     Q(r) pseudized with 0 coefficients 


     atomic species   valence    mass     pseudopotential
        Zn            12.00    65.38000     Zn( 1.00)
        O              6.00    15.99900     O ( 1.00)

      6 Sym. Ops. (no inversion) found


                                    s                        frac. trans.

      isym =  1     identity                                     

 cryst.   s( 1) = (     1          0          0      )
                  (     0          1          0      )
                  (     0          0          1      )

 cart.    s( 1) = (  1.0000000  0.0000000  0.0000000 )
                  (  0.0000000  1.0000000  0.0000000 )
                  (  0.0000000  0.0000000  1.0000000 )


      isym =  2     120 deg rotation - cryst. axis [0,0,1]       

 cryst.   s( 2) = (     0          1          0      )
                  (    -1         -1          0      )
                  (     0          0          1      )

 cart.    s( 2) = ( -0.5000000 -0.8660254  0.0000000 )
                  (  0.8660254 -0.5000000  0.0000000 )
                  (  0.0000000  0.0000000  1.0000000 )


      isym =  3     120 deg rotation - cryst. axis [0,0,-1]      

 cryst.   s( 3) = (    -1         -1          0      )
                  (     1          0          0      )
                  (     0          0          1      )

 cart.    s( 3) = ( -0.5000000  0.8660254  0.0000000 )
                  ( -0.8660254 -0.5000000  0.0000000 )
                  (  0.0000000  0.0000000  1.0000000 )


      isym =  4     inv. 180 deg rotation - cart. axis [1,0,0]   

 cryst.   s( 4) = (    -1          0          0      )
                  (     1          1          0      )
                  (     0          0          1      )

 cart.    s( 4) = ( -1.0000000  0.0000000  0.0000000 )
                  (  0.0000000  1.0000000  0.0000000 )
                  (  0.0000000  0.0000000  1.0000000 )


      isym =  5     inv. 180 deg rotation - cryst. axis [0,1,0]  

 cryst.   s( 5) = (     1          1          0      )
                  (     0         -1          0      )
                  (     0          0          1      )

 cart.    s( 5) = (  0.5000000  0.8660254  0.0000000 )
                  (  0.8660254 -0.5000000  0.0000000 )
                  (  0.0000000  0.0000000  1.0000000 )


      isym =  6     inv. 180 deg rotation - cryst. axis [1,1,0]  

 cryst.   s( 6) = (     0         -1          0      )
                  (    -1          0          0      )
                  (     0          0          1      )

 cart.    s( 6) = (  0.5000000 -0.8660254  0.0000000 )
                  ( -0.8660254 -0.5000000  0.0000000 )
                  (  0.0000000  0.0000000  1.0000000 )


   Cartesian axes

     site n.     atom                  positions (alat units)
         1           Zn  tau(   1) = (   0.0000000   0.0000000   0.0000000  )
         2           O   tau(   2) = (  -0.0000000   0.5773503   0.1723623  )
         3           Zn  tau(   3) = (  -0.0000000   0.5773503   0.7748920  )
         4           O   tau(   4) = (   0.0000000   0.0000000   0.9472543  )
         5           Zn  tau(   5) = (   0.0000000   0.0000000   1.5497840  )
         6           O   tau(   6) = (  -0.0000000   0.5773503   1.7221463  )
         7           Zn  tau(   7) = (  -0.0000000   0.5773503   2.3246760  )
         8           O   tau(   8) = (   0.0000000   0.0000000   2.4970383  )

   Crystallographic axes

     site n.     atom                  positions (cryst. coord.)
         1           Zn  tau(   1) = (  0.0000000  0.0000000  0.0000000  )
         2           O   tau(   2) = (  0.3333333  0.6666667  0.0556085  )
         3           Zn  tau(   3) = (  0.3333333  0.6666667  0.2500000  )
         4           O   tau(   4) = (  0.0000000  0.0000000  0.3056085  )
         5           Zn  tau(   5) = (  0.0000000  0.0000000  0.5000000  )
         6           O   tau(   6) = (  0.3333333  0.6666667  0.5556085  )
         7           Zn  tau(   7) = (  0.3333333  0.6666667  0.7500000  )
         8           O   tau(   8) = (  0.0000000  0.0000000  0.8056085  )

     number of k points=    34
                       cart. coord. in units 2pi/alat
        k(    1) = (   0.0000000   0.0000000   0.0000000), wk =   0.0092593
        k(    2) = (   0.0000000   0.0000000   0.0537709), wk =   0.0185185
        k(    3) = (   0.0000000   0.0000000   0.1075419), wk =   0.0185185
        k(    4) = (   0.0000000   0.0000000  -0.1613128), wk =   0.0092593
        k(    5) = (   0.0000000   0.1924501   0.0000000), wk =   0.0555556
        k(    6) = (   0.0000000   0.1924501   0.0537709), wk =   0.0555556
        k(    7) = (   0.0000000   0.1924501   0.1075419), wk =   0.0555556
        k(    8) = (   0.0000000   0.1924501  -0.1613128), wk =   0.0555556
        k(    9) = (   0.0000000   0.3849002   0.0000000), wk =   0.0555556
        k(   10) = (   0.0000000   0.3849002   0.0537709), wk =   0.0555556
        k(   11) = (   0.0000000   0.3849002   0.1075419), wk =   0.0555556
        k(   12) = (   0.0000000   0.3849002  -0.1613128), wk =   0.0555556
        k(   13) = (   0.0000000  -0.5773503   0.0000000), wk =   0.0277778
        k(   14) = (   0.0000000  -0.5773503   0.0537709), wk =   0.0555556
        k(   15) = (   0.0000000  -0.5773503   0.1075419), wk =   0.0555556
        k(   16) = (   0.0000000  -0.5773503  -0.1613128), wk =   0.0277778
        k(   17) = (   0.1666667   0.2886751   0.0000000), wk =   0.0555556
        k(   18) = (   0.1666667   0.2886751   0.0537709), wk =   0.1111111
        k(   19) = (   0.1666667   0.2886751   0.1075419), wk =   0.1111111
        k(   20) = (   0.1666667   0.2886751  -0.1613128), wk =   0.0555556
        k(   21) = (   0.1666667   0.4811252   0.0000000), wk =   0.1111111
        k(   22) = (   0.1666667   0.4811252   0.0537709), wk =   0.1111111
        k(   23) = (   0.1666667   0.4811252   0.1075419), wk =   0.1111111
        k(   24) = (   0.1666667   0.4811252  -0.1613128), wk =   0.1111111
        k(   25) = (   0.3333333   0.5773503   0.0000000), wk =   0.0185185
        k(   26) = (   0.3333333   0.5773503   0.0537709), wk =   0.0370370
        k(   27) = (   0.3333333   0.5773503   0.1075419), wk =   0.0370370
        k(   28) = (   0.3333333   0.5773503  -0.1613128), wk =   0.0185185
        k(   29) = (   0.0000000  -0.1924501   0.0537709), wk =   0.0555556
        k(   30) = (   0.0000000  -0.1924501   0.1075419), wk =   0.0555556
        k(   31) = (   0.0000000  -0.3849002   0.0537709), wk =   0.0555556
        k(   32) = (   0.0000000  -0.3849002   0.1075419), wk =   0.0555556
        k(   33) = (  -0.1666667  -0.4811252   0.0537709), wk =   0.1111111
        k(   34) = (  -0.1666667  -0.4811252   0.1075419), wk =   0.1111111

                       cryst. coord.
        k(    1) = (   0.0000000   0.0000000   0.0000000), wk =   0.0092593
        k(    2) = (   0.0000000   0.0000000   0.1666667), wk =   0.0185185
        k(    3) = (   0.0000000   0.0000000   0.3333333), wk =   0.0185185
        k(    4) = (   0.0000000   0.0000000  -0.5000000), wk =   0.0092593
        k(    5) = (   0.0000000   0.1666667   0.0000000), wk =   0.0555556
        k(    6) = (   0.0000000   0.1666667   0.1666667), wk =   0.0555556
        k(    7) = (   0.0000000   0.1666667   0.3333333), wk =   0.0555556
        k(    8) = (   0.0000000   0.1666667  -0.5000000), wk =   0.0555556
        k(    9) = (   0.0000000   0.3333333   0.0000000), wk =   0.0555556
        k(   10) = (   0.0000000   0.3333333   0.1666667), wk =   0.0555556
        k(   11) = (   0.0000000   0.3333333   0.3333333), wk =   0.0555556
        k(   12) = (   0.0000000   0.3333333  -0.5000000), wk =   0.0555556
        k(   13) = (   0.0000000  -0.5000000   0.0000000), wk =   0.0277778
        k(   14) = (   0.0000000  -0.5000000   0.1666667), wk =   0.0555556
        k(   15) = (   0.0000000  -0.5000000   0.3333333), wk =   0.0555556
        k(   16) = (   0.0000000  -0.5000000  -0.5000000), wk =   0.0277778
        k(   17) = (   0.1666667   0.1666667   0.0000000), wk =   0.0555556
        k(   18) = (   0.1666667   0.1666667   0.1666667), wk =   0.1111111
        k(   19) = (   0.1666667   0.1666667   0.3333333), wk =   0.1111111
        k(   20) = (   0.1666667   0.1666667  -0.5000000), wk =   0.0555556
        k(   21) = (   0.1666667   0.3333333   0.0000000), wk =   0.1111111
        k(   22) = (   0.1666667   0.3333333   0.1666667), wk =   0.1111111
        k(   23) = (   0.1666667   0.3333333   0.3333333), wk =   0.1111111
        k(   24) = (   0.1666667   0.3333333  -0.5000000), wk =   0.1111111
        k(   25) = (   0.3333333   0.3333333   0.0000000), wk =   0.0185185
        k(   26) = (   0.3333333   0.3333333   0.1666667), wk =   0.0370370
        k(   27) = (   0.3333333   0.3333333   0.3333333), wk =   0.0370370
        k(   28) = (   0.3333333   0.3333333  -0.5000000), wk =   0.0185185
        k(   29) = (   0.0000000  -0.1666667   0.1666667), wk =   0.0555556
        k(   30) = (   0.0000000  -0.1666667   0.3333333), wk =   0.0555556
        k(   31) = (   0.0000000  -0.3333333   0.1666667), wk =   0.0555556
        k(   32) = (   0.0000000  -0.3333333   0.3333333), wk =   0.0555556
        k(   33) = (  -0.1666667  -0.3333333   0.1666667), wk =   0.1111111
        k(   34) = (  -0.1666667  -0.3333333   0.3333333), wk =   0.1111111

     Dense  grid:    71137 G-vectors     FFT dimensions: (  40,  40, 120)

     Smooth grid:    25035 G-vectors     FFT dimensions: (  27,  27,  81)

     Dynamical RAM for                 wfc:       0.43 MB

     Dynamical RAM for     wfc (w. buffer):       7.76 MB

     Dynamical RAM for           str. fact:       0.54 MB

     Dynamical RAM for           local pot:       0.00 MB

     Dynamical RAM for          nlocal pot:       1.25 MB

     Dynamical RAM for                qrad:       3.21 MB

     Dynamical RAM for          rho,v,vnew:       1.91 MB

     Dynamical RAM for               rhoin:       0.64 MB

     Dynamical RAM for            rho*nmix:       4.34 MB

     Dynamical RAM for           G-vectors:       1.07 MB

     Dynamical RAM for          h,s,v(r/c):       0.24 MB

     Dynamical RAM for          <psi|beta>:       0.06 MB

     Dynamical RAM for                 psi:       0.86 MB

     Dynamical RAM for                hpsi:       0.86 MB

     Dynamical RAM for                spsi:       0.86 MB

     Dynamical RAM for      wfcinit/wfcrot:       1.31 MB

     Dynamical RAM for           addusdens:      25.91 MB

     Dynamical RAM for          addusforce:      26.74 MB

     Estimated static dynamical RAM per process >      19.02 MB

     Estimated max dynamical RAM per process >      50.10 MB

     Estimated total dynamical RAM >     383.47 MB

     Check: negative core charge=   -0.000001

     Initial potential from superposition of free atoms

     starting charge      71.9851, renormalised to      72.0000
     Starting wfcs are   52 randomized atomic wfcs

     total cpu time spent up to now is        4.3 secs

     Self-consistent Calculation

     iteration #  1     ecut=    50.00 Ry     beta= 0.30
     Davidson diagonalization with overlap

---- Real-time Memory Report at c_bands before calling an iterative solver
            69 MiB given to the printing process from OS
             0 MiB allocation reported by mallinfo(arena+hblkhd)
         55022 MiB available memory on the node where the printing process lives
------------------
     ethr =  1.00E-02,  avg # of iterations =  2.0

     total cpu time spent up to now is        8.2 secs

     total energy              =    -722.80214475 Ry
     estimated scf accuracy    <       1.35255252 Ry

     iteration #  2     ecut=    50.00 Ry     beta= 0.30
     Davidson diagonalization with overlap

---- Real-time Memory Report at c_bands before calling an iterative solver
            82 MiB given to the printing process from OS
             0 MiB allocation reported by mallinfo(arena+hblkhd)
         54954 MiB available memory on the node where the printing process lives
------------------
     ethr =  1.88E-03,  avg # of iterations =  2.0

     total cpu time spent up to now is       12.8 secs

     total energy              =    -722.89773523 Ry
     estimated scf accuracy    <       0.25932738 Ry

     iteration #  3     ecut=    50.00 Ry     beta= 0.30
     Davidson diagonalization with overlap

---- Real-time Memory Report at c_bands before calling an iterative solver
            83 MiB given to the printing process from OS
             0 MiB allocation reported by mallinfo(arena+hblkhd)
         54955 MiB available memory on the node where the printing process lives
------------------
     ethr =  3.60E-04,  avg # of iterations =  6.6

     total cpu time spent up to now is       20.6 secs

     total energy              =    -723.04649986 Ry
     estimated scf accuracy    <       0.17319563 Ry

     iteration #  4     ecut=    50.00 Ry     beta= 0.30
     Davidson diagonalization with overlap

---- Real-time Memory Report at c_bands before calling an iterative solver
            83 MiB given to the printing process from OS
             0 MiB allocation reported by mallinfo(arena+hblkhd)
         54959 MiB available memory on the node where the printing process lives
------------------
     ethr =  2.41E-04,  avg # of iterations =  2.0

     total cpu time spent up to now is       24.6 secs

     total energy              =    -723.05296088 Ry
     estimated scf accuracy    <       0.03877429 Ry

     iteration #  5     ecut=    50.00 Ry     beta= 0.30
     Davidson diagonalization with overlap

---- Real-time Memory Report at c_bands before calling an iterative solver
            83 MiB given to the printing process from OS
             0 MiB allocation reported by mallinfo(arena+hblkhd)
         54954 MiB available memory on the node where the printing process lives
------------------
     ethr =  5.39E-05,  avg # of iterations =  9.9

     total cpu time spent up to now is       36.3 secs

     total energy              =    -723.16726534 Ry
     estimated scf accuracy    <       0.87318439 Ry

     iteration #  6     ecut=    50.00 Ry     beta= 0.30
     Davidson diagonalization with overlap

---- Real-time Memory Report at c_bands before calling an iterative solver
            83 MiB given to the printing process from OS
             0 MiB allocation reported by mallinfo(arena+hblkhd)
         54957 MiB available memory on the node where the printing process lives
------------------
     ethr =  5.39E-05,  avg # of iterations =  5.1

     total cpu time spent up to now is       42.9 secs

     total energy              =    -722.97120154 Ry
     estimated scf accuracy    <       0.41886280 Ry

     iteration #  7     ecut=    50.00 Ry     beta= 0.30
     Davidson diagonalization with overlap

---- Real-time Memory Report at c_bands before calling an iterative solver
            83 MiB given to the printing process from OS
             0 MiB allocation reported by mallinfo(arena+hblkhd)
         54957 MiB available memory on the node where the printing process lives
------------------
     ethr =  5.39E-05,  avg # of iterations =  8.5

     total cpu time spent up to now is       52.9 secs

     total energy              =    -723.07644364 Ry
     estimated scf accuracy    <       0.00614139 Ry

     iteration #  8     ecut=    50.00 Ry     beta= 0.30
     Davidson diagonalization with overlap

---- Real-time Memory Report at c_bands before calling an iterative solver
            83 MiB given to the printing process from OS
             0 MiB allocation reported by mallinfo(arena+hblkhd)
         54957 MiB available memory on the node where the printing process lives
------------------
     ethr =  8.53E-06,  avg # of iterations =  4.4

     total cpu time spent up to now is       57.8 secs

     total energy              =    -723.07645858 Ry
     estimated scf accuracy    <       0.00918182 Ry

     iteration #  9     ecut=    50.00 Ry     beta= 0.30
     Davidson diagonalization with overlap

---- Real-time Memory Report at c_bands before calling an iterative solver
            84 MiB given to the printing process from OS
             0 MiB allocation reported by mallinfo(arena+hblkhd)
         54957 MiB available memory on the node where the printing process lives
------------------
     ethr =  8.53E-06,  avg # of iterations =  1.3

     total cpu time spent up to now is       61.4 secs

     total energy              =    -723.07362260 Ry
     estimated scf accuracy    <       0.00739715 Ry

     iteration # 10     ecut=    50.00 Ry     beta= 0.30
     Davidson diagonalization with overlap

---- Real-time Memory Report at c_bands before calling an iterative solver
            84 MiB given to the printing process from OS
             0 MiB allocation reported by mallinfo(arena+hblkhd)
         54958 MiB available memory on the node where the printing process lives
------------------
     ethr =  8.53E-06,  avg # of iterations =  2.0

     total cpu time spent up to now is       65.5 secs

     total energy              =    -723.07338406 Ry
     estimated scf accuracy    <       0.00191958 Ry

     iteration # 11     ecut=    50.00 Ry     beta= 0.30
     Davidson diagonalization with overlap

---- Real-time Memory Report at c_bands before calling an iterative solver
            84 MiB given to the printing process from OS
             0 MiB allocation reported by mallinfo(arena+hblkhd)
         54958 MiB available memory on the node where the printing process lives
------------------
     ethr =  2.67E-06,  avg # of iterations =  5.8

     total cpu time spent up to now is       72.5 secs

     total energy              =    -723.07469873 Ry
     estimated scf accuracy    <       0.00023253 Ry

     iteration # 12     ecut=    50.00 Ry     beta= 0.30
     Davidson diagonalization with overlap

---- Real-time Memory Report at c_bands before calling an iterative solver
            84 MiB given to the printing process from OS
             0 MiB allocation reported by mallinfo(arena+hblkhd)
         54946 MiB available memory on the node where the printing process lives
------------------
     ethr =  3.23E-07,  avg # of iterations =  3.9

     total cpu time spent up to now is       76.9 secs

     total energy              =    -723.07464898 Ry
     estimated scf accuracy    <       0.00026245 Ry

     iteration # 13     ecut=    50.00 Ry     beta= 0.30
     Davidson diagonalization with overlap

---- Real-time Memory Report at c_bands before calling an iterative solver
            84 MiB given to the printing process from OS
             0 MiB allocation reported by mallinfo(arena+hblkhd)
         55104 MiB available memory on the node where the printing process lives
------------------
     ethr =  3.23E-07,  avg # of iterations =  1.7

     total cpu time spent up to now is       80.7 secs

     total energy              =    -723.07466609 Ry
     estimated scf accuracy    <       0.00010761 Ry

     iteration # 14     ecut=    50.00 Ry     beta= 0.30
     Davidson diagonalization with overlap

---- Real-time Memory Report at c_bands before calling an iterative solver
            84 MiB given to the printing process from OS
             0 MiB allocation reported by mallinfo(arena+hblkhd)
         55107 MiB available memory on the node where the printing process lives
------------------
     ethr =  1.49E-07,  avg # of iterations =  1.4

     total cpu time spent up to now is       84.4 secs

     total energy              =    -723.07466073 Ry
     estimated scf accuracy    <       0.00010918 Ry

     iteration # 15     ecut=    50.00 Ry     beta= 0.30
     Davidson diagonalization with overlap

---- Real-time Memory Report at c_bands before calling an iterative solver
            84 MiB given to the printing process from OS
             0 MiB allocation reported by mallinfo(arena+hblkhd)
         55108 MiB available memory on the node where the printing process lives
------------------
     ethr =  1.49E-07,  avg # of iterations =  1.1

     total cpu time spent up to now is       88.0 secs

     total energy              =    -723.07465792 Ry
     estimated scf accuracy    <       0.00007702 Ry

     iteration # 16     ecut=    50.00 Ry     beta= 0.30
     Davidson diagonalization with overlap

---- Real-time Memory Report at c_bands before calling an iterative solver
            84 MiB given to the printing process from OS
             0 MiB allocation reported by mallinfo(arena+hblkhd)
         54992 MiB available memory on the node where the printing process lives
------------------
     ethr =  1.07E-07,  avg # of iterations =  1.9

     total cpu time spent up to now is       91.9 secs

     total energy              =    -723.07465721 Ry
     estimated scf accuracy    <       0.00004866 Ry

     iteration # 17     ecut=    50.00 Ry     beta= 0.30
     Davidson diagonalization with overlap

---- Real-time Memory Report at c_bands before calling an iterative solver
            84 MiB given to the printing process from OS
             0 MiB allocation reported by mallinfo(arena+hblkhd)
         54993 MiB available memory on the node where the printing process lives
------------------
     ethr =  6.76E-08,  avg # of iterations =  1.3

     total cpu time spent up to now is       95.6 secs

     total energy              =    -723.07465032 Ry
     estimated scf accuracy    <       0.00003403 Ry

     iteration # 18     ecut=    50.00 Ry     beta= 0.30
     Davidson diagonalization with overlap

---- Real-time Memory Report at c_bands before calling an iterative solver
            84 MiB given to the printing process from OS
             0 MiB allocation reported by mallinfo(arena+hblkhd)
         54993 MiB available memory on the node where the printing process lives
------------------
     ethr =  4.73E-08,  avg # of iterations =  2.4

     total cpu time spent up to now is      100.0 secs

     total energy              =    -723.07465184 Ry
     estimated scf accuracy    <       0.00000993 Ry

     iteration # 19     ecut=    50.00 Ry     beta= 0.30
     Davidson diagonalization with overlap

---- Real-time Memory Report at c_bands before calling an iterative solver
            84 MiB given to the printing process from OS
             0 MiB allocation reported by mallinfo(arena+hblkhd)
         54998 MiB available memory on the node where the printing process lives
------------------
     ethr =  1.38E-08,  avg # of iterations =  4.7

     total cpu time spent up to now is      106.1 secs

     total energy              =    -723.07465566 Ry
     estimated scf accuracy    <       0.00000015 Ry

     iteration # 20     ecut=    50.00 Ry     beta= 0.30
     Davidson diagonalization with overlap

---- Real-time Memory Report at c_bands before calling an iterative solver
            84 MiB given to the printing process from OS
             0 MiB allocation reported by mallinfo(arena+hblkhd)
         54999 MiB available memory on the node where the printing process lives
------------------
     c_bands:  2 eigenvalues not converged
     ethr =  2.03E-10,  avg # of iterations = 10.3

     total cpu time spent up to now is      117.6 secs

     total energy              =    -723.07465621 Ry
     estimated scf accuracy    <       0.00000109 Ry

     iteration # 21     ecut=    50.00 Ry     beta= 0.30
     Davidson diagonalization with overlap

---- Real-time Memory Report at c_bands before calling an iterative solver
            84 MiB given to the printing process from OS
             0 MiB allocation reported by mallinfo(arena+hblkhd)
         54999 MiB available memory on the node where the printing process lives
------------------
     ethr =  2.03E-10,  avg # of iterations =  3.6

     total cpu time spent up to now is      122.5 secs

     total energy              =    -723.07465600 Ry
     estimated scf accuracy    <       0.00000048 Ry

     iteration # 22     ecut=    50.00 Ry     beta= 0.30
     Davidson diagonalization with overlap

---- Real-time Memory Report at c_bands before calling an iterative solver
            84 MiB given to the printing process from OS
             0 MiB allocation reported by mallinfo(arena+hblkhd)
         54999 MiB available memory on the node where the printing process lives
------------------
     ethr =  2.03E-10,  avg # of iterations =  7.4

     total cpu time spent up to now is      131.0 secs

     total energy              =    -723.07465616 Ry
     estimated scf accuracy    <       0.00000003 Ry

     iteration # 23     ecut=    50.00 Ry     beta= 0.30
     Davidson diagonalization with overlap

---- Real-time Memory Report at c_bands before calling an iterative solver
            84 MiB given to the printing process from OS
             0 MiB allocation reported by mallinfo(arena+hblkhd)
         54999 MiB available memory on the node where the printing process lives
------------------
     ethr =  3.80E-11,  avg # of iterations =  4.6

     total cpu time spent up to now is      136.9 secs

     End of self-consistent calculation

          k = 0.0000 0.0000 0.0000 (  3161 PWs)   bands (ev):

    -9.2883  -8.7311  -8.7311  -8.1335   3.3696   3.3696   3.3986   3.7048
     3.7048   3.7710   3.7710   3.7710   3.7710   3.9276   3.9276   3.9748
     5.5865   5.5865   5.8169   5.8169   5.8169   5.8169   5.9529   5.9529
     6.3748   8.3650   8.3650   9.6016   9.6016  10.1334  10.1334  10.1335
    10.1335  10.4398  10.6556  10.6556

     occupation numbers 
     1.0000   1.0000   1.0000   1.0000   1.0000   1.0000   1.0000   1.0000
     1.0000   1.0000   1.0000   1.0000   1.0000   1.0000   1.0000   1.0000
     1.0000   1.0000   1.0000   1.0000   1.0000   1.0000   1.0000   1.0000
     1.0000   1.0000   1.0000   1.0000   1.0000   1.0000   1.0000   1.0000
     1.0000   1.0000   1.0000   1.0000

          k = 0.0000 0.0000 0.0538 (  3197 PWs)   bands (ev):

    -9.2700  -8.8792  -8.5804  -8.1545   3.2963   3.3774   3.4795   3.7056
     3.7056   3.7455   3.7455   3.8022   3.8022   3.9205   3.9205   3.9459
     5.5955   5.5955   5.7652   5.7652   5.8618   5.8618   5.9501   5.9501
     6.4616   7.9205   8.7941   9.6196   9.6196   9.9959   9.9959  10.2702
    10.2702  10.2885  10.6382  10.6382

     occupation numbers 
     1.0000   1.0000   1.0000   1.0000   1.0000   1.0000   1.0000   1.0000
     1.0000   1.0000   1.0000   1.0000   1.0000   1.0000   1.0000   1.0000
     1.0000   1.0000   1.0000   1.0000   1.0000   1.0000   1.0000   1.0000
     1.0000   1.0000   1.0000   1.0000   1.0000   1.0000   1.0000   1.0000
     1.0000   1.0000   1.0000   1.0000

          k = 0.0000 0.0000 0.1075 (  3172 PWs)   bands (ev):

    -9.2159  -9.0147  -8.4374  -8.2159   3.2682   3.3288   3.6125   3.7087
     3.7087   3.7272   3.7272   3.8370   3.8370   3.8659   3.9007   3.9007
     5.6221   5.6221   5.7122   5.7122   5.8984   5.8984   5.9414   5.9414
     6.7045   7.4763   9.2038   9.6726   9.6726   9.8674   9.8674   9.9663
    10.3969  10.3969  10.5869  10.5869

     occupation numbers 
     1.0000   1.0000   1.0000   1.0000   1.0000   1.0000   1.0000   1.0000
     1.0000   1.0000   1.0000   1.0000   1.0000   1.0000   1.0000   1.0000
     1.0000   1.0000   1.0000   1.0000   1.0000   1.0000   1.0000   1.0000
     1.0000   1.0000   1.0000   1.0000   1.0000   1.0000   1.0000   1.0000
     1.0000   1.0000   1.0000   1.0000

          k = 0.0000 0.0000-0.1613 (  3184 PWs)   bands (ev):

    -9.1292  -9.1292  -8.3128  -8.3127   3.2835   3.2835   3.7152   3.7152
     3.7152   3.7152   3.7482   3.7482   3.8713   3.8713   3.8713   3.8713
     5.6627   5.6627   5.6627   5.6627   5.9245   5.9245   5.9245   5.9245
     7.0581   7.0581   9.5949   9.5949   9.7571   9.7571   9.7571   9.7571
    10.5047  10.5047  10.5047  10.5047

     occupation numbers 
     1.0000   1.0000   1.0000   1.0000   1.0000   1.0000   1.0000   1.0000
     1.0000   1.0000   1.0000   1.0000   1.0000   1.0000   1.0000   1.0000
     1.0000   1.0000   1.0000   1.0000   1.0000   1.0000   1.0000   1.0000
     1.0000   1.0000   1.0000   1.0000   1.0000   1.0000   1.0000   1.0000
     1.0000   1.0000   1.0000   1.0000

          k = 0.0000 0.1925 0.0000 (  3165 PWs)   bands (ev):

    -9.0801  -8.5770  -8.5769  -8.0544   3.1873   3.1873   3.4302   3.6553
     3.8277   3.8879   3.9108   3.9108   3.9145   3.9145   4.0902   4.1095
     5.4887   5.5767   5.8100   5.8100   5.8267   5.8267   5.9760   6.0473
     6.3637   8.2924   8.2925   8.5894   9.1338   9.4429   9.4430   9.5372
     9.7730   9.7730  10.2142  10.3853

     occupation numbers 
     1.0000   1.0000   1.0000   1.0000   1.0000   1.0000   1.0000   1.0000
     1.0000   1.0000   1.0000   1.0000   1.0000   1.0000   1.0000   1.0000
     1.0000   1.0000   1.0000   1.0000   1.0000   1.0000   1.0000   1.0000
     1.0000   1.0000   1.0000   1.0000   1.0000   1.0000   1.0000   1.0000
     1.0000   1.0000   1.0000   1.0000

          k = 0.0000 0.1925 0.0538 (  3157 PWs)   bands (ev):

    -9.0633  -8.7093  -8.4432  -8.0725   3.1707   3.2423   3.4139   3.5984
     3.8294   3.8842   3.9032   3.9070   3.9314   3.9505   4.0825   4.0930
     5.5044   5.5859   5.7547   5.7558   5.8597   5.8914   5.9717   6.0379
     6.4648   7.9346   8.5863   8.6107   9.1560   9.2052   9.4753   9.6100
     9.7029   9.9342  10.2211  10.3649

     occupation numbers 
     1.0000   1.0000   1.0000   1.0000   1.0000   1.0000   1.0000   1.0000
     1.0000   1.0000   1.0000   1.0000   1.0000   1.0000   1.0000   1.0000
     1.0000   1.0000   1.0000   1.0000   1.0000   1.0000   1.0000   1.0000
     1.0000   1.0000   1.0000   1.0000   1.0000   1.0000   1.0000   1.0000
     1.0000   1.0000   1.0000   1.0000

          k = 0.0000 0.1925 0.1075 (  3150 PWs)   bands (ev):

    -9.0140  -8.8313  -8.3176  -8.1252   3.2010   3.3194   3.3593   3.4946
     3.8348   3.8610   3.9089   3.9245   3.9627   3.9898   4.0519   4.0606
     5.5469   5.6120   5.6798   5.7015   5.9021   5.9451   5.9584   6.0171
     6.7347   7.5278   8.6728   8.7900   9.0525   9.2209   9.3254   9.4566
     9.9395  10.0828  10.2040  10.3050

     occupation numbers 
     1.0000   1.0000   1.0000   1.0000   1.0000   1.0000   1.0000   1.0000
     1.0000   1.0000   1.0000   1.0000   1.0000   1.0000   1.0000   1.0000
     1.0000   1.0000   1.0000   1.0000   1.0000   1.0000   1.0000   1.0000
     1.0000   1.0000   1.0000   1.0000   1.0000   1.0000   1.0000   1.0000
     1.0000   1.0000   1.0000   1.0000

          k = 0.0000 0.1925-0.1613 (  3154 PWs)   bands (ev):

    -8.9351  -8.9351  -8.2090  -8.2090   3.2736   3.2736   3.4032   3.4032
     3.8448   3.8448   3.9211   3.9212   4.0039   4.0039   4.0281   4.0281
     5.6080   5.6080   5.6518   5.6519   5.9354   5.9354   5.9867   5.9867
     7.1098   7.1098   8.7661   8.7661   9.1443   9.1443   9.3236   9.3236
    10.1136  10.1136  10.2090  10.2090

     occupation numbers 
     1.0000   1.0000   1.0000   1.0000   1.0000   1.0000   1.0000   1.0000
     1.0000   1.0000   1.0000   1.0000   1.0000   1.0000   1.0000   1.0000
     1.0000   1.0000   1.0000   1.0000   1.0000   1.0000   1.0000   1.0000
     1.0000   1.0000   1.0000   1.0000   1.0000   1.0000   1.0000   1.0000
     1.0000   1.0000   1.0000   1.0000

          k = 0.0000 0.3849 0.0000 (  3135 PWs)   bands (ev):

    -8.6015  -8.2537  -8.2536  -7.9313   2.9450   2.9451   3.1500   3.5941
     4.0465   4.1825   4.1829   4.1829   4.2237   4.2237   4.4946   4.6079
     5.3719   5.6806   5.8378   5.8378   5.8829   5.8829   6.0109   6.0206
     6.5325   7.0421   7.3060   7.3060   8.1006   8.1629   9.0209   9.0209
     9.0673   9.0673   9.5940   9.7844

     occupation numbers 
     1.0000   1.0000   1.0000   1.0000   1.0000   1.0000   1.0000   1.0000
     1.0000   1.0000   1.0000   1.0000   1.0000   1.0000   1.0000   1.0000
     1.0000   1.0000   1.0000   1.0000   1.0000   1.0000   1.0000   1.0000
     1.0000   1.0000   1.0000   1.0000   1.0000   1.0000   1.0000   1.0000
     1.0000   1.0000   1.0000   1.0000

          k = 0.0000 0.3849 0.0538 (  3138 PWs)   bands (ev):

    -8.5894  -8.3419  -8.1671  -7.9417   2.9389   3.0009   3.1348   3.5423
     4.0512   4.1499   4.1704   4.1731   4.2339   4.2830   4.4833   4.5676
     5.4053   5.6860   5.7874   5.7971   5.8792   5.9684   6.0040   6.0584
     6.5749   7.0858   7.1804   7.4136   8.0784   8.1949   8.6764   8.8114
     9.2245   9.3848   9.6179   9.7592

     occupation numbers 
     1.0000   1.0000   1.0000   1.0000   1.0000   1.0000   1.0000   1.0000
     1.0000   1.0000   1.0000   1.0000   1.0000   1.0000   1.0000   1.0000
     1.0000   1.0000   1.0000   1.0000   1.0000   1.0000   1.0000   1.0000
     1.0000   1.0000   1.0000   1.0000   1.0000   1.0000   1.0000   1.0000
     1.0000   1.0000   1.0000   1.0000

          k = 0.0000 0.3849 0.1075 (  3147 PWs)   bands (ev):

    -8.5539  -8.4253  -8.0883  -7.9724   2.9739   3.0922   3.1058   3.4105
     4.0658   4.1256   4.1354   4.1536   4.3020   4.3444   4.4509   4.4796
     5.4842   5.6855   5.7018   5.7593   5.9192   5.9846   6.0399   6.1012
     6.7105   7.0418   7.2201   7.4746   8.0353   8.2873   8.2904   8.6096
     9.4100   9.5890   9.6636   9.6852

     occupation numbers 
     1.0000   1.0000   1.0000   1.0000   1.0000   1.0000   1.0000   1.0000
     1.0000   1.0000   1.0000   1.0000   1.0000   1.0000   1.0000   1.0000
     1.0000   1.0000   1.0000   1.0000   1.0000   1.0000   1.0000   1.0000
     1.0000   1.0000   1.0000   1.0000   1.0000   1.0000   1.0000   1.0000
     1.0000   1.0000   1.0000   1.0000

          k = 0.0000 0.3849-0.1613 (  3134 PWs)   bands (ev):

    -8.4979  -8.4978  -8.0221  -8.0221   3.0325   3.0325   3.2503   3.2504
     4.0907   4.0907   4.1382   4.1382   4.3856   4.3856   4.4026   4.4026
     5.5822   5.5822   5.7269   5.7269   5.9553   5.9553   6.0898   6.0898
     6.8853   6.8853   7.4052   7.4052   8.0577   8.0577   8.4301   8.4301
     9.5666   9.5666   9.6726   9.6726

     occupation numbers 
     1.0000   1.0000   1.0000   1.0000   1.0000   1.0000   1.0000   1.0000
     1.0000   1.0000   1.0000   1.0000   1.0000   1.0000   1.0000   1.0000
     1.0000   1.0000   1.0000   1.0000   1.0000   1.0000   1.0000   1.0000
     1.0000   1.0000   1.0000   1.0000   1.0000   1.0000   1.0000   1.0000
     1.0000   1.0000   1.0000   1.0000

          k = 0.0000-0.5774 0.0000 (  3094 PWs)   bands (ev):

    -8.2865  -8.0838  -8.0837  -7.9301   2.8734   2.8734   3.2801   3.2842
     4.1271   4.3258   4.3631   4.3631   4.3876   4.3876   4.7711   4.8345
     5.6668   5.8370   5.8949   5.8949   6.0149   6.0150   6.0292   6.0449
     6.2677   6.4762   6.4762   6.7170   7.2807   7.5944   8.6067   8.6067
     9.0919   9.0919   9.1241   9.4448

     occupation numbers 
     1.0000   1.0000   1.0000   1.0000   1.0000   1.0000   1.0000   1.0000
     1.0000   1.0000   1.0000   1.0000   1.0000   1.0000   1.0000   1.0000
     1.0000   1.0000   1.0000   1.0000   1.0000   1.0000   1.0000   1.0000
     1.0000   1.0000   1.0000   1.0000   1.0000   1.0000   1.0000   1.0000
     1.0000   1.0000   1.0000   1.0000

          k = 0.0000-0.5774 0.0538 (  3122 PWs)   bands (ev):

    -8.2789  -8.1320  -8.0388  -7.9345   2.8869   2.9110   3.2513   3.2549
     4.1342   4.3112   4.3138   4.3155   4.4293   4.4718   4.7549   4.8000
     5.6938   5.8382   5.8771   5.9163   5.9669   6.0203   6.0508   6.0561
     6.2780   6.4434   6.5039   6.6814   7.3917   7.6356   8.3707   8.7902
     8.8328   9.1572   9.2862   9.4174

     occupation numbers 
     1.0000   1.0000   1.0000   1.0000   1.0000   1.0000   1.0000   1.0000
     1.0000   1.0000   1.0000   1.0000   1.0000   1.0000   1.0000   1.0000
     1.0000   1.0000   1.0000   1.0000   1.0000   1.0000   1.0000   1.0000
     1.0000   1.0000   1.0000   1.0000   1.0000   1.0000   1.0000   1.0000
     1.0000   1.0000   1.0000   1.0000

          k = 0.0000-0.5774 0.1075 (  3122 PWs)   bands (ev):

    -8.2569  -8.1797  -8.0001  -7.9475   2.9511   2.9895   3.1639   3.1859
     4.1567   4.2462   4.2872   4.2916   4.5134   4.5588   4.7092   4.7149
     5.7591   5.8432   5.8627   5.9066   5.9415   5.9979   6.0739   6.0754
     6.3098   6.4030   6.5328   6.6199   7.6658   7.7522   8.1388   8.4191
     9.0368   9.2399   9.3370   9.3581

     occupation numbers 
     1.0000   1.0000   1.0000   1.0000   1.0000   1.0000   1.0000   1.0000
     1.0000   1.0000   1.0000   1.0000   1.0000   1.0000   1.0000   1.0000
     1.0000   1.0000   1.0000   1.0000   1.0000   1.0000   1.0000   1.0000
     1.0000   1.0000   1.0000   1.0000   1.0000   1.0000   1.0000   1.0000
     1.0000   1.0000   1.0000   1.0000

          k = 0.0000-0.5774-0.1613 (  3136 PWs)   bands (ev):

    -8.2228  -8.2228  -7.9694  -7.9694   3.0522   3.0522   3.0894   3.0894
     4.1941   4.1942   4.2796   4.2796   4.6117   4.6117   4.6408   4.6408
     5.8354   5.8354   5.8514   5.8514   5.9695   5.9695   6.0826   6.0826
     6.3558   6.3558   6.5693   6.5693   7.9265   7.9265   8.0270   8.0270
     9.2078   9.2078   9.3264   9.3264

     occupation numbers 
     1.0000   1.0000   1.0000   1.0000   1.0000   1.0000   1.0000   1.0000
     1.0000   1.0000   1.0000   1.0000   1.0000   1.0000   1.0000   1.0000
     1.0000   1.0000   1.0000   1.0000   1.0000   1.0000   1.0000   1.0000
     1.0000   1.0000   1.0000   1.0000   1.0000   1.0000   1.0000   1.0000
     1.0000   1.0000   1.0000   1.0000

          k = 0.1667 0.2887 0.0000 (  3167 PWs)   bands (ev):

    -8.7342  -8.3374  -8.3373  -7.9542   3.0501   3.0501   3.3041   3.6143
     3.9773   3.9773   3.9980   4.1017   4.2183   4.2183   4.2805   4.4667
     5.4092   5.5988   5.8164   5.8164   5.8781   5.8781   5.9991   6.0740
     6.5120   7.5968   7.7553   7.7553   8.0022   8.5970   8.8906   8.8906
     9.1905   9.1905   9.7692   9.8108

     occupation numbers 
     1.0000   1.0000   1.0000   1.0000   1.0000   1.0000   1.0000   1.0000
     1.0000   1.0000   1.0000   1.0000   1.0000   1.0000   1.0000   1.0000
     1.0000   1.0000   1.0000   1.0000   1.0000   1.0000   1.0000   1.0000
     1.0000   1.0000   1.0000   1.0000   1.0000   1.0000   1.0000   1.0000
     1.0000   1.0000   1.0000   1.0000

          k = 0.1667 0.2887 0.0538 (  3150 PWs)   bands (ev):

    -8.7206  -8.4393  -8.2362  -7.9668   3.0707   3.0778   3.2904   3.5662
     3.9797   3.9804   3.9928   4.0892   4.1942   4.2588   4.2646   4.4526
     5.4316   5.6157   5.7674   5.7782   5.8771   5.9563   5.9932   6.0927
     6.5872   7.5900   7.6293   7.8989   8.0225   8.5689   8.6568   8.7533
     9.2132   9.4779   9.7425   9.8287

     occupation numbers 
     1.0000   1.0000   1.0000   1.0000   1.0000   1.0000   1.0000   1.0000
     1.0000   1.0000   1.0000   1.0000   1.0000   1.0000   1.0000   1.0000
     1.0000   1.0000   1.0000   1.0000   1.0000   1.0000   1.0000   1.0000
     1.0000   1.0000   1.0000   1.0000   1.0000   1.0000   1.0000   1.0000
     1.0000   1.0000   1.0000   1.0000

          k = 0.1667 0.2887 0.1075 (  3151 PWs)   bands (ev):

    -8.6807  -8.5350  -8.1431  -8.0041   3.1241   3.1597   3.2505   3.4409
     3.9818   3.9854   3.9945   4.0577   4.1904   4.2330   4.3097   4.4151
     5.4919   5.6513   5.6717   5.7340   5.9148   5.9759   6.0271   6.1044
     6.8143   7.3864   7.7342   8.0182   8.0686   8.2626   8.5117   8.5945
     9.3836   9.6645   9.7101   9.8545

     occupation numbers 
     1.0000   1.0000   1.0000   1.0000   1.0000   1.0000   1.0000   1.0000
     1.0000   1.0000   1.0000   1.0000   1.0000   1.0000   1.0000   1.0000
     1.0000   1.0000   1.0000   1.0000   1.0000   1.0000   1.0000   1.0000
     1.0000   1.0000   1.0000   1.0000   1.0000   1.0000   1.0000   1.0000
     1.0000   1.0000   1.0000   1.0000

          k = 0.1667 0.2887-0.1613 (  3148 PWs)   bands (ev):

    -8.6174  -8.6174  -8.0640  -8.0640   3.1905   3.1905   3.2893   3.2893
     3.9824   3.9824   4.0220   4.0220   4.2053   4.2053   4.3643   4.3643
     5.5761   5.5761   5.6913   5.6913   5.9492   5.9492   6.0797   6.0797
     7.1180   7.1180   7.9375   7.9376   8.0848   8.0848   8.5005   8.5005
     9.5413   9.5413   9.8308   9.8308

     occupation numbers 
     1.0000   1.0000   1.0000   1.0000   1.0000   1.0000   1.0000   1.0000
     1.0000   1.0000   1.0000   1.0000   1.0000   1.0000   1.0000   1.0000
     1.0000   1.0000   1.0000   1.0000   1.0000   1.0000   1.0000   1.0000
     1.0000   1.0000   1.0000   1.0000   1.0000   1.0000   1.0000   1.0000
     1.0000   1.0000   1.0000   1.0000

          k = 0.1667 0.4811 0.0000 (  3123 PWs)   bands (ev):

    -8.3010  -8.0878  -8.0878  -7.9221   3.0646   3.0647   3.3811   3.6205
     4.0376   4.1065   4.1065   4.2447   4.4756   4.4756   4.7663   4.8431
     5.4721   5.6746   5.8014   5.8014   6.0301   6.0616   6.0845   6.0845
     6.3649   6.7439   6.7439   6.8828   7.1204   7.6134   8.0596   8.0596
     8.9525   9.1534   9.1534   9.1901

     occupation numbers 
     1.0000   1.0000   1.0000   1.0000   1.0000   1.0000   1.0000   1.0000
     1.0000   1.0000   1.0000   1.0000   1.0000   1.0000   1.0000   1.0000
     1.0000   1.0000   1.0000   1.0000   1.0000   1.0000   1.0000   1.0000
     1.0000   1.0000   1.0000   1.0000   1.0000   1.0000   1.0000   1.0000
     1.0000   1.0000   1.0000   1.0000

          k = 0.1667 0.4811 0.0538 (  3128 PWs)   bands (ev):

    -8.2931  -8.1389  -8.0399  -7.9269   3.0761   3.1085   3.3600   3.5830
     4.0344   4.0803   4.1308   4.2336   4.4675   4.5140   4.7242   4.8080
     5.4946   5.7202   5.7649   5.8198   6.0235   6.0403   6.0969   6.1383
     6.3564   6.6392   6.8343   6.9185   7.1347   7.6659   7.8223   8.2758
     8.8908   8.9441   9.2045   9.3257

     occupation numbers 
     1.0000   1.0000   1.0000   1.0000   1.0000   1.0000   1.0000   1.0000
     1.0000   1.0000   1.0000   1.0000   1.0000   1.0000   1.0000   1.0000
     1.0000   1.0000   1.0000   1.0000   1.0000   1.0000   1.0000   1.0000
     1.0000   1.0000   1.0000   1.0000   1.0000   1.0000   1.0000   1.0000
     1.0000   1.0000   1.0000   1.0000

          k = 0.1667 0.4811 0.1075 (  3134 PWs)   bands (ev):

    -8.2701  -8.1892  -7.9983  -7.9412   3.1339   3.2051   3.3010   3.4788
     4.0315   4.0558   4.1539   4.2077   4.4916   4.5769   4.6319   4.7365
     5.5557   5.7074   5.7837   5.8244   6.0108   6.0133   6.1911   6.1929
     6.3410   6.5204   6.9095   6.9726   7.2050   7.5869   7.8326   8.3528
     8.6847   8.8866   9.2645   9.3834

     occupation numbers 
     1.0000   1.0000   1.0000   1.0000   1.0000   1.0000   1.0000   1.0000
     1.0000   1.0000   1.0000   1.0000   1.0000   1.0000   1.0000   1.0000
     1.0000   1.0000   1.0000   1.0000   1.0000   1.0000   1.0000   1.0000
     1.0000   1.0000   1.0000   1.0000   1.0000   1.0000   1.0000   1.0000
     1.0000   1.0000   1.0000   1.0000

          k = 0.1667 0.4811-0.1613 (  3136 PWs)   bands (ev):

    -8.2344  -8.2343  -7.9651  -7.9650   3.2177   3.2177   3.3389   3.3389
     4.0383   4.0383   4.1792   4.1792   4.5474   4.5474   4.6549   4.6549
     5.6334   5.6334   5.8151   5.8151   6.0047   6.0047   6.2330   6.2331
     6.3966   6.3966   6.9630   6.9630   7.3703   7.3703   8.1010   8.1010
     8.7708   8.7708   9.3459   9.3459

     occupation numbers 
     1.0000   1.0000   1.0000   1.0000   1.0000   1.0000   1.0000   1.0000
     1.0000   1.0000   1.0000   1.0000   1.0000   1.0000   1.0000   1.0000
     1.0000   1.0000   1.0000   1.0000   1.0000   1.0000   1.0000   1.0000
     1.0000   1.0000   1.0000   1.0000   1.0000   1.0000   1.0000   1.0000
     1.0000   1.0000   1.0000   1.0000

          k = 0.3333 0.5774 0.0000 (  3132 PWs)   bands (ev):

    -8.0347  -8.0347  -8.0060  -8.0060   3.3908   3.3908   3.6950   3.8825
     3.8825   3.9946   3.9946   4.2167   4.6645   4.6645   5.0064   5.0064
     5.4449   5.5633   5.5633   5.5905   5.5905   5.7054   6.2571   6.4030
     6.4030   6.5610   6.5610   6.8477   6.8478   7.2532   7.2532   8.2880
     8.3264   8.3264   9.1816   9.1816

     occupation numbers 
     1.0000   1.0000   1.0000   1.0000   1.0000   1.0000   1.0000   1.0000
     1.0000   1.0000   1.0000   1.0000   1.0000   1.0000   1.0000   1.0000
     1.0000   1.0000   1.0000   1.0000   1.0000   1.0000   1.0000   1.0000
     1.0000   1.0000   1.0000   1.0000   1.0000   1.0000   1.0000   1.0000
     1.0000   1.0000   1.0000   1.0000

          k = 0.3333 0.5774 0.0538 (  3126 PWs)   bands (ev):

    -8.0328  -8.0327  -8.0079  -8.0079   3.4265   3.4265   3.7001   3.8254
     3.9486   3.9505   3.9505   4.2002   4.6725   4.6725   4.9372   4.9372
     5.4514   5.5580   5.6218   5.6626   5.6626   5.7016   6.2922   6.3406
     6.3406   6.6044   6.6044   6.8331   6.8331   6.9989   7.5107   8.2503
     8.3839   8.3839   9.1238   9.1238

     occupation numbers 
     1.0000   1.0000   1.0000   1.0000   1.0000   1.0000   1.0000   1.0000
     1.0000   1.0000   1.0000   1.0000   1.0000   1.0000   1.0000   1.0000
     1.0000   1.0000   1.0000   1.0000   1.0000   1.0000   1.0000   1.0000
     1.0000   1.0000   1.0000   1.0000   1.0000   1.0000   1.0000   1.0000
     1.0000   1.0000   1.0000   1.0000

          k = 0.3333 0.5774 0.1075 (  3132 PWs)   bands (ev):

    -8.0276  -8.0275  -8.0132  -8.0132   3.5274   3.5274   3.7159   3.7782
     3.8308   3.8308   4.0199   4.1551   4.6979   4.6979   4.8269   4.8269
     5.4696   5.5258   5.6494   5.6906   5.8556   5.8556   6.2126   6.2126
     6.3949   6.6735   6.6735   6.7618   6.7939   6.7939   7.7554   8.1412
     8.5402   8.5403   8.9666   8.9666

     occupation numbers 
     1.0000   1.0000   1.0000   1.0000   1.0000   1.0000   1.0000   1.0000
     1.0000   1.0000   1.0000   1.0000   1.0000   1.0000   1.0000   1.0000
     1.0000   1.0000   1.0000   1.0000   1.0000   1.0000   1.0000   1.0000
     1.0000   1.0000   1.0000   1.0000   1.0000   1.0000   1.0000   1.0000
     1.0000   1.0000   1.0000   1.0000

          k = 0.3333 0.5774-0.1613 (  3138 PWs)   bands (ev):

    -8.0204  -8.0204  -8.0204  -8.0203   3.6740   3.6740   3.6740   3.6740
     3.7417   3.7417   4.0915   4.0915   4.7464   4.7464   4.7464   4.7464
     5.4955   5.4955   5.6729   5.6729   6.0481   6.0481   6.0482   6.0482
     6.5558   6.5558   6.7385   6.7386   6.7386   6.7386   7.9711   7.9711
     8.7532   8.7532   8.7532   8.7532

     occupation numbers 
     1.0000   1.0000   1.0000   1.0000   1.0000   1.0000   1.0000   1.0000
     1.0000   1.0000   1.0000   1.0000   1.0000   1.0000   1.0000   1.0000
     1.0000   1.0000   1.0000   1.0000   1.0000   1.0000   1.0000   1.0000
     1.0000   1.0000   1.0000   1.0000   1.0000   1.0000   1.0000   1.0000
     1.0000   1.0000   1.0000   1.0000

          k = 0.0000-0.1925 0.0538 (  3157 PWs)   bands (ev):

    -9.0633  -8.7093  -8.4432  -8.0725   3.1707   3.2423   3.4139   3.5984
     3.8294   3.8842   3.9032   3.9070   3.9314   3.9505   4.0825   4.0930
     5.5044   5.5859   5.7547   5.7558   5.8597   5.8914   5.9717   6.0379
     6.4648   7.9346   8.5863   8.6107   9.1560   9.2051   9.4753   9.6100
     9.7029   9.9342  10.2211  10.3649

     occupation numbers 
     1.0000   1.0000   1.0000   1.0000   1.0000   1.0000   1.0000   1.0000
     1.0000   1.0000   1.0000   1.0000   1.0000   1.0000   1.0000   1.0000
     1.0000   1.0000   1.0000   1.0000   1.0000   1.0000   1.0000   1.0000
     1.0000   1.0000   1.0000   1.0000   1.0000   1.0000   1.0000   1.0000
     1.0000   1.0000   1.0000   1.0000

          k = 0.0000-0.1925 0.1075 (  3150 PWs)   bands (ev):

    -9.0140  -8.8313  -8.3176  -8.1252   3.2010   3.3194   3.3593   3.4946
     3.8348   3.8610   3.9089   3.9245   3.9627   3.9898   4.0519   4.0606
     5.5469   5.6120   5.6798   5.7015   5.9021   5.9451   5.9584   6.0171
     6.7347   7.5278   8.6728   8.7900   9.0524   9.2209   9.3254   9.4566
     9.9395  10.0828  10.2040  10.3050

     occupation numbers 
     1.0000   1.0000   1.0000   1.0000   1.0000   1.0000   1.0000   1.0000
     1.0000   1.0000   1.0000   1.0000   1.0000   1.0000   1.0000   1.0000
     1.0000   1.0000   1.0000   1.0000   1.0000   1.0000   1.0000   1.0000
     1.0000   1.0000   1.0000   1.0000   1.0000   1.0000   1.0000   1.0000
     1.0000   1.0000   1.0000   1.0000

          k = 0.0000-0.3849 0.0538 (  3138 PWs)   bands (ev):

    -8.5894  -8.3419  -8.1671  -7.9417   2.9389   3.0009   3.1348   3.5423
     4.0512   4.1499   4.1704   4.1731   4.2339   4.2830   4.4833   4.5676
     5.4053   5.6860   5.7874   5.7971   5.8792   5.9684   6.0040   6.0584
     6.5749   7.0858   7.1804   7.4136   8.0784   8.1949   8.6764   8.8114
     9.2245   9.3848   9.6179   9.7592

     occupation numbers 
     1.0000   1.0000   1.0000   1.0000   1.0000   1.0000   1.0000   1.0000
     1.0000   1.0000   1.0000   1.0000   1.0000   1.0000   1.0000   1.0000
     1.0000   1.0000   1.0000   1.0000   1.0000   1.0000   1.0000   1.0000
     1.0000   1.0000   1.0000   1.0000   1.0000   1.0000   1.0000   1.0000
     1.0000   1.0000   1.0000   1.0000

          k = 0.0000-0.3849 0.1075 (  3147 PWs)   bands (ev):

    -8.5539  -8.4253  -8.0883  -7.9724   2.9739   3.0922   3.1058   3.4105
     4.0658   4.1256   4.1354   4.1536   4.3020   4.3444   4.4509   4.4796
     5.4842   5.6855   5.7018   5.7593   5.9192   5.9846   6.0399   6.1012
     6.7105   7.0418   7.2201   7.4746   8.0353   8.2873   8.2904   8.6096
     9.4100   9.5890   9.6636   9.6852

     occupation numbers 
     1.0000   1.0000   1.0000   1.0000   1.0000   1.0000   1.0000   1.0000
     1.0000   1.0000   1.0000   1.0000   1.0000   1.0000   1.0000   1.0000
     1.0000   1.0000   1.0000   1.0000   1.0000   1.0000   1.0000   1.0000
     1.0000   1.0000   1.0000   1.0000   1.0000   1.0000   1.0000   1.0000
     1.0000   1.0000   1.0000   1.0000

          k =-0.1667-0.4811 0.0538 (  3128 PWs)   bands (ev):

    -8.2931  -8.1389  -8.0399  -7.9269   3.0761   3.1085   3.3600   3.5830
     4.0344   4.0803   4.1308   4.2336   4.4675   4.5140   4.7242   4.8080
     5.4946   5.7202   5.7649   5.8198   6.0235   6.0403   6.0969   6.1383
     6.3564   6.6392   6.8343   6.9185   7.1347   7.6659   7.8223   8.2758
     8.8908   8.9441   9.2045   9.3257

     occupation numbers 
     1.0000   1.0000   1.0000   1.0000   1.0000   1.0000   1.0000   1.0000
     1.0000   1.0000   1.0000   1.0000   1.0000   1.0000   1.0000   1.0000
     1.0000   1.0000   1.0000   1.0000   1.0000   1.0000   1.0000   1.0000
     1.0000   1.0000   1.0000   1.0000   1.0000   1.0000   1.0000   1.0000
     1.0000   1.0000   1.0000   1.0000

          k =-0.1667-0.4811 0.1075 (  3134 PWs)   bands (ev):

    -8.2701  -8.1892  -7.9983  -7.9412   3.1339   3.2051   3.3010   3.4788
     4.0315   4.0558   4.1539   4.2077   4.4916   4.5769   4.6319   4.7365
     5.5557   5.7074   5.7837   5.8244   6.0108   6.0133   6.1911   6.1929
     6.3410   6.5204   6.9095   6.9726   7.2050   7.5869   7.8326   8.3528
     8.6847   8.8866   9.2645   9.3834

     occupation numbers 
     1.0000   1.0000   1.0000   1.0000   1.0000   1.0000   1.0000   1.0000
     1.0000   1.0000   1.0000   1.0000   1.0000   1.0000   1.0000   1.0000
     1.0000   1.0000   1.0000   1.0000   1.0000   1.0000   1.0000   1.0000
     1.0000   1.0000   1.0000   1.0000   1.0000   1.0000   1.0000   1.0000
     1.0000   1.0000   1.0000   1.0000

     highest occupied level (ev):    10.6556

!    total energy              =    -723.07465617 Ry
     estimated scf accuracy    <          8.9E-10 Ry

     The total energy is the sum of the following terms:
     one-electron contribution =    -255.66128733 Ry
     hartree contribution      =     218.20135873 Ry
     xc contribution           =    -220.15295355 Ry
     ewald contribution        =    -465.46177402 Ry

     convergence has been achieved in  23 iterations

     Forces acting on atoms (cartesian axes, Ry/au):

     atom    1 type  1   force =     0.00000000    0.00000000    0.01089357
     atom    2 type  2   force =     0.00000000    0.00000000   -0.01087051
     atom    3 type  1   force =     0.00000000    0.00000000    0.01086898
     atom    4 type  2   force =     0.00000000   -0.00000000   -0.01088456
     atom    5 type  1   force =     0.00000000    0.00000000    0.01087824
     atom    6 type  2   force =     0.00000000    0.00000000   -0.01086871
     atom    7 type  1   force =     0.00000000    0.00000000    0.01085903
     atom    8 type  2   force =     0.00000000   -0.00000000   -0.01087605
     The non-local contrib.  to forces
     atom    1 type  1   force =    -0.00000000    0.00000000    0.07709090
     atom    2 type  2   force =     0.00000000    0.00000000    0.04959578
     atom    3 type  1   force =    -0.00000000    0.00000000    0.07708870
     atom    4 type  2   force =     0.00000000    0.00000000    0.04958811
     atom    5 type  1   force =     0.00000000   -0.00000000    0.07708200
     atom    6 type  2   force =     0.00000000    0.00000000    0.04959729
     atom    7 type  1   force =     0.00000000   -0.00000000    0.07708174
     atom    8 type  2   force =     0.00000000    0.00000000    0.04959665
     The ionic contribution  to forces
     atom    1 type  1   force =    -0.00000000    0.00000000    0.48405863
     atom    2 type  2   force =     0.00000000   -0.00000000   -0.48405863
     atom    3 type  1   force =     0.00000000   -0.00000000    0.48405863
     atom    4 type  2   force =    -0.00000000    0.00000000   -0.48405863
     atom    5 type  1   force =    -0.00000000    0.00000000    0.48405863
     atom    6 type  2   force =     0.00000000   -0.00000000   -0.48405863
     atom    7 type  1   force =     0.00000000   -0.00000000    0.48405863
     atom    8 type  2   force =    -0.00000000    0.00000000   -0.48405863
     The local contribution  to forces
     atom    1 type  1   force =    -0.00000000    0.00000000   -0.54360376
     atom    2 type  2   force =     0.00000001   -0.00000001    0.42389081
     atom    3 type  1   force =     0.00000004   -0.00000002   -0.54358904
     atom    4 type  2   force =     0.00000000    0.00000000    0.42390759
     atom    5 type  1   force =    -0.00000000    0.00000000   -0.54358619
     atom    6 type  2   force =     0.00000001   -0.00000001    0.42391202
     atom    7 type  1   force =     0.00000004   -0.00000002   -0.54357324
     atom    8 type  2   force =    -0.00000000    0.00000000    0.42391659
     The core correction contribution to forces
     atom    1 type  1   force =     0.00000000   -0.00000000   -0.00668567
     atom    2 type  2   force =    -0.00000000    0.00000000   -0.00031481
     atom    3 type  1   force =     0.00000001   -0.00000000   -0.00668549
     atom    4 type  2   force =    -0.00000000    0.00000000   -0.00031467
     atom    5 type  1   force =     0.00000000    0.00000000   -0.00668522
     atom    6 type  2   force =    -0.00000000    0.00000000   -0.00031476
     atom    7 type  1   force =     0.00000001   -0.00000000   -0.00668544
     atom    8 type  2   force =    -0.00000000    0.00000000   -0.00031476
     The Hubbard contrib.    to forces
     atom    1 type  1   force =     0.00000000    0.00000000    0.00000000
     atom    2 type  2   force =     0.00000000    0.00000000    0.00000000
     atom    3 type  1   force =     0.00000000    0.00000000    0.00000000
     atom    4 type  2   force =     0.00000000    0.00000000    0.00000000
     atom    5 type  1   force =     0.00000000    0.00000000    0.00000000
     atom    6 type  2   force =     0.00000000    0.00000000    0.00000000
     atom    7 type  1   force =     0.00000000    0.00000000    0.00000000
     atom    8 type  2   force =     0.00000000    0.00000000    0.00000000
     The SCF correction term to forces
     atom    1 type  1   force =     0.00000000   -0.00000000    0.00003776
     atom    2 type  2   force =    -0.00000000    0.00000000    0.00002063
     atom    3 type  1   force =    -0.00000000    0.00000000    0.00000048
     atom    4 type  2   force =     0.00000000   -0.00000000   -0.00000267
     atom    5 type  1   force =     0.00000000   -0.00000000    0.00001331
     atom    6 type  2   force =    -0.00000000    0.00000000   -0.00000033
     atom    7 type  1   force =    -0.00000000    0.00000000   -0.00001836
     atom    8 type  2   force =     0.00000000   -0.00000000   -0.00001160

     Total force =     0.030759     Total SCF correction =     0.000050

     init_run     :      3.61s CPU      3.76s WALL (       1 calls)
     electrons    :    127.08s CPU    132.63s WALL (       1 calls)
     forces       :      0.92s CPU      0.93s WALL (       1 calls)

     Called by init_run:
     wfcinit      :      1.73s CPU      1.83s WALL (       1 calls)
     wfcinit:atom :      0.02s CPU      0.02s WALL (      17 calls)
     wfcinit:wfcr :      1.61s CPU      1.70s WALL (      17 calls)
     potinit      :      0.45s CPU      0.46s WALL (       1 calls)
     hinit0       :      0.90s CPU      0.91s WALL (       1 calls)

     Called by electrons:
     c_bands      :    109.35s CPU    113.98s WALL (      23 calls)
     sum_band     :     14.42s CPU     15.26s WALL (      23 calls)
     v_of_rho     :      1.25s CPU      1.31s WALL (      24 calls)
     v_h          :      0.07s CPU      0.08s WALL (      24 calls)
     v_xc         :      1.23s CPU      1.28s WALL (      25 calls)
     newd         :      1.90s CPU      1.94s WALL (      24 calls)
     mix_rho      :      0.20s CPU      0.21s WALL (      23 calls)

     Called by c_bands:
     init_us_2    :      0.79s CPU      0.81s WALL (     816 calls)
     init_us_2:cp :      0.79s CPU      0.81s WALL (     816 calls)
     cegterg      :    100.03s CPU    104.62s WALL (     391 calls)

     Called by sum_band:
     sum_band:wei :      0.00s CPU      0.00s WALL (      23 calls)
     sum_band:loo :     12.13s CPU     12.84s WALL (      23 calls)
     sum_band:buf :      0.06s CPU      0.06s WALL (     391 calls)
     sum_band:ini :      0.38s CPU      0.39s WALL (     391 calls)
     sum_band:cal :      1.35s CPU      1.39s WALL (     391 calls)
     sum_band:bec :      0.04s CPU      0.04s WALL (     391 calls)
     addusdens    :      2.00s CPU      2.09s WALL (      23 calls)
                                        0.00s GPU  (      23 calls)
     addusd:skk   :      0.02s CPU      0.02s WALL (      46 calls)
                                        0.00s GPU  (      46 calls)

     Called by *egterg:
     cdiaghg      :      8.58s CPU      8.60s WALL (    2052 calls)
     cegterg:over :      4.51s CPU      4.64s WALL (    1661 calls)
     cegterg:upda :      2.74s CPU      2.75s WALL (    1661 calls)
     cegterg:last :      6.52s CPU      6.52s WALL (    1183 calls)
     h_psi        :     72.21s CPU     76.67s WALL (    2069 calls)
     s_psi        :      4.95s CPU      4.97s WALL (    2069 calls)
     g_psi        :      0.28s CPU      0.28s WALL (    1661 calls)

     Called by h_psi:
     h_psi:calbec :      4.69s CPU      4.88s WALL (    2069 calls)
     vloc_psi     :     62.31s CPU     66.55s WALL (    2069 calls)
     add_vuspsi   :      5.03s CPU      5.05s WALL (    2069 calls)

     General routines
     calbec       :      6.26s CPU      6.50s WALL (    2528 calls)
     fft          :      1.02s CPU      1.09s WALL (     321 calls)
     ffts         :      0.10s CPU      0.11s WALL (      47 calls)
     fftw         :     62.49s CPU     66.76s WALL (  106484 calls)
     interpolate  :      0.14s CPU      0.15s WALL (      24 calls)

     Parallel routines

     PWSCF        :   2m12.13s CPU   2m17.86s WALL


   This run was terminated on:  11:48: 0  13Jul2025            

=------------------------------------------------------------------------------=
   JOB DONE.
=------------------------------------------------------------------------------=
Note: The following floating-point exceptions are signalling: IEEE_INVALID_FLAG
Note: The following floating-point exceptions are signalling: IEEE_INVALID_FLAG
