Authorization required, but no authorization protocol specified

Authorization required, but no authorization protocol specified

Authorization required, but no authorization protocol specified

Authorization required, but no authorization protocol specified

Authorization required, but no authorization protocol specified

Authorization required, but no authorization protocol specified

Authorization required, but no authorization protocol specified

Authorization required, but no authorization protocol specified

Authorization required, but no authorization protocol specified

Authorization required, but no authorization protocol specified


     Program PWSCF v.7.2 starts on 13Jul2025 at 15:39:23 

     This program is part of the open-source Quantum ESPRESSO suite
     for quantum simulation of materials; please cite
         "P. Giannozzi et al., J. Phys.:Condens. Matter 21 395502 (2009);
         "P. Giannozzi et al., J. Phys.:Condens. Matter 29 465901 (2017);
         "P. Giannozzi et al., J. Chem. Phys. 152 154105 (2020);
          URL http://www.quantum-espresso.org", 
     in publications or presentations arising from this work. More details at
     http://www.quantum-espresso.org/quote

     Parallel version (MPI), running on     8 processors

     MPI processes distributed on     1 nodes
     56212 MiB available memory on the printing compute node when the environment starts

     Reading input from /home/jvc/QEspresso7.2/ZnO_database/scripts/cell112.in/ZnO-3.40-1.78-112.in
Warning: card &CELL ignored
Warning: card / ignored
Warning: card &FCP ignored
Warning: card / ignored
Warning: card &RISM ignored
Warning: card / ignored

     Current dimensions of program PWSCF are:
     Max number of different atomic species (ntypx) = 10
     Max number of k-points (npk) =  40000
     Max angular momentum in pseudopotentials (lmaxx) =  4
     file Zn.upf: wavefunction(s)  3D renormalized
     Found identity + (  0.0000  0.0000  0.5000) symmetry
     This is a supercell, fractional translations are disabled
     Message from routine setup:
     using ibrav=0 with symmetry is DISCOURAGED, use correct ibrav instead

     K-points division:     npool     =       2
     R & G space division:  proc/nbgrp/npool/nimage =       4
     Subspace diagonalization in iterative solution of the eigenvalue problem:
     a serial algorithm will be used


     Parallelization info
     --------------------
     sticks:   dense  smooth     PW     G-vecs:    dense   smooth      PW
     Min         286     142     40                27580     9740    1564
     Max         288     144     41                27587     9747    1581
     Sum        1147     571    163               110335    38977    6303

     Using Slab Decomposition



     bravais-lattice index     =            0
     lattice parameter (alat)  =       6.4260  a.u.
     unit-cell volume          =     816.1633 (a.u.)^3
     number of atoms/cell      =            8
     number of atomic types    =            2
     number of electrons       =        72.00
     number of Kohn-Sham states=           36
     kinetic-energy cutoff     =      50.0000  Ry
     charge density cutoff     =     400.0000  Ry
     scf convergence threshold =      1.0E-08
     mixing beta               =       0.3000
     number of iterations used =            8  plain     mixing
     Exchange-correlation= PBE
                           (   1   4   3   4   0   0   0)

     celldm(1)=   6.426008  celldm(2)=   0.000000  celldm(3)=   0.000000
     celldm(4)=   0.000000  celldm(5)=   0.000000  celldm(6)=   0.000000

     crystal axes: (cart. coord. in units of alat)
               a(1) = (   1.000000   0.000000   0.000000 )  
               a(2) = (  -0.500000   0.866025   0.000000 )  
               a(3) = (   0.000000   0.000000   3.551588 )  

     reciprocal axes: (cart. coord. in units 2 pi/alat)
               b(1) = (  1.000000  0.577350 -0.000000 )  
               b(2) = (  0.000000  1.154701  0.000000 )  
               b(3) = (  0.000000 -0.000000  0.281564 )  


     PseudoPot. # 1 for Zn read from file:
     /home/jvc/QEspresso7.2/ZnO_database/pseudos/Zn.upf
     MD5 check sum: 7f56cabf9682ed8c977c2f7d0c5985c5
     Pseudo is Ultrasoft + core correction, Zval = 12.0
     Generated using &quot;atomic&quot; code by A. Dal Corso  v.6.2.2
     Using radial grid of 1201 points,  6 beta functions with: 
                l(1) =   0
                l(2) =   0
                l(3) =   1
                l(4) =   1
                l(5) =   2
                l(6) =   2
     Q(r) pseudized with 0 coefficients 


     PseudoPot. # 2 for O  read from file:
     /home/jvc/QEspresso7.2/ZnO_database/pseudos/O.upf
     MD5 check sum: 91400c9766925bcf19f520983a725ff0
     Pseudo is Ultrasoft + core correction, Zval =  6.0
     Generated using &quot;atomic&quot; code by A. Dal Corso  v.6.3MaX
     Using radial grid of 1095 points,  4 beta functions with: 
                l(1) =   0
                l(2) =   0
                l(3) =   1
                l(4) =   1
     Q(r) pseudized with 0 coefficients 


     atomic species   valence    mass     pseudopotential
        Zn            12.00    65.38000     Zn( 1.00)
        O              6.00    15.99900     O ( 1.00)

      6 Sym. Ops. (no inversion) found


                                    s                        frac. trans.

      isym =  1     identity                                     

 cryst.   s( 1) = (     1          0          0      )
                  (     0          1          0      )
                  (     0          0          1      )

 cart.    s( 1) = (  1.0000000  0.0000000  0.0000000 )
                  (  0.0000000  1.0000000  0.0000000 )
                  (  0.0000000  0.0000000  1.0000000 )


      isym =  2     120 deg rotation - cryst. axis [0,0,1]       

 cryst.   s( 2) = (     0          1          0      )
                  (    -1         -1          0      )
                  (     0          0          1      )

 cart.    s( 2) = ( -0.5000000 -0.8660254  0.0000000 )
                  (  0.8660254 -0.5000000  0.0000000 )
                  (  0.0000000  0.0000000  1.0000000 )


      isym =  3     120 deg rotation - cryst. axis [0,0,-1]      

 cryst.   s( 3) = (    -1         -1          0      )
                  (     1          0          0      )
                  (     0          0          1      )

 cart.    s( 3) = ( -0.5000000  0.8660254  0.0000000 )
                  ( -0.8660254 -0.5000000  0.0000000 )
                  (  0.0000000  0.0000000  1.0000000 )


      isym =  4     inv. 180 deg rotation - cart. axis [1,0,0]   

 cryst.   s( 4) = (    -1          0          0      )
                  (     1          1          0      )
                  (     0          0          1      )

 cart.    s( 4) = ( -1.0000000  0.0000000  0.0000000 )
                  (  0.0000000  1.0000000  0.0000000 )
                  (  0.0000000  0.0000000  1.0000000 )


      isym =  5     inv. 180 deg rotation - cryst. axis [0,1,0]  

 cryst.   s( 5) = (     1          1          0      )
                  (     0         -1          0      )
                  (     0          0          1      )

 cart.    s( 5) = (  0.5000000  0.8660254  0.0000000 )
                  (  0.8660254 -0.5000000  0.0000000 )
                  (  0.0000000  0.0000000  1.0000000 )


      isym =  6     inv. 180 deg rotation - cryst. axis [1,1,0]  

 cryst.   s( 6) = (     0         -1          0      )
                  (    -1          0          0      )
                  (     0          0          1      )

 cart.    s( 6) = (  0.5000000 -0.8660254  0.0000000 )
                  ( -0.8660254 -0.5000000  0.0000000 )
                  (  0.0000000  0.0000000  1.0000000 )


   Cartesian axes

     site n.     atom                  positions (alat units)
         1           Zn  tau(   1) = (   0.0000000   0.0000000   0.0000000  )
         2           O   tau(   2) = (  -0.0000000   0.5773503   0.2562391  )
         3           Zn  tau(   3) = (  -0.0000000   0.5773503   0.8878971  )
         4           O   tau(   4) = (   0.0000000   0.0000000   1.1441362  )
         5           Zn  tau(   5) = (   0.0000000   0.0000000   1.7757942  )
         6           O   tau(   6) = (  -0.0000000   0.5773503   2.0320333  )
         7           Zn  tau(   7) = (  -0.0000000   0.5773503   2.6636913  )
         8           O   tau(   8) = (   0.0000000   0.0000000   2.9199304  )

   Crystallographic axes

     site n.     atom                  positions (cryst. coord.)
         1           Zn  tau(   1) = (  0.0000000  0.0000000  0.0000000  )
         2           O   tau(   2) = (  0.3333333  0.6666667  0.0721477  )
         3           Zn  tau(   3) = (  0.3333333  0.6666667  0.2500000  )
         4           O   tau(   4) = (  0.0000000  0.0000000  0.3221477  )
         5           Zn  tau(   5) = (  0.0000000  0.0000000  0.5000000  )
         6           O   tau(   6) = (  0.3333333  0.6666667  0.5721477  )
         7           Zn  tau(   7) = (  0.3333333  0.6666667  0.7500000  )
         8           O   tau(   8) = (  0.0000000  0.0000000  0.8221477  )

     number of k points=    34
                       cart. coord. in units 2pi/alat
        k(    1) = (   0.0000000   0.0000000   0.0000000), wk =   0.0092593
        k(    2) = (   0.0000000   0.0000000   0.0469274), wk =   0.0185185
        k(    3) = (   0.0000000   0.0000000   0.0938547), wk =   0.0185185
        k(    4) = (   0.0000000   0.0000000  -0.1407821), wk =   0.0092593
        k(    5) = (   0.0000000   0.1924501   0.0000000), wk =   0.0555556
        k(    6) = (   0.0000000   0.1924501   0.0469274), wk =   0.0555556
        k(    7) = (   0.0000000   0.1924501   0.0938547), wk =   0.0555556
        k(    8) = (   0.0000000   0.1924501  -0.1407821), wk =   0.0555556
        k(    9) = (   0.0000000   0.3849002   0.0000000), wk =   0.0555556
        k(   10) = (   0.0000000   0.3849002   0.0469274), wk =   0.0555556
        k(   11) = (   0.0000000   0.3849002   0.0938547), wk =   0.0555556
        k(   12) = (   0.0000000   0.3849002  -0.1407821), wk =   0.0555556
        k(   13) = (   0.0000000  -0.5773503   0.0000000), wk =   0.0277778
        k(   14) = (   0.0000000  -0.5773503   0.0469274), wk =   0.0555556
        k(   15) = (   0.0000000  -0.5773503   0.0938547), wk =   0.0555556
        k(   16) = (   0.0000000  -0.5773503  -0.1407821), wk =   0.0277778
        k(   17) = (   0.1666667   0.2886751   0.0000000), wk =   0.0555556
        k(   18) = (   0.1666667   0.2886751   0.0469274), wk =   0.1111111
        k(   19) = (   0.1666667   0.2886751   0.0938547), wk =   0.1111111
        k(   20) = (   0.1666667   0.2886751  -0.1407821), wk =   0.0555556
        k(   21) = (   0.1666667   0.4811252   0.0000000), wk =   0.1111111
        k(   22) = (   0.1666667   0.4811252   0.0469274), wk =   0.1111111
        k(   23) = (   0.1666667   0.4811252   0.0938547), wk =   0.1111111
        k(   24) = (   0.1666667   0.4811252  -0.1407821), wk =   0.1111111
        k(   25) = (   0.3333333   0.5773503   0.0000000), wk =   0.0185185
        k(   26) = (   0.3333333   0.5773503   0.0469274), wk =   0.0370370
        k(   27) = (   0.3333333   0.5773503   0.0938547), wk =   0.0370370
        k(   28) = (   0.3333333   0.5773503  -0.1407821), wk =   0.0185185
        k(   29) = (   0.0000000  -0.1924501   0.0469274), wk =   0.0555556
        k(   30) = (   0.0000000  -0.1924501   0.0938547), wk =   0.0555556
        k(   31) = (   0.0000000  -0.3849002   0.0469274), wk =   0.0555556
        k(   32) = (   0.0000000  -0.3849002   0.0938547), wk =   0.0555556
        k(   33) = (  -0.1666667  -0.4811252   0.0469274), wk =   0.1111111
        k(   34) = (  -0.1666667  -0.4811252   0.0938547), wk =   0.1111111

                       cryst. coord.
        k(    1) = (   0.0000000   0.0000000   0.0000000), wk =   0.0092593
        k(    2) = (   0.0000000   0.0000000   0.1666667), wk =   0.0185185
        k(    3) = (   0.0000000   0.0000000   0.3333333), wk =   0.0185185
        k(    4) = (   0.0000000   0.0000000  -0.5000000), wk =   0.0092593
        k(    5) = (   0.0000000   0.1666667   0.0000000), wk =   0.0555556
        k(    6) = (   0.0000000   0.1666667   0.1666667), wk =   0.0555556
        k(    7) = (   0.0000000   0.1666667   0.3333333), wk =   0.0555556
        k(    8) = (   0.0000000   0.1666667  -0.5000000), wk =   0.0555556
        k(    9) = (   0.0000000   0.3333333   0.0000000), wk =   0.0555556
        k(   10) = (   0.0000000   0.3333333   0.1666667), wk =   0.0555556
        k(   11) = (   0.0000000   0.3333333   0.3333333), wk =   0.0555556
        k(   12) = (   0.0000000   0.3333333  -0.5000000), wk =   0.0555556
        k(   13) = (   0.0000000  -0.5000000   0.0000000), wk =   0.0277778
        k(   14) = (   0.0000000  -0.5000000   0.1666667), wk =   0.0555556
        k(   15) = (   0.0000000  -0.5000000   0.3333333), wk =   0.0555556
        k(   16) = (   0.0000000  -0.5000000  -0.5000000), wk =   0.0277778
        k(   17) = (   0.1666667   0.1666667   0.0000000), wk =   0.0555556
        k(   18) = (   0.1666667   0.1666667   0.1666667), wk =   0.1111111
        k(   19) = (   0.1666667   0.1666667   0.3333333), wk =   0.1111111
        k(   20) = (   0.1666667   0.1666667  -0.5000000), wk =   0.0555556
        k(   21) = (   0.1666667   0.3333333   0.0000000), wk =   0.1111111
        k(   22) = (   0.1666667   0.3333333   0.1666667), wk =   0.1111111
        k(   23) = (   0.1666667   0.3333333   0.3333333), wk =   0.1111111
        k(   24) = (   0.1666667   0.3333333  -0.5000000), wk =   0.1111111
        k(   25) = (   0.3333333   0.3333333   0.0000000), wk =   0.0185185
        k(   26) = (   0.3333333   0.3333333   0.1666667), wk =   0.0370370
        k(   27) = (   0.3333333   0.3333333   0.3333333), wk =   0.0370370
        k(   28) = (   0.3333333   0.3333333  -0.5000000), wk =   0.0185185
        k(   29) = (   0.0000000  -0.1666667   0.1666667), wk =   0.0555556
        k(   30) = (   0.0000000  -0.1666667   0.3333333), wk =   0.0555556
        k(   31) = (   0.0000000  -0.3333333   0.1666667), wk =   0.0555556
        k(   32) = (   0.0000000  -0.3333333   0.3333333), wk =   0.0555556
        k(   33) = (  -0.1666667  -0.3333333   0.1666667), wk =   0.1111111
        k(   34) = (  -0.1666667  -0.3333333   0.3333333), wk =   0.1111111

     Dense  grid:   110335 G-vectors     FFT dimensions: (  45,  45, 150)

     Smooth grid:    38977 G-vectors     FFT dimensions: (  30,  30, 108)

     Dynamical RAM for                 wfc:       0.67 MB

     Dynamical RAM for     wfc (w. buffer):      12.04 MB

     Dynamical RAM for           str. fact:       0.84 MB

     Dynamical RAM for           local pot:       0.00 MB

     Dynamical RAM for          nlocal pot:       1.93 MB

     Dynamical RAM for                qrad:       3.21 MB

     Dynamical RAM for          rho,v,vnew:       3.02 MB

     Dynamical RAM for               rhoin:       1.01 MB

     Dynamical RAM for            rho*nmix:       6.74 MB

     Dynamical RAM for           G-vectors:       1.65 MB

     Dynamical RAM for          h,s,v(r/c):       0.24 MB

     Dynamical RAM for          <psi|beta>:       0.06 MB

     Dynamical RAM for                 psi:       1.34 MB

     Dynamical RAM for                hpsi:       1.34 MB

     Dynamical RAM for                spsi:       1.34 MB

     Dynamical RAM for      wfcinit/wfcrot:       2.00 MB

     Dynamical RAM for           addusdens:      40.20 MB

     Dynamical RAM for          addusforce:      41.48 MB

     Estimated static dynamical RAM per process >      27.91 MB

     Estimated max dynamical RAM per process >      76.12 MB

     Estimated total dynamical RAM >     582.05 MB

     Check: negative core charge=   -0.000002

     Initial potential from superposition of free atoms

     starting charge      71.9851, renormalised to      72.0000
     Starting wfcs are   52 randomized atomic wfcs

     total cpu time spent up to now is        5.1 secs

     Self-consistent Calculation

     iteration #  1     ecut=    50.00 Ry     beta= 0.30
     Davidson diagonalization with overlap

---- Real-time Memory Report at c_bands before calling an iterative solver
            91 MiB given to the printing process from OS
             0 MiB allocation reported by mallinfo(arena+hblkhd)
         55785 MiB available memory on the node where the printing process lives
------------------
     ethr =  1.00E-02,  avg # of iterations =  1.3

     total cpu time spent up to now is       10.5 secs

     total energy              =    -722.76117239 Ry
     estimated scf accuracy    <       1.61509221 Ry

     iteration #  2     ecut=    50.00 Ry     beta= 0.30
     Davidson diagonalization with overlap

---- Real-time Memory Report at c_bands before calling an iterative solver
           113 MiB given to the printing process from OS
             0 MiB allocation reported by mallinfo(arena+hblkhd)
         55651 MiB available memory on the node where the printing process lives
------------------
     ethr =  2.24E-03,  avg # of iterations =  2.4

     total cpu time spent up to now is       17.0 secs

     total energy              =    -723.00289643 Ry
     estimated scf accuracy    <       0.18291297 Ry

     iteration #  3     ecut=    50.00 Ry     beta= 0.30
     Davidson diagonalization with overlap

---- Real-time Memory Report at c_bands before calling an iterative solver
           114 MiB given to the printing process from OS
             0 MiB allocation reported by mallinfo(arena+hblkhd)
         55678 MiB available memory on the node where the printing process lives
------------------
     ethr =  2.54E-04,  avg # of iterations =  6.6

     total cpu time spent up to now is       26.9 secs

     total energy              =    -723.00860350 Ry
     estimated scf accuracy    <       0.26774642 Ry

     iteration #  4     ecut=    50.00 Ry     beta= 0.30
     Davidson diagonalization with overlap

---- Real-time Memory Report at c_bands before calling an iterative solver
           115 MiB given to the printing process from OS
             0 MiB allocation reported by mallinfo(arena+hblkhd)
         55685 MiB available memory on the node where the printing process lives
------------------
     ethr =  2.54E-04,  avg # of iterations = 10.0

     total cpu time spent up to now is       42.5 secs

     total energy              =    -723.23841070 Ry
     estimated scf accuracy    <       0.91787787 Ry

     iteration #  5     ecut=    50.00 Ry     beta= 0.30
     Davidson diagonalization with overlap

---- Real-time Memory Report at c_bands before calling an iterative solver
           115 MiB given to the printing process from OS
             0 MiB allocation reported by mallinfo(arena+hblkhd)
         55684 MiB available memory on the node where the printing process lives
------------------
     ethr =  2.54E-04,  avg # of iterations =  1.2

     total cpu time spent up to now is       47.8 secs

     total energy              =    -722.81824080 Ry
     estimated scf accuracy    <       0.63751701 Ry

     iteration #  6     ecut=    50.00 Ry     beta= 0.30
     Davidson diagonalization with overlap

---- Real-time Memory Report at c_bands before calling an iterative solver
           115 MiB given to the printing process from OS
             0 MiB allocation reported by mallinfo(arena+hblkhd)
         55690 MiB available memory on the node where the printing process lives
------------------
     ethr =  2.54E-04,  avg # of iterations =  9.0

     total cpu time spent up to now is       59.6 secs

     total energy              =    -723.13684346 Ry
     estimated scf accuracy    <       0.72634973 Ry

     iteration #  7     ecut=    50.00 Ry     beta= 0.30
     Davidson diagonalization with overlap

---- Real-time Memory Report at c_bands before calling an iterative solver
           116 MiB given to the printing process from OS
             0 MiB allocation reported by mallinfo(arena+hblkhd)
         55682 MiB available memory on the node where the printing process lives
------------------
     ethr =  2.54E-04,  avg # of iterations =  2.2

     total cpu time spent up to now is       65.8 secs

     total energy              =    -723.15250765 Ry
     estimated scf accuracy    <       0.34891411 Ry

     iteration #  8     ecut=    50.00 Ry     beta= 0.30
     Davidson diagonalization with overlap

---- Real-time Memory Report at c_bands before calling an iterative solver
           116 MiB given to the printing process from OS
             0 MiB allocation reported by mallinfo(arena+hblkhd)
         55686 MiB available memory on the node where the printing process lives
------------------
     ethr =  2.54E-04,  avg # of iterations =  1.9

     total cpu time spent up to now is       71.4 secs

     total energy              =    -723.16139147 Ry
     estimated scf accuracy    <       0.27871904 Ry

     iteration #  9     ecut=    50.00 Ry     beta= 0.30
     Davidson diagonalization with overlap

---- Real-time Memory Report at c_bands before calling an iterative solver
           116 MiB given to the printing process from OS
             0 MiB allocation reported by mallinfo(arena+hblkhd)
         55672 MiB available memory on the node where the printing process lives
------------------
     ethr =  2.54E-04,  avg # of iterations =  1.9

     total cpu time spent up to now is       76.9 secs

     total energy              =    -723.17430402 Ry
     estimated scf accuracy    <       0.22945050 Ry

     iteration # 10     ecut=    50.00 Ry     beta= 0.30
     Davidson diagonalization with overlap

---- Real-time Memory Report at c_bands before calling an iterative solver
           117 MiB given to the printing process from OS
             0 MiB allocation reported by mallinfo(arena+hblkhd)
         55661 MiB available memory on the node where the printing process lives
------------------
     ethr =  2.54E-04,  avg # of iterations =  1.0

     total cpu time spent up to now is       81.5 secs

     total energy              =    -723.14426846 Ry
     estimated scf accuracy    <       0.21842455 Ry

     iteration # 11     ecut=    50.00 Ry     beta= 0.30
     Davidson diagonalization with overlap

---- Real-time Memory Report at c_bands before calling an iterative solver
           117 MiB given to the printing process from OS
             0 MiB allocation reported by mallinfo(arena+hblkhd)
         55873 MiB available memory on the node where the printing process lives
------------------
     ethr =  2.54E-04,  avg # of iterations =  2.0

     total cpu time spent up to now is       87.0 secs

     total energy              =    -723.14495447 Ry
     estimated scf accuracy    <       0.12608556 Ry

     iteration # 12     ecut=    50.00 Ry     beta= 0.30
     Davidson diagonalization with overlap

---- Real-time Memory Report at c_bands before calling an iterative solver
           117 MiB given to the printing process from OS
             0 MiB allocation reported by mallinfo(arena+hblkhd)
         55851 MiB available memory on the node where the printing process lives
------------------
     ethr =  1.75E-04,  avg # of iterations =  2.4

     total cpu time spent up to now is       92.7 secs

     total energy              =    -723.18337984 Ry
     estimated scf accuracy    <       0.08972983 Ry

     iteration # 13     ecut=    50.00 Ry     beta= 0.30
     Davidson diagonalization with overlap

---- Real-time Memory Report at c_bands before calling an iterative solver
           117 MiB given to the printing process from OS
             0 MiB allocation reported by mallinfo(arena+hblkhd)
         55847 MiB available memory on the node where the printing process lives
------------------
     ethr =  1.25E-04,  avg # of iterations =  1.2

     total cpu time spent up to now is       97.9 secs

     total energy              =    -723.21678672 Ry
     estimated scf accuracy    <       0.14996996 Ry

     iteration # 14     ecut=    50.00 Ry     beta= 0.30
     Davidson diagonalization with overlap

---- Real-time Memory Report at c_bands before calling an iterative solver
           117 MiB given to the printing process from OS
             0 MiB allocation reported by mallinfo(arena+hblkhd)
         55675 MiB available memory on the node where the printing process lives
------------------
     ethr =  1.25E-04,  avg # of iterations =  2.0

     total cpu time spent up to now is      103.7 secs

     total energy              =    -723.21284334 Ry
     estimated scf accuracy    <       0.25099031 Ry

     iteration # 15     ecut=    50.00 Ry     beta= 0.30
     Davidson diagonalization with overlap

---- Real-time Memory Report at c_bands before calling an iterative solver
           117 MiB given to the printing process from OS
             0 MiB allocation reported by mallinfo(arena+hblkhd)
         55669 MiB available memory on the node where the printing process lives
------------------
     ethr =  1.25E-04,  avg # of iterations =  1.0

     total cpu time spent up to now is      108.8 secs

     total energy              =    -723.27736117 Ry
     estimated scf accuracy    <       0.25878269 Ry

     iteration # 16     ecut=    50.00 Ry     beta= 0.30
     Davidson diagonalization with overlap

---- Real-time Memory Report at c_bands before calling an iterative solver
           117 MiB given to the printing process from OS
             0 MiB allocation reported by mallinfo(arena+hblkhd)
         55676 MiB available memory on the node where the printing process lives
------------------
     ethr =  1.25E-04,  avg # of iterations =  3.0

     total cpu time spent up to now is      114.9 secs

     total energy              =    -723.22257418 Ry
     estimated scf accuracy    <       0.43240615 Ry

     iteration # 17     ecut=    50.00 Ry     beta= 0.30
     Davidson diagonalization with overlap

---- Real-time Memory Report at c_bands before calling an iterative solver
           117 MiB given to the printing process from OS
             0 MiB allocation reported by mallinfo(arena+hblkhd)
         55682 MiB available memory on the node where the printing process lives
------------------
     ethr =  1.25E-04,  avg # of iterations =  1.0

     total cpu time spent up to now is      120.0 secs

     total energy              =    -723.06652208 Ry
     estimated scf accuracy    <       0.33809045 Ry

     iteration # 18     ecut=    50.00 Ry     beta= 0.30
     Davidson diagonalization with overlap

---- Real-time Memory Report at c_bands before calling an iterative solver
           117 MiB given to the printing process from OS
             0 MiB allocation reported by mallinfo(arena+hblkhd)
         55670 MiB available memory on the node where the printing process lives
------------------
     ethr =  1.25E-04,  avg # of iterations =  6.1

     total cpu time spent up to now is      129.4 secs

     total energy              =    -723.14429737 Ry
     estimated scf accuracy    <       0.01038561 Ry

     iteration # 19     ecut=    50.00 Ry     beta= 0.30
     Davidson diagonalization with overlap

---- Real-time Memory Report at c_bands before calling an iterative solver
           117 MiB given to the printing process from OS
             0 MiB allocation reported by mallinfo(arena+hblkhd)
         55682 MiB available memory on the node where the printing process lives
------------------
     ethr =  1.44E-05,  avg # of iterations =  4.9

     total cpu time spent up to now is      137.4 secs

     total energy              =    -723.15047594 Ry
     estimated scf accuracy    <       0.00148863 Ry

     iteration # 20     ecut=    50.00 Ry     beta= 0.30
     Davidson diagonalization with overlap

---- Real-time Memory Report at c_bands before calling an iterative solver
           117 MiB given to the printing process from OS
             0 MiB allocation reported by mallinfo(arena+hblkhd)
         55672 MiB available memory on the node where the printing process lives
------------------
     ethr =  2.07E-06,  avg # of iterations =  8.2

     total cpu time spent up to now is      149.2 secs

     total energy              =    -723.14682149 Ry
     estimated scf accuracy    <       0.02134993 Ry

     iteration # 21     ecut=    50.00 Ry     beta= 0.30
     Davidson diagonalization with overlap

---- Real-time Memory Report at c_bands before calling an iterative solver
           117 MiB given to the printing process from OS
             0 MiB allocation reported by mallinfo(arena+hblkhd)
         55677 MiB available memory on the node where the printing process lives
------------------
     ethr =  2.07E-06,  avg # of iterations =  6.8

     total cpu time spent up to now is      159.0 secs

     total energy              =    -723.14932241 Ry
     estimated scf accuracy    <       0.00297882 Ry

     iteration # 22     ecut=    50.00 Ry     beta= 0.30
     Davidson diagonalization with overlap

---- Real-time Memory Report at c_bands before calling an iterative solver
           117 MiB given to the printing process from OS
             0 MiB allocation reported by mallinfo(arena+hblkhd)
         55685 MiB available memory on the node where the printing process lives
------------------
     ethr =  2.07E-06,  avg # of iterations =  2.0

     total cpu time spent up to now is      164.6 secs

     total energy              =    -723.15307911 Ry
     estimated scf accuracy    <       0.00500717 Ry

     iteration # 23     ecut=    50.00 Ry     beta= 0.30
     Davidson diagonalization with overlap

---- Real-time Memory Report at c_bands before calling an iterative solver
           117 MiB given to the printing process from OS
             0 MiB allocation reported by mallinfo(arena+hblkhd)
         55672 MiB available memory on the node where the printing process lives
------------------
     c_bands:  1 eigenvalues not converged
     ethr =  2.07E-06,  avg # of iterations =  7.9

     total cpu time spent up to now is      175.7 secs

     total energy              =    -723.15424143 Ry
     estimated scf accuracy    <       0.03294216 Ry

     iteration # 24     ecut=    50.00 Ry     beta= 0.30
     Davidson diagonalization with overlap

---- Real-time Memory Report at c_bands before calling an iterative solver
           117 MiB given to the printing process from OS
             0 MiB allocation reported by mallinfo(arena+hblkhd)
         55677 MiB available memory on the node where the printing process lives
------------------
     ethr =  2.07E-06,  avg # of iterations =  1.1

     total cpu time spent up to now is      180.8 secs

     total energy              =    -723.15457886 Ry
     estimated scf accuracy    <       0.03073589 Ry

     iteration # 25     ecut=    50.00 Ry     beta= 0.30
     Davidson diagonalization with overlap

---- Real-time Memory Report at c_bands before calling an iterative solver
           117 MiB given to the printing process from OS
             0 MiB allocation reported by mallinfo(arena+hblkhd)
         55672 MiB available memory on the node where the printing process lives
------------------
     ethr =  2.07E-06,  avg # of iterations =  1.0

     total cpu time spent up to now is      186.0 secs

     total energy              =    -723.14445421 Ry
     estimated scf accuracy    <       0.03130025 Ry

     iteration # 26     ecut=    50.00 Ry     beta= 0.30
     Davidson diagonalization with overlap

---- Real-time Memory Report at c_bands before calling an iterative solver
           117 MiB given to the printing process from OS
             0 MiB allocation reported by mallinfo(arena+hblkhd)
         55669 MiB available memory on the node where the printing process lives
------------------
     ethr =  2.07E-06,  avg # of iterations =  9.4

     total cpu time spent up to now is      199.5 secs

     total energy              =    -723.14739430 Ry
     estimated scf accuracy    <       0.00151661 Ry

     iteration # 27     ecut=    50.00 Ry     beta= 0.30
     Davidson diagonalization with overlap

---- Real-time Memory Report at c_bands before calling an iterative solver
           117 MiB given to the printing process from OS
             0 MiB allocation reported by mallinfo(arena+hblkhd)
         55660 MiB available memory on the node where the printing process lives
------------------
     ethr =  2.07E-06,  avg # of iterations =  2.7

     total cpu time spent up to now is      205.4 secs

     total energy              =    -723.14728415 Ry
     estimated scf accuracy    <       0.00048378 Ry

     iteration # 28     ecut=    50.00 Ry     beta= 0.30
     Davidson diagonalization with overlap

---- Real-time Memory Report at c_bands before calling an iterative solver
           117 MiB given to the printing process from OS
             0 MiB allocation reported by mallinfo(arena+hblkhd)
         55678 MiB available memory on the node where the printing process lives
------------------
     ethr =  6.72E-07,  avg # of iterations =  7.0

     total cpu time spent up to now is      215.4 secs

     total energy              =    -723.14768205 Ry
     estimated scf accuracy    <       0.00041649 Ry

     iteration # 29     ecut=    50.00 Ry     beta= 0.30
     Davidson diagonalization with overlap

---- Real-time Memory Report at c_bands before calling an iterative solver
           117 MiB given to the printing process from OS
             0 MiB allocation reported by mallinfo(arena+hblkhd)
         55674 MiB available memory on the node where the printing process lives
------------------
     ethr =  5.78E-07,  avg # of iterations =  1.1

     total cpu time spent up to now is      220.6 secs

     total energy              =    -723.14750529 Ry
     estimated scf accuracy    <       0.00024890 Ry

     iteration # 30     ecut=    50.00 Ry     beta= 0.30
     Davidson diagonalization with overlap

---- Real-time Memory Report at c_bands before calling an iterative solver
           117 MiB given to the printing process from OS
             0 MiB allocation reported by mallinfo(arena+hblkhd)
         55678 MiB available memory on the node where the printing process lives
------------------
     ethr =  3.46E-07,  avg # of iterations =  7.6

     total cpu time spent up to now is      231.5 secs

     total energy              =    -723.14772572 Ry
     estimated scf accuracy    <       0.00057526 Ry

     iteration # 31     ecut=    50.00 Ry     beta= 0.30
     Davidson diagonalization with overlap

---- Real-time Memory Report at c_bands before calling an iterative solver
           117 MiB given to the printing process from OS
             0 MiB allocation reported by mallinfo(arena+hblkhd)
         55674 MiB available memory on the node where the printing process lives
------------------
     ethr =  3.46E-07,  avg # of iterations =  1.0

     total cpu time spent up to now is      236.6 secs

     total energy              =    -723.14762402 Ry
     estimated scf accuracy    <       0.00040712 Ry

     iteration # 32     ecut=    50.00 Ry     beta= 0.30
     Davidson diagonalization with overlap

---- Real-time Memory Report at c_bands before calling an iterative solver
           117 MiB given to the printing process from OS
             0 MiB allocation reported by mallinfo(arena+hblkhd)
         55671 MiB available memory on the node where the printing process lives
------------------
     ethr =  3.46E-07,  avg # of iterations =  2.8

     total cpu time spent up to now is      242.9 secs

     total energy              =    -723.14763608 Ry
     estimated scf accuracy    <       0.00013576 Ry

     iteration # 33     ecut=    50.00 Ry     beta= 0.30
     Davidson diagonalization with overlap

---- Real-time Memory Report at c_bands before calling an iterative solver
           117 MiB given to the printing process from OS
             0 MiB allocation reported by mallinfo(arena+hblkhd)
         55673 MiB available memory on the node where the printing process lives
------------------
     ethr =  1.89E-07,  avg # of iterations =  2.6

     total cpu time spent up to now is      249.1 secs

     total energy              =    -723.14764198 Ry
     estimated scf accuracy    <       0.00007439 Ry

     iteration # 34     ecut=    50.00 Ry     beta= 0.30
     Davidson diagonalization with overlap

---- Real-time Memory Report at c_bands before calling an iterative solver
           117 MiB given to the printing process from OS
             0 MiB allocation reported by mallinfo(arena+hblkhd)
         55678 MiB available memory on the node where the printing process lives
------------------
     ethr =  1.03E-07,  avg # of iterations =  6.2

     total cpu time spent up to now is      256.5 secs

     total energy              =    -723.14765221 Ry
     estimated scf accuracy    <       0.00001013 Ry

     iteration # 35     ecut=    50.00 Ry     beta= 0.30
     Davidson diagonalization with overlap

---- Real-time Memory Report at c_bands before calling an iterative solver
           117 MiB given to the printing process from OS
             0 MiB allocation reported by mallinfo(arena+hblkhd)
         55683 MiB available memory on the node where the printing process lives
------------------
     c_bands:  2 eigenvalues not converged
     ethr =  1.41E-08,  avg # of iterations =  9.0

     total cpu time spent up to now is      268.4 secs

     total energy              =    -723.14779421 Ry
     estimated scf accuracy    <       0.00005147 Ry

     iteration # 36     ecut=    50.00 Ry     beta= 0.30
     Davidson diagonalization with overlap

---- Real-time Memory Report at c_bands before calling an iterative solver
           117 MiB given to the printing process from OS
             0 MiB allocation reported by mallinfo(arena+hblkhd)
         55668 MiB available memory on the node where the printing process lives
------------------
     c_bands:  1 eigenvalues not converged
     ethr =  1.41E-08,  avg # of iterations =  1.6

     total cpu time spent up to now is      273.6 secs

     total energy              =    -723.14780502 Ry
     estimated scf accuracy    <       0.00003788 Ry

     iteration # 37     ecut=    50.00 Ry     beta= 0.30
     Davidson diagonalization with overlap

---- Real-time Memory Report at c_bands before calling an iterative solver
           117 MiB given to the printing process from OS
             0 MiB allocation reported by mallinfo(arena+hblkhd)
         55672 MiB available memory on the node where the printing process lives
------------------
     ethr =  1.41E-08,  avg # of iterations =  1.0

     total cpu time spent up to now is      278.7 secs

     total energy              =    -723.14780614 Ry
     estimated scf accuracy    <       0.00004159 Ry

     iteration # 38     ecut=    50.00 Ry     beta= 0.30
     Davidson diagonalization with overlap

---- Real-time Memory Report at c_bands before calling an iterative solver
           117 MiB given to the printing process from OS
             0 MiB allocation reported by mallinfo(arena+hblkhd)
         55672 MiB available memory on the node where the printing process lives
------------------
     ethr =  1.41E-08,  avg # of iterations =  1.0

     total cpu time spent up to now is      283.8 secs

     total energy              =    -723.14780440 Ry
     estimated scf accuracy    <       0.00004232 Ry

     iteration # 39     ecut=    50.00 Ry     beta= 0.30
     Davidson diagonalization with overlap

---- Real-time Memory Report at c_bands before calling an iterative solver
           117 MiB given to the printing process from OS
             0 MiB allocation reported by mallinfo(arena+hblkhd)
         55668 MiB available memory on the node where the printing process lives
------------------
     ethr =  1.41E-08,  avg # of iterations =  1.0

     total cpu time spent up to now is      288.9 secs

     total energy              =    -723.14780219 Ry
     estimated scf accuracy    <       0.00003738 Ry

     iteration # 40     ecut=    50.00 Ry     beta= 0.30
     Davidson diagonalization with overlap

---- Real-time Memory Report at c_bands before calling an iterative solver
           117 MiB given to the printing process from OS
             0 MiB allocation reported by mallinfo(arena+hblkhd)
         55666 MiB available memory on the node where the printing process lives
------------------
     ethr =  1.41E-08,  avg # of iterations =  1.0

     total cpu time spent up to now is      294.0 secs

     total energy              =    -723.14780046 Ry
     estimated scf accuracy    <       0.00003177 Ry

     iteration # 41     ecut=    50.00 Ry     beta= 0.30
     Davidson diagonalization with overlap

---- Real-time Memory Report at c_bands before calling an iterative solver
           117 MiB given to the printing process from OS
             0 MiB allocation reported by mallinfo(arena+hblkhd)
         55665 MiB available memory on the node where the printing process lives
------------------
     ethr =  1.41E-08,  avg # of iterations =  1.9

     total cpu time spent up to now is      299.5 secs

     total energy              =    -723.14779894 Ry
     estimated scf accuracy    <       0.00002464 Ry

     iteration # 42     ecut=    50.00 Ry     beta= 0.30
     Davidson diagonalization with overlap

---- Real-time Memory Report at c_bands before calling an iterative solver
           117 MiB given to the printing process from OS
             0 MiB allocation reported by mallinfo(arena+hblkhd)
         55655 MiB available memory on the node where the printing process lives
------------------
     ethr =  1.41E-08,  avg # of iterations =  1.4

     total cpu time spent up to now is      304.8 secs

     total energy              =    -723.14779008 Ry
     estimated scf accuracy    <       0.00001960 Ry

     iteration # 43     ecut=    50.00 Ry     beta= 0.30
     Davidson diagonalization with overlap

---- Real-time Memory Report at c_bands before calling an iterative solver
           117 MiB given to the printing process from OS
             0 MiB allocation reported by mallinfo(arena+hblkhd)
         55675 MiB available memory on the node where the printing process lives
------------------
     ethr =  1.41E-08,  avg # of iterations =  6.2

     total cpu time spent up to now is      314.0 secs

     total energy              =    -723.14779889 Ry
     estimated scf accuracy    <       0.00000246 Ry

     iteration # 44     ecut=    50.00 Ry     beta= 0.30
     Davidson diagonalization with overlap

---- Real-time Memory Report at c_bands before calling an iterative solver
           117 MiB given to the printing process from OS
             0 MiB allocation reported by mallinfo(arena+hblkhd)
         55669 MiB available memory on the node where the printing process lives
------------------
     ethr =  3.42E-09,  avg # of iterations =  5.9

     total cpu time spent up to now is      322.0 secs

     total energy              =    -723.14779665 Ry
     estimated scf accuracy    <       0.00001209 Ry

     iteration # 45     ecut=    50.00 Ry     beta= 0.30
     Davidson diagonalization with overlap

---- Real-time Memory Report at c_bands before calling an iterative solver
           117 MiB given to the printing process from OS
             0 MiB allocation reported by mallinfo(arena+hblkhd)
         55670 MiB available memory on the node where the printing process lives
------------------
     ethr =  3.42E-09,  avg # of iterations =  3.6

     total cpu time spent up to now is      328.5 secs

     total energy              =    -723.14779465 Ry
     estimated scf accuracy    <       0.00000555 Ry

     iteration # 46     ecut=    50.00 Ry     beta= 0.30
     Davidson diagonalization with overlap

---- Real-time Memory Report at c_bands before calling an iterative solver
           117 MiB given to the printing process from OS
             0 MiB allocation reported by mallinfo(arena+hblkhd)
         55665 MiB available memory on the node where the printing process lives
------------------
     ethr =  3.42E-09,  avg # of iterations =  6.1

     total cpu time spent up to now is      337.9 secs

     total energy              =    -723.14779710 Ry
     estimated scf accuracy    <       0.00000079 Ry

     iteration # 47     ecut=    50.00 Ry     beta= 0.30
     Davidson diagonalization with overlap

---- Real-time Memory Report at c_bands before calling an iterative solver
           117 MiB given to the printing process from OS
             0 MiB allocation reported by mallinfo(arena+hblkhd)
         55676 MiB available memory on the node where the printing process lives
------------------
     ethr =  1.10E-09,  avg # of iterations =  2.9

     total cpu time spent up to now is      343.6 secs

     total energy              =    -723.14779684 Ry
     estimated scf accuracy    <       0.00000114 Ry

     iteration # 48     ecut=    50.00 Ry     beta= 0.30
     Davidson diagonalization with overlap

---- Real-time Memory Report at c_bands before calling an iterative solver
           117 MiB given to the printing process from OS
             0 MiB allocation reported by mallinfo(arena+hblkhd)
         55674 MiB available memory on the node where the printing process lives
------------------
     ethr =  1.10E-09,  avg # of iterations =  1.2

     total cpu time spent up to now is      348.9 secs

     total energy              =    -723.14779649 Ry
     estimated scf accuracy    <       0.00000063 Ry

     iteration # 49     ecut=    50.00 Ry     beta= 0.30
     Davidson diagonalization with overlap

---- Real-time Memory Report at c_bands before calling an iterative solver
           117 MiB given to the printing process from OS
             0 MiB allocation reported by mallinfo(arena+hblkhd)
         55663 MiB available memory on the node where the printing process lives
------------------
     ethr =  8.76E-10,  avg # of iterations =  5.9

     total cpu time spent up to now is      357.8 secs

     total energy              =    -723.14779674 Ry
     estimated scf accuracy    <       0.00000037 Ry

     iteration # 50     ecut=    50.00 Ry     beta= 0.30
     Davidson diagonalization with overlap

---- Real-time Memory Report at c_bands before calling an iterative solver
           117 MiB given to the printing process from OS
             0 MiB allocation reported by mallinfo(arena+hblkhd)
         55675 MiB available memory on the node where the printing process lives
------------------
     ethr =  5.07E-10,  avg # of iterations =  2.1

     total cpu time spent up to now is      363.6 secs

     total energy              =    -723.14779673 Ry
     estimated scf accuracy    <       0.00000009 Ry

     iteration # 51     ecut=    50.00 Ry     beta= 0.30
     Davidson diagonalization with overlap

---- Real-time Memory Report at c_bands before calling an iterative solver
           117 MiB given to the printing process from OS
             0 MiB allocation reported by mallinfo(arena+hblkhd)
         55671 MiB available memory on the node where the printing process lives
------------------
     ethr =  1.28E-10,  avg # of iterations =  6.0

     total cpu time spent up to now is      372.5 secs

     total energy              =    -723.14779683 Ry
     estimated scf accuracy    <       0.00000003 Ry

     iteration # 52     ecut=    50.00 Ry     beta= 0.30
     Davidson diagonalization with overlap

---- Real-time Memory Report at c_bands before calling an iterative solver
           117 MiB given to the printing process from OS
             0 MiB allocation reported by mallinfo(arena+hblkhd)
         55671 MiB available memory on the node where the printing process lives
------------------
     ethr =  4.80E-11,  avg # of iterations =  5.7

     total cpu time spent up to now is      380.7 secs

     total energy              =    -723.14779680 Ry
     estimated scf accuracy    <       0.00000018 Ry

     iteration # 53     ecut=    50.00 Ry     beta= 0.30
     Davidson diagonalization with overlap

---- Real-time Memory Report at c_bands before calling an iterative solver
           117 MiB given to the printing process from OS
             0 MiB allocation reported by mallinfo(arena+hblkhd)
         55674 MiB available memory on the node where the printing process lives
------------------
     ethr =  4.80E-11,  avg # of iterations =  2.0

     total cpu time spent up to now is      386.7 secs

     total energy              =    -723.14779679 Ry
     estimated scf accuracy    <       0.00000010 Ry

     iteration # 54     ecut=    50.00 Ry     beta= 0.30
     Davidson diagonalization with overlap

---- Real-time Memory Report at c_bands before calling an iterative solver
           117 MiB given to the printing process from OS
             0 MiB allocation reported by mallinfo(arena+hblkhd)
         55673 MiB available memory on the node where the printing process lives
------------------
     ethr =  4.80E-11,  avg # of iterations =  5.1

     total cpu time spent up to now is      393.9 secs

     total energy              =    -723.14779677 Ry
     estimated scf accuracy    <       0.00000004 Ry

     iteration # 55     ecut=    50.00 Ry     beta= 0.30
     Davidson diagonalization with overlap

---- Real-time Memory Report at c_bands before calling an iterative solver
           117 MiB given to the printing process from OS
             0 MiB allocation reported by mallinfo(arena+hblkhd)
         55677 MiB available memory on the node where the printing process lives
------------------
     ethr =  4.80E-11,  avg # of iterations =  6.7

     total cpu time spent up to now is      404.0 secs

     total energy              =    -723.14779680 Ry
     estimated scf accuracy    <       0.00000004 Ry

     iteration # 56     ecut=    50.00 Ry     beta= 0.30
     Davidson diagonalization with overlap

---- Real-time Memory Report at c_bands before calling an iterative solver
           117 MiB given to the printing process from OS
             0 MiB allocation reported by mallinfo(arena+hblkhd)
         55680 MiB available memory on the node where the printing process lives
------------------
     ethr =  4.80E-11,  avg # of iterations =  1.0

     total cpu time spent up to now is      409.1 secs

     total energy              =    -723.14779679 Ry
     estimated scf accuracy    <       0.00000002 Ry

     iteration # 57     ecut=    50.00 Ry     beta= 0.30
     Davidson diagonalization with overlap

---- Real-time Memory Report at c_bands before calling an iterative solver
           117 MiB given to the printing process from OS
             0 MiB allocation reported by mallinfo(arena+hblkhd)
         55664 MiB available memory on the node where the printing process lives
------------------
     ethr =  2.80E-11,  avg # of iterations =  2.1

     total cpu time spent up to now is      415.1 secs

     End of self-consistent calculation

          k = 0.0000 0.0000 0.0000 (  4893 PWs)   bands (ev):

   -12.3237 -12.1535 -12.1534 -11.9758  -0.8984  -0.8800  -0.8800  -0.7435
    -0.7435  -0.6897  -0.6897  -0.6897  -0.6897  -0.6217  -0.6217  -0.4170
    -0.2097  -0.2097  -0.1566  -0.1566  -0.1566  -0.1566  -0.1104  -0.1104
     0.2020   1.7686   1.7686   3.7366   3.7366   3.9199   3.9828   3.9828
     3.9828   3.9828   4.2271   4.2271

     occupation numbers 
     1.0000   1.0000   1.0000   1.0000   1.0000   1.0000   1.0000   1.0000
     1.0000   1.0000   1.0000   1.0000   1.0000   1.0000   1.0000   1.0000
     1.0000   1.0000   1.0000   1.0000   1.0000   1.0000   1.0000   1.0000
     1.0000   1.0000   1.0000   1.0000   1.0000   1.0000   1.0000   1.0000
     1.0000   1.0000   1.0000   1.0000

          k = 0.0000 0.0000 0.0469 (  4881 PWs)   bands (ev):

   -12.3180 -12.1982 -12.1082 -11.9820  -0.9018  -0.9001  -0.8392  -0.7420
    -0.7420  -0.7050  -0.7050  -0.6735  -0.6735  -0.6240  -0.6240  -0.4718
    -0.2078  -0.2078  -0.1695  -0.1695  -0.1440  -0.1440  -0.1118  -0.1118
     0.2906   1.4148   2.1369   3.6783   3.7450   3.7450   3.9193   3.9193
     4.0462   4.0462   4.2188   4.2188

     occupation numbers 
     1.0000   1.0000   1.0000   1.0000   1.0000   1.0000   1.0000   1.0000
     1.0000   1.0000   1.0000   1.0000   1.0000   1.0000   1.0000   1.0000
     1.0000   1.0000   1.0000   1.0000   1.0000   1.0000   1.0000   1.0000
     1.0000   1.0000   1.0000   1.0000   1.0000   1.0000   1.0000   1.0000
     1.0000   1.0000   1.0000   1.0000

          k = 0.0000 0.0000 0.0939 (  4906 PWs)   bands (ev):

   -12.3013 -12.2395 -12.0656 -12.0001  -0.9100  -0.9046  -0.7756  -0.7374
    -0.7374  -0.7184  -0.7184  -0.6576  -0.6576  -0.6316  -0.6316  -0.5811
    -0.2025  -0.2025  -0.1822  -0.1822  -0.1326  -0.1326  -0.1164  -0.1164
     0.5005   1.0804   2.5163   3.2962   3.7697   3.7697   3.8600   3.8600
     4.1051   4.1051   4.1944   4.1944

     occupation numbers 
     1.0000   1.0000   1.0000   1.0000   1.0000   1.0000   1.0000   1.0000
     1.0000   1.0000   1.0000   1.0000   1.0000   1.0000   1.0000   1.0000
     1.0000   1.0000   1.0000   1.0000   1.0000   1.0000   1.0000   1.0000
     1.0000   1.0000   1.0000   1.0000   1.0000   1.0000   1.0000   1.0000
     1.0000   1.0000   1.0000   1.0000

          k = 0.0000 0.0000-0.1408 (  4876 PWs)   bands (ev):

   -12.2746 -12.2746 -12.0287 -12.0286  -0.9090  -0.9090  -0.7292  -0.7292
    -0.7292  -0.7292  -0.6883  -0.6883  -0.6431  -0.6431  -0.6430  -0.6430
    -0.1934  -0.1934  -0.1934  -0.1934  -0.1233  -0.1233  -0.1232  -0.1232
     0.7719   0.7719   2.9041   2.9041   3.8089   3.8089   3.8090   3.8090
     4.1557   4.1557   4.1557   4.1557

     occupation numbers 
     1.0000   1.0000   1.0000   1.0000   1.0000   1.0000   1.0000   1.0000
     1.0000   1.0000   1.0000   1.0000   1.0000   1.0000   1.0000   1.0000
     1.0000   1.0000   1.0000   1.0000   1.0000   1.0000   1.0000   1.0000
     1.0000   1.0000   1.0000   1.0000   1.0000   1.0000   1.0000   1.0000
     1.0000   1.0000   1.0000   1.0000

          k = 0.0000 0.1925 0.0000 (  4879 PWs)   bands (ev):

   -12.2282 -12.0778 -12.0778 -11.9226  -0.8484  -0.8484  -0.8412  -0.7887
    -0.7022  -0.6630  -0.6630  -0.6311  -0.6311  -0.6119  -0.5487  -0.3151
    -0.2446  -0.2084  -0.1666  -0.1666  -0.1580  -0.1580  -0.1092  -0.0342
     0.2966   1.7724   1.7724   2.8448   3.1541   3.3910   3.3910   3.5197
     3.8184   3.8184   3.8276   4.1143

     occupation numbers 
     1.0000   1.0000   1.0000   1.0000   1.0000   1.0000   1.0000   1.0000
     1.0000   1.0000   1.0000   1.0000   1.0000   1.0000   1.0000   1.0000
     1.0000   1.0000   1.0000   1.0000   1.0000   1.0000   1.0000   1.0000
     1.0000   1.0000   1.0000   1.0000   1.0000   1.0000   1.0000   1.0000
     1.0000   1.0000   1.0000   1.0000

          k = 0.0000 0.1925 0.0469 (  4892 PWs)   bands (ev):

   -12.2231 -12.1171 -12.0381 -11.9280  -0.8705  -0.8479  -0.8111  -0.7824
    -0.6999  -0.6791  -0.6506  -0.6410  -0.6160  -0.6110  -0.5518  -0.3614
    -0.2410  -0.2067  -0.1857  -0.1709  -0.1478  -0.1454  -0.1109  -0.0612
     0.3988   1.4726   2.0630   2.8255   3.1350   3.2901   3.4971   3.5300
     3.7415   3.8114   3.8951   4.1043

     occupation numbers 
     1.0000   1.0000   1.0000   1.0000   1.0000   1.0000   1.0000   1.0000
     1.0000   1.0000   1.0000   1.0000   1.0000   1.0000   1.0000   1.0000
     1.0000   1.0000   1.0000   1.0000   1.0000   1.0000   1.0000   1.0000
     1.0000   1.0000   1.0000   1.0000   1.0000   1.0000   1.0000   1.0000
     1.0000   1.0000   1.0000   1.0000

          k = 0.0000 0.1925 0.0939 (  4878 PWs)   bands (ev):

   -12.2083 -12.1536 -12.0008 -11.9437  -0.8774  -0.8611  -0.7715  -0.7698
    -0.6932  -0.6796  -0.6679  -0.6286  -0.6108  -0.5914  -0.5605  -0.4618
    -0.2323  -0.2036  -0.2015  -0.1829  -0.1334  -0.1295  -0.1156  -0.0913
     0.6179   1.1731   2.3337   2.7411   3.1152   3.2030   3.5600   3.6003
     3.6696   3.7647   3.9665   4.0747

     occupation numbers 
     1.0000   1.0000   1.0000   1.0000   1.0000   1.0000   1.0000   1.0000
     1.0000   1.0000   1.0000   1.0000   1.0000   1.0000   1.0000   1.0000
     1.0000   1.0000   1.0000   1.0000   1.0000   1.0000   1.0000   1.0000
     1.0000   1.0000   1.0000   1.0000   1.0000   1.0000   1.0000   1.0000
     1.0000   1.0000   1.0000   1.0000

          k = 0.0000 0.1925-0.1408 (  4870 PWs)   bands (ev):

   -12.1846 -12.1846 -11.9686 -11.9685  -0.8727  -0.8727  -0.7604  -0.7604
    -0.6824  -0.6824  -0.6527  -0.6527  -0.5742  -0.5741  -0.5556  -0.5556
    -0.2196  -0.2196  -0.1934  -0.1934  -0.1233  -0.1233  -0.1116  -0.1116
     0.8839   0.8839   2.5687   2.5687   3.1398   3.1398   3.6077   3.6077
     3.6922   3.6922   4.0278   4.0278

     occupation numbers 
     1.0000   1.0000   1.0000   1.0000   1.0000   1.0000   1.0000   1.0000
     1.0000   1.0000   1.0000   1.0000   1.0000   1.0000   1.0000   1.0000
     1.0000   1.0000   1.0000   1.0000   1.0000   1.0000   1.0000   1.0000
     1.0000   1.0000   1.0000   1.0000   1.0000   1.0000   1.0000   1.0000
     1.0000   1.0000   1.0000   1.0000

          k = 0.0000 0.3849 0.0000 (  4874 PWs)   bands (ev):

   -12.0200 -11.9221 -11.9221 -11.8244  -0.8417  -0.8417  -0.8339  -0.7596
    -0.6514  -0.5286  -0.5286  -0.4940  -0.4940  -0.4546  -0.3919  -0.3660
    -0.2089  -0.1566  -0.1520  -0.1520  -0.1329  -0.1329  -0.1001   0.0377
     0.8495   1.3916   1.3916   1.5493   2.2490   2.9044   2.9044   3.0882
     3.4384   3.4850   3.4850   3.8746

     occupation numbers 
     1.0000   1.0000   1.0000   1.0000   1.0000   1.0000   1.0000   1.0000
     1.0000   1.0000   1.0000   1.0000   1.0000   1.0000   1.0000   1.0000
     1.0000   1.0000   1.0000   1.0000   1.0000   1.0000   1.0000   1.0000
     1.0000   1.0000   1.0000   1.0000   1.0000   1.0000   1.0000   1.0000
     1.0000   1.0000   1.0000   1.0000

          k = 0.0000 0.3849 0.0469 (  4884 PWs)   bands (ev):

   -12.0167 -11.9474 -11.8968 -11.8277  -0.8570  -0.8381  -0.8180  -0.7597
    -0.6475  -0.5617  -0.4944  -0.4944  -0.4849  -0.4569  -0.3968  -0.3750
    -0.2110  -0.1754  -0.1560  -0.1395  -0.1257  -0.1250  -0.1015   0.0202
     0.8817   1.2822   1.4942   1.5680   2.2464   2.6878   3.1010   3.1020
     3.3834   3.4343   3.5861   3.8613

     occupation numbers 
     1.0000   1.0000   1.0000   1.0000   1.0000   1.0000   1.0000   1.0000
     1.0000   1.0000   1.0000   1.0000   1.0000   1.0000   1.0000   1.0000
     1.0000   1.0000   1.0000   1.0000   1.0000   1.0000   1.0000   1.0000
     1.0000   1.0000   1.0000   1.0000   1.0000   1.0000   1.0000   1.0000
     1.0000   1.0000   1.0000   1.0000

          k = 0.0000 0.3849 0.0939 (  4862 PWs)   bands (ev):

   -12.0069 -11.9710 -11.8732 -11.8375  -0.8617  -0.8477  -0.7921  -0.7620
    -0.6357  -0.5915  -0.4858  -0.4669  -0.4634  -0.4617  -0.4108  -0.4012
    -0.2125  -0.1944  -0.1537  -0.1453  -0.1183  -0.1053  -0.0943  -0.0183
     0.9620   1.1718   1.5775   1.6066   2.2580   2.4829   3.1422   3.2562
     3.2882   3.4140   3.6801   3.8225

     occupation numbers 
     1.0000   1.0000   1.0000   1.0000   1.0000   1.0000   1.0000   1.0000
     1.0000   1.0000   1.0000   1.0000   1.0000   1.0000   1.0000   1.0000
     1.0000   1.0000   1.0000   1.0000   1.0000   1.0000   1.0000   1.0000
     1.0000   1.0000   1.0000   1.0000   1.0000   1.0000   1.0000   1.0000
     1.0000   1.0000   1.0000   1.0000

          k = 0.0000 0.3849-0.1408 (  4864 PWs)   bands (ev):

   -11.9913 -11.9913 -11.8530 -11.8530  -0.8574  -0.8574  -0.7721  -0.7721
    -0.6167  -0.6167  -0.4737  -0.4737  -0.4370  -0.4369  -0.4330  -0.4330
    -0.2074  -0.2074  -0.1501  -0.1501  -0.1112  -0.1112  -0.0588  -0.0588
     1.0634   1.0635   1.6196   1.6196   2.3298   2.3298   3.2059   3.2059
     3.3595   3.3595   3.7606   3.7607

     occupation numbers 
     1.0000   1.0000   1.0000   1.0000   1.0000   1.0000   1.0000   1.0000
     1.0000   1.0000   1.0000   1.0000   1.0000   1.0000   1.0000   1.0000
     1.0000   1.0000   1.0000   1.0000   1.0000   1.0000   1.0000   1.0000
     1.0000   1.0000   1.0000   1.0000   1.0000   1.0000   1.0000   1.0000
     1.0000   1.0000   1.0000   1.0000

          k = 0.0000-0.5774 0.0000 (  4876 PWs)   bands (ev):

   -11.8956 -11.8420 -11.8419 -11.7910  -0.8286  -0.8286  -0.8065  -0.6462
    -0.6437  -0.5669  -0.4915  -0.4915  -0.3989  -0.3989  -0.3165  -0.2584
    -0.1014  -0.0966  -0.0965  -0.0831  -0.0538  -0.0538  -0.0480  -0.0218
     0.7570   0.9420   0.9421   1.4524   1.9237   2.8665   2.9071   2.9071
     3.0211   3.3138   3.3138   3.7487

     occupation numbers 
     1.0000   1.0000   1.0000   1.0000   1.0000   1.0000   1.0000   1.0000
     1.0000   1.0000   1.0000   1.0000   1.0000   1.0000   1.0000   1.0000
     1.0000   1.0000   1.0000   1.0000   1.0000   1.0000   1.0000   1.0000
     1.0000   1.0000   1.0000   1.0000   1.0000   1.0000   1.0000   1.0000
     1.0000   1.0000   1.0000   1.0000

          k = 0.0000-0.5774 0.0469 (  4876 PWs)   bands (ev):

   -11.8937 -11.8556 -11.8285 -11.7927  -0.8398  -0.8105  -0.8053  -0.6581
    -0.6389  -0.5610  -0.5329  -0.4484  -0.4455  -0.3475  -0.3228  -0.2535
    -0.1013  -0.0981  -0.0945  -0.0840  -0.0698  -0.0578  -0.0410  -0.0222
     0.7546   0.8634   1.0373   1.4254   1.9735   2.7272   2.8822   3.0357
     3.0385   3.2000   3.4268   3.7339

     occupation numbers 
     1.0000   1.0000   1.0000   1.0000   1.0000   1.0000   1.0000   1.0000
     1.0000   1.0000   1.0000   1.0000   1.0000   1.0000   1.0000   1.0000
     1.0000   1.0000   1.0000   1.0000   1.0000   1.0000   1.0000   1.0000
     1.0000   1.0000   1.0000   1.0000   1.0000   1.0000   1.0000   1.0000
     1.0000   1.0000   1.0000   1.0000

          k = 0.0000-0.5774 0.0939 (  4868 PWs)   bands (ev):

   -11.8882 -11.8684 -11.8161 -11.7977  -0.8399  -0.8205  -0.7711  -0.6894
    -0.6246  -0.5702  -0.5445  -0.4857  -0.4067  -0.3411  -0.2966  -0.2467
    -0.1009  -0.0994  -0.0921  -0.0863  -0.0857  -0.0792  -0.0320  -0.0236
     0.7543   0.8049   1.1437   1.3528   2.1093   2.5165   2.9279   3.0779
     3.0929   3.1018   3.5317   3.6905

     occupation numbers 
     1.0000   1.0000   1.0000   1.0000   1.0000   1.0000   1.0000   1.0000
     1.0000   1.0000   1.0000   1.0000   1.0000   1.0000   1.0000   1.0000
     1.0000   1.0000   1.0000   1.0000   1.0000   1.0000   1.0000   1.0000
     1.0000   1.0000   1.0000   1.0000   1.0000   1.0000   1.0000   1.0000
     1.0000   1.0000   1.0000   1.0000

          k = 0.0000-0.5774-0.1408 (  4860 PWs)   bands (ev):

   -11.8796 -11.8796 -11.8056 -11.8056  -0.8319  -0.8319  -0.7302  -0.7302
    -0.6015  -0.6014  -0.5189  -0.5189  -0.3699  -0.3698  -0.2583  -0.2583
    -0.1003  -0.1003  -0.0923  -0.0923  -0.0892  -0.0892  -0.0264  -0.0264
     0.7688   0.7688   1.2531   1.2531   2.3009   2.3009   3.0000   3.0000
     3.1092   3.1092   3.6216   3.6216

     occupation numbers 
     1.0000   1.0000   1.0000   1.0000   1.0000   1.0000   1.0000   1.0000
     1.0000   1.0000   1.0000   1.0000   1.0000   1.0000   1.0000   1.0000
     1.0000   1.0000   1.0000   1.0000   1.0000   1.0000   1.0000   1.0000
     1.0000   1.0000   1.0000   1.0000   1.0000   1.0000   1.0000   1.0000
     1.0000   1.0000   1.0000   1.0000

          k = 0.1667 0.2887 0.0000 (  4855 PWs)   bands (ev):

   -12.0756 -11.9618 -11.9618 -11.8470  -0.8113  -0.8113  -0.7912  -0.7379
    -0.7042  -0.5935  -0.5935  -0.5536  -0.5403  -0.5403  -0.4306  -0.2762
    -0.2677  -0.1965  -0.1686  -0.1686  -0.1341  -0.1341  -0.1038   0.0316
     0.6734   1.5961   1.5961   2.1180   2.2921   3.0120   3.0120   3.0930
     3.4042   3.4042   3.5964   3.7959

     occupation numbers 
     1.0000   1.0000   1.0000   1.0000   1.0000   1.0000   1.0000   1.0000
     1.0000   1.0000   1.0000   1.0000   1.0000   1.0000   1.0000   1.0000
     1.0000   1.0000   1.0000   1.0000   1.0000   1.0000   1.0000   1.0000
     1.0000   1.0000   1.0000   1.0000   1.0000   1.0000   1.0000   1.0000
     1.0000   1.0000   1.0000   1.0000

          k = 0.1667 0.2887 0.0469 (  4856 PWs)   bands (ev):

   -12.0717 -11.9914 -11.9322 -11.8509  -0.8282  -0.7979  -0.7844  -0.7371
    -0.6974  -0.6184  -0.5730  -0.5561  -0.5480  -0.5165  -0.4347  -0.2998
    -0.2724  -0.1950  -0.1870  -0.1540  -0.1288  -0.1265  -0.1052   0.0103
     0.7337   1.4309   1.7441   2.1026   2.3154   2.8269   3.0962   3.1698
     3.3329   3.4987   3.5873   3.7818

     occupation numbers 
     1.0000   1.0000   1.0000   1.0000   1.0000   1.0000   1.0000   1.0000
     1.0000   1.0000   1.0000   1.0000   1.0000   1.0000   1.0000   1.0000
     1.0000   1.0000   1.0000   1.0000   1.0000   1.0000   1.0000   1.0000
     1.0000   1.0000   1.0000   1.0000   1.0000   1.0000   1.0000   1.0000
     1.0000   1.0000   1.0000   1.0000

          k = 0.1667 0.2887 0.0939 (  4867 PWs)   bands (ev):

   -12.0604 -12.0188 -11.9045 -11.8624  -0.8325  -0.8124  -0.7572  -0.7365
    -0.6816  -0.6411  -0.5744  -0.5629  -0.5109  -0.4902  -0.4470  -0.3706
    -0.2613  -0.2209  -0.1746  -0.1577  -0.1217  -0.1094  -0.0997  -0.0302
     0.8802   1.2511   1.8728   2.0559   2.3846   2.6492   3.1103   3.1899
     3.3857   3.5541   3.5926   3.7405

     occupation numbers 
     1.0000   1.0000   1.0000   1.0000   1.0000   1.0000   1.0000   1.0000
     1.0000   1.0000   1.0000   1.0000   1.0000   1.0000   1.0000   1.0000
     1.0000   1.0000   1.0000   1.0000   1.0000   1.0000   1.0000   1.0000
     1.0000   1.0000   1.0000   1.0000   1.0000   1.0000   1.0000   1.0000
     1.0000   1.0000   1.0000   1.0000

          k = 0.1667 0.2887-0.1408 (  4860 PWs)   bands (ev):

   -12.0424 -12.0424 -11.8807 -11.8807  -0.8259  -0.8259  -0.7409  -0.7409
    -0.6621  -0.6621  -0.5710  -0.5710  -0.4660  -0.4660  -0.4484  -0.4484
    -0.2436  -0.2436  -0.1650  -0.1650  -0.1150  -0.1149  -0.0675  -0.0675
     1.0626   1.0626   1.9783   1.9783   2.4978   2.4979   3.1428   3.1428
     3.4867   3.4867   3.6756   3.6756

     occupation numbers 
     1.0000   1.0000   1.0000   1.0000   1.0000   1.0000   1.0000   1.0000
     1.0000   1.0000   1.0000   1.0000   1.0000   1.0000   1.0000   1.0000
     1.0000   1.0000   1.0000   1.0000   1.0000   1.0000   1.0000   1.0000
     1.0000   1.0000   1.0000   1.0000   1.0000   1.0000   1.0000   1.0000
     1.0000   1.0000   1.0000   1.0000

          k = 0.1667 0.4811 0.0000 (  4881 PWs)   bands (ev):

   -11.8992 -11.8430 -11.8430 -11.7893  -0.8000  -0.7640  -0.7640  -0.6519
    -0.5856  -0.5410  -0.5410  -0.4214  -0.3924  -0.3924  -0.3427  -0.3159
    -0.2160  -0.1739  -0.1569  -0.1569  -0.0488  -0.0229  -0.0229   0.0707
     1.0135   1.1322   1.1322   1.4349   2.0352   2.4517   2.7973   2.7973
     3.0769   3.0769   3.1095   3.4480

     occupation numbers 
     1.0000   1.0000   1.0000   1.0000   1.0000   1.0000   1.0000   1.0000
     1.0000   1.0000   1.0000   1.0000   1.0000   1.0000   1.0000   1.0000
     1.0000   1.0000   1.0000   1.0000   1.0000   1.0000   1.0000   1.0000
     1.0000   1.0000   1.0000   1.0000   1.0000   1.0000   1.0000   1.0000
     1.0000   1.0000   1.0000   1.0000

          k = 0.1667 0.4811 0.0469 (  4871 PWs)   bands (ev):

   -11.8973 -11.8573 -11.8289 -11.7911  -0.7977  -0.7759  -0.7443  -0.6607
    -0.5840  -0.5773  -0.4952  -0.4257  -0.4066  -0.3774  -0.3471  -0.3204
    -0.2180  -0.1731  -0.1674  -0.1456  -0.0483  -0.0333  -0.0078   0.0659
     1.0052   1.0680   1.2077   1.4324   2.0674   2.4712   2.6430   2.8717
     3.0126   3.1221   3.1757   3.4298

     occupation numbers 
     1.0000   1.0000   1.0000   1.0000   1.0000   1.0000   1.0000   1.0000
     1.0000   1.0000   1.0000   1.0000   1.0000   1.0000   1.0000   1.0000
     1.0000   1.0000   1.0000   1.0000   1.0000   1.0000   1.0000   1.0000
     1.0000   1.0000   1.0000   1.0000   1.0000   1.0000   1.0000   1.0000
     1.0000   1.0000   1.0000   1.0000

          k = 0.1667 0.4811 0.0939 (  4874 PWs)   bands (ev):

   -11.8915 -11.8708 -11.8158 -11.7964  -0.7918  -0.7814  -0.7211  -0.6797
    -0.5968  -0.5869  -0.4488  -0.4325  -0.4162  -0.3629  -0.3626  -0.3339
    -0.2166  -0.1908  -0.1553  -0.1417  -0.0470  -0.0402   0.0114   0.0522
     0.9929   1.0209   1.2868   1.4107   2.1636   2.4757   2.5305   2.7576
     3.0988   3.1479   3.2451   3.3789

     occupation numbers 
     1.0000   1.0000   1.0000   1.0000   1.0000   1.0000   1.0000   1.0000
     1.0000   1.0000   1.0000   1.0000   1.0000   1.0000   1.0000   1.0000
     1.0000   1.0000   1.0000   1.0000   1.0000   1.0000   1.0000   1.0000
     1.0000   1.0000   1.0000   1.0000   1.0000   1.0000   1.0000   1.0000
     1.0000   1.0000   1.0000   1.0000

          k = 0.1667 0.4811-0.1408 (  4874 PWs)   bands (ev):

   -11.8825 -11.8825 -11.8048 -11.8048  -0.7857  -0.7857  -0.6999  -0.6999
    -0.5960  -0.5960  -0.4336  -0.4335  -0.3941  -0.3941  -0.3488  -0.3488
    -0.2066  -0.2066  -0.1455  -0.1455  -0.0445  -0.0444   0.0327   0.0327
     0.9955   0.9955   1.3591   1.3591   2.3088   2.3089   2.6291   2.6291
     3.1540   3.1540   3.3088   3.3088

     occupation numbers 
     1.0000   1.0000   1.0000   1.0000   1.0000   1.0000   1.0000   1.0000
     1.0000   1.0000   1.0000   1.0000   1.0000   1.0000   1.0000   1.0000
     1.0000   1.0000   1.0000   1.0000   1.0000   1.0000   1.0000   1.0000
     1.0000   1.0000   1.0000   1.0000   1.0000   1.0000   1.0000   1.0000
     1.0000   1.0000   1.0000   1.0000

          k = 0.3333 0.5774 0.0000 (  4881 PWs)   bands (ev):

   -11.8055 -11.8055 -11.8037 -11.8037  -0.8362  -0.6473  -0.6473  -0.6326
    -0.6326  -0.5171  -0.5171  -0.3294  -0.2899  -0.2899  -0.2475  -0.2416
    -0.2416  -0.2237  -0.2237  -0.2054   0.0341   0.0341   0.0678   0.0678
     1.1029   1.1029   1.3012   1.3012   1.5986   2.3231   2.3231   2.6361
     2.6361   3.0396   3.0708   3.0708

     occupation numbers 
     1.0000   1.0000   1.0000   1.0000   1.0000   1.0000   1.0000   1.0000
     1.0000   1.0000   1.0000   1.0000   1.0000   1.0000   1.0000   1.0000
     1.0000   1.0000   1.0000   1.0000   1.0000   1.0000   1.0000   1.0000
     1.0000   1.0000   1.0000   1.0000   1.0000   1.0000   1.0000   1.0000
     1.0000   1.0000   1.0000   1.0000

          k = 0.3333 0.5774 0.0469 (  4893 PWs)   bands (ev):

   -11.8054 -11.8053 -11.8038 -11.8038  -0.8301  -0.6915  -0.6400  -0.6400
    -0.5681  -0.5281  -0.5281  -0.3434  -0.2844  -0.2844  -0.2458  -0.2436
    -0.2436  -0.2285  -0.2190  -0.2060   0.0363   0.0363   0.0653   0.0653
     1.1136   1.1136   1.2843   1.2843   1.6251   2.1414   2.5047   2.6683
     2.6683   3.0142   3.0438   3.0438

     occupation numbers 
     1.0000   1.0000   1.0000   1.0000   1.0000   1.0000   1.0000   1.0000
     1.0000   1.0000   1.0000   1.0000   1.0000   1.0000   1.0000   1.0000
     1.0000   1.0000   1.0000   1.0000   1.0000   1.0000   1.0000   1.0000
     1.0000   1.0000   1.0000   1.0000   1.0000   1.0000   1.0000   1.0000
     1.0000   1.0000   1.0000   1.0000

          k = 0.3333 0.5774 0.0939 (  4881 PWs)   bands (ev):

   -11.8050 -11.8050 -11.8042 -11.8041  -0.8121  -0.7420  -0.6191  -0.6191
    -0.5554  -0.5554  -0.5010  -0.3817  -0.2719  -0.2719  -0.2493  -0.2493
    -0.2422  -0.2334  -0.2146  -0.2077   0.0424   0.0424   0.0591   0.0591
     1.1442   1.1442   1.2416   1.2416   1.7016   1.9702   2.6754   2.7533
     2.7533   2.9402   2.9689   2.9689

     occupation numbers 
     1.0000   1.0000   1.0000   1.0000   1.0000   1.0000   1.0000   1.0000
     1.0000   1.0000   1.0000   1.0000   1.0000   1.0000   1.0000   1.0000
     1.0000   1.0000   1.0000   1.0000   1.0000   1.0000   1.0000   1.0000
     1.0000   1.0000   1.0000   1.0000   1.0000   1.0000   1.0000   1.0000
     1.0000   1.0000   1.0000   1.0000

          k = 0.3333 0.5774-0.1408 (  4890 PWs)   bands (ev):

   -11.8046 -11.8046 -11.8046 -11.8046  -0.7825  -0.7824  -0.5888  -0.5888
    -0.5888  -0.5888  -0.4369  -0.4369  -0.2592  -0.2592  -0.2592  -0.2591
    -0.2380  -0.2380  -0.2108  -0.2107   0.0506   0.0506   0.0506   0.0506
     1.1899   1.1899   1.1900   1.1900   1.8200   1.8200   2.8241   2.8241
     2.8634   2.8635   2.8635   2.8635

     occupation numbers 
     1.0000   1.0000   1.0000   1.0000   1.0000   1.0000   1.0000   1.0000
     1.0000   1.0000   1.0000   1.0000   1.0000   1.0000   1.0000   1.0000
     1.0000   1.0000   1.0000   1.0000   1.0000   1.0000   1.0000   1.0000
     1.0000   1.0000   1.0000   1.0000   1.0000   1.0000   1.0000   1.0000
     1.0000   1.0000   1.0000   1.0000

          k = 0.0000-0.1925 0.0469 (  4892 PWs)   bands (ev):

   -12.2231 -12.1171 -12.0381 -11.9280  -0.8705  -0.8479  -0.8111  -0.7824
    -0.6999  -0.6791  -0.6506  -0.6410  -0.6160  -0.6110  -0.5518  -0.3614
    -0.2410  -0.2067  -0.1857  -0.1709  -0.1478  -0.1454  -0.1109  -0.0612
     0.3988   1.4726   2.0630   2.8255   3.1350   3.2901   3.4971   3.5300
     3.7415   3.8114   3.8951   4.1043

     occupation numbers 
     1.0000   1.0000   1.0000   1.0000   1.0000   1.0000   1.0000   1.0000
     1.0000   1.0000   1.0000   1.0000   1.0000   1.0000   1.0000   1.0000
     1.0000   1.0000   1.0000   1.0000   1.0000   1.0000   1.0000   1.0000
     1.0000   1.0000   1.0000   1.0000   1.0000   1.0000   1.0000   1.0000
     1.0000   1.0000   1.0000   1.0000

          k = 0.0000-0.1925 0.0939 (  4878 PWs)   bands (ev):

   -12.2083 -12.1536 -12.0008 -11.9437  -0.8774  -0.8611  -0.7715  -0.7698
    -0.6932  -0.6796  -0.6679  -0.6286  -0.6108  -0.5914  -0.5605  -0.4618
    -0.2323  -0.2036  -0.2015  -0.1829  -0.1334  -0.1295  -0.1156  -0.0913
     0.6179   1.1731   2.3337   2.7411   3.1152   3.2030   3.5600   3.6003
     3.6696   3.7647   3.9665   4.0747

     occupation numbers 
     1.0000   1.0000   1.0000   1.0000   1.0000   1.0000   1.0000   1.0000
     1.0000   1.0000   1.0000   1.0000   1.0000   1.0000   1.0000   1.0000
     1.0000   1.0000   1.0000   1.0000   1.0000   1.0000   1.0000   1.0000
     1.0000   1.0000   1.0000   1.0000   1.0000   1.0000   1.0000   1.0000
     1.0000   1.0000   1.0000   1.0000

          k = 0.0000-0.3849 0.0469 (  4884 PWs)   bands (ev):

   -12.0167 -11.9474 -11.8968 -11.8277  -0.8570  -0.8381  -0.8180  -0.7597
    -0.6475  -0.5617  -0.4944  -0.4944  -0.4849  -0.4569  -0.3968  -0.3750
    -0.2110  -0.1754  -0.1560  -0.1395  -0.1257  -0.1250  -0.1015   0.0202
     0.8817   1.2822   1.4942   1.5680   2.2464   2.6878   3.1010   3.1020
     3.3834   3.4343   3.5861   3.8613

     occupation numbers 
     1.0000   1.0000   1.0000   1.0000   1.0000   1.0000   1.0000   1.0000
     1.0000   1.0000   1.0000   1.0000   1.0000   1.0000   1.0000   1.0000
     1.0000   1.0000   1.0000   1.0000   1.0000   1.0000   1.0000   1.0000
     1.0000   1.0000   1.0000   1.0000   1.0000   1.0000   1.0000   1.0000
     1.0000   1.0000   1.0000   1.0000

          k = 0.0000-0.3849 0.0939 (  4862 PWs)   bands (ev):

   -12.0069 -11.9710 -11.8732 -11.8375  -0.8617  -0.8478  -0.7921  -0.7620
    -0.6357  -0.5915  -0.4858  -0.4669  -0.4634  -0.4617  -0.4108  -0.4012
    -0.2125  -0.1944  -0.1537  -0.1453  -0.1183  -0.1053  -0.0943  -0.0183
     0.9620   1.1718   1.5775   1.6066   2.2580   2.4829   3.1422   3.2562
     3.2882   3.4140   3.6801   3.8225

     occupation numbers 
     1.0000   1.0000   1.0000   1.0000   1.0000   1.0000   1.0000   1.0000
     1.0000   1.0000   1.0000   1.0000   1.0000   1.0000   1.0000   1.0000
     1.0000   1.0000   1.0000   1.0000   1.0000   1.0000   1.0000   1.0000
     1.0000   1.0000   1.0000   1.0000   1.0000   1.0000   1.0000   1.0000
     1.0000   1.0000   1.0000   1.0000

          k =-0.1667-0.4811 0.0469 (  4871 PWs)   bands (ev):

   -11.8973 -11.8573 -11.8289 -11.7911  -0.7977  -0.7759  -0.7443  -0.6607
    -0.5840  -0.5773  -0.4952  -0.4257  -0.4066  -0.3774  -0.3471  -0.3204
    -0.2180  -0.1731  -0.1674  -0.1456  -0.0483  -0.0333  -0.0078   0.0659
     1.0052   1.0680   1.2077   1.4324   2.0674   2.4712   2.6430   2.8718
     3.0126   3.1221   3.1757   3.4298

     occupation numbers 
     1.0000   1.0000   1.0000   1.0000   1.0000   1.0000   1.0000   1.0000
     1.0000   1.0000   1.0000   1.0000   1.0000   1.0000   1.0000   1.0000
     1.0000   1.0000   1.0000   1.0000   1.0000   1.0000   1.0000   1.0000
     1.0000   1.0000   1.0000   1.0000   1.0000   1.0000   1.0000   1.0000
     1.0000   1.0000   1.0000   1.0000

          k =-0.1667-0.4811 0.0939 (  4874 PWs)   bands (ev):

   -11.8915 -11.8708 -11.8158 -11.7964  -0.7918  -0.7814  -0.7211  -0.6797
    -0.5968  -0.5869  -0.4488  -0.4325  -0.4162  -0.3629  -0.3626  -0.3339
    -0.2166  -0.1908  -0.1553  -0.1417  -0.0470  -0.0402   0.0114   0.0522
     0.9929   1.0209   1.2868   1.4107   2.1636   2.4757   2.5305   2.7576
     3.0988   3.1479   3.2451   3.3789

     occupation numbers 
     1.0000   1.0000   1.0000   1.0000   1.0000   1.0000   1.0000   1.0000
     1.0000   1.0000   1.0000   1.0000   1.0000   1.0000   1.0000   1.0000
     1.0000   1.0000   1.0000   1.0000   1.0000   1.0000   1.0000   1.0000
     1.0000   1.0000   1.0000   1.0000   1.0000   1.0000   1.0000   1.0000
     1.0000   1.0000   1.0000   1.0000

     highest occupied level (ev):     4.2271

!    total energy              =    -723.14779679 Ry
     estimated scf accuracy    <          9.4E-09 Ry

     The total energy is the sum of the following terms:
     one-electron contribution =    -354.82716556 Ry
     hartree contribution      =     252.88960855 Ry
     xc contribution           =    -218.27924780 Ry
     ewald contribution        =    -402.93099198 Ry

     convergence has been achieved in  57 iterations

     Forces acting on atoms (cartesian axes, Ry/au):

     atom    1 type  1   force =     0.00000000    0.00000000    0.01399846
     atom    2 type  2   force =     0.00000000    0.00000000   -0.01399043
     atom    3 type  1   force =     0.00000000    0.00000000    0.01397655
     atom    4 type  2   force =     0.00000000    0.00000000   -0.01398612
     atom    5 type  1   force =     0.00000000    0.00000000    0.01396776
     atom    6 type  2   force =     0.00000000    0.00000000   -0.01398513
     atom    7 type  1   force =     0.00000000    0.00000000    0.01400850
     atom    8 type  2   force =     0.00000000    0.00000000   -0.01398959
     The non-local contrib.  to forces
     atom    1 type  1   force =     0.00000000   -0.00000000   -0.12171426
     atom    2 type  2   force =     0.00000000   -0.00000000   -0.11155534
     atom    3 type  1   force =     0.00000000    0.00000000   -0.12172987
     atom    4 type  2   force =     0.00000000    0.00000000   -0.11154105
     atom    5 type  1   force =     0.00000000    0.00000000   -0.12173876
     atom    6 type  2   force =     0.00000000    0.00000000   -0.11154701
     atom    7 type  1   force =     0.00000000    0.00000000   -0.12170143
     atom    8 type  2   force =     0.00000000    0.00000000   -0.11156217
     The ionic contribution  to forces
     atom    1 type  1   force =    -0.00000000    0.00000000   -0.99047113
     atom    2 type  2   force =     0.00000000   -0.00000000    0.99047113
     atom    3 type  1   force =     0.00000000   -0.00000000   -0.99047113
     atom    4 type  2   force =    -0.00000000    0.00000000    0.99047113
     atom    5 type  1   force =    -0.00000000    0.00000000   -0.99047113
     atom    6 type  2   force =     0.00000000   -0.00000000    0.99047113
     atom    7 type  1   force =     0.00000000   -0.00000000   -0.99047113
     atom    8 type  2   force =    -0.00000000    0.00000000    0.99047113
     The local contribution  to forces
     atom    1 type  1   force =     0.00000000   -0.00000000    1.12034159
     atom    2 type  2   force =     0.00000001   -0.00000001   -0.89390251
     atom    3 type  1   force =     0.00000005   -0.00000003    1.12037705
     atom    4 type  2   force =    -0.00000000   -0.00000000   -0.89389033
     atom    5 type  1   force =    -0.00000000    0.00000000    1.12039903
     atom    6 type  2   force =     0.00000001   -0.00000001   -0.89388531
     atom    7 type  1   force =     0.00000005   -0.00000003    1.12031940
     atom    8 type  2   force =    -0.00000000   -0.00000000   -0.89390576
     The core correction contribution to forces
     atom    1 type  1   force =    -0.00000000    0.00000000    0.00581499
     atom    2 type  2   force =    -0.00000000    0.00000000    0.00098786
     atom    3 type  1   force =     0.00000001   -0.00000000    0.00581098
     atom    4 type  2   force =     0.00000000   -0.00000000    0.00098769
     atom    5 type  1   force =    -0.00000000   -0.00000000    0.00581427
     atom    6 type  2   force =    -0.00000000    0.00000000    0.00098776
     atom    7 type  1   force =     0.00000001   -0.00000000    0.00581115
     atom    8 type  2   force =     0.00000000   -0.00000000    0.00098797
     The Hubbard contrib.    to forces
     atom    1 type  1   force =     0.00000000    0.00000000    0.00000000
     atom    2 type  2   force =     0.00000000    0.00000000    0.00000000
     atom    3 type  1   force =     0.00000000    0.00000000    0.00000000
     atom    4 type  2   force =     0.00000000    0.00000000    0.00000000
     atom    5 type  1   force =     0.00000000    0.00000000    0.00000000
     atom    6 type  2   force =     0.00000000    0.00000000    0.00000000
     atom    7 type  1   force =     0.00000000    0.00000000    0.00000000
     atom    8 type  2   force =     0.00000000    0.00000000    0.00000000
     The SCF correction term to forces
     atom    1 type  1   force =     0.00000000   -0.00000000    0.00002950
     atom    2 type  2   force =     0.00000000   -0.00000000    0.00001066
     atom    3 type  1   force =    -0.00000000    0.00000000   -0.00000826
     atom    4 type  2   force =     0.00000000   -0.00000000   -0.00001133
     atom    5 type  1   force =     0.00000000   -0.00000000   -0.00003341
     atom    6 type  2   force =     0.00000000   -0.00000000   -0.00000949
     atom    7 type  1   force =    -0.00000000    0.00000000    0.00005274
     atom    8 type  2   force =     0.00000000   -0.00000000    0.00002146

     Total force =     0.039564     Total SCF correction =     0.000075

     init_run     :      4.44s CPU      4.65s WALL (       1 calls)
     electrons    :    391.33s CPU    410.02s WALL (       1 calls)
     forces       :      1.48s CPU      1.54s WALL (       1 calls)

     Called by init_run:
     wfcinit      :      2.54s CPU      2.65s WALL (       1 calls)
     wfcinit:atom :      0.03s CPU      0.03s WALL (      17 calls)
     wfcinit:wfcr :      2.34s CPU      2.46s WALL (      17 calls)
     potinit      :      0.70s CPU      0.71s WALL (       1 calls)
     hinit0       :      1.04s CPU      1.05s WALL (       1 calls)

     Called by electrons:
     c_bands      :    326.34s CPU    337.89s WALL (      57 calls)
     sum_band     :     52.61s CPU     57.21s WALL (      57 calls)
     v_of_rho     :      5.01s CPU      5.17s WALL (      58 calls)
     v_h          :      0.29s CPU      0.30s WALL (      58 calls)
     v_xc         :      4.80s CPU      4.95s WALL (      59 calls)
     newd         :      6.28s CPU      8.64s WALL (      58 calls)
     mix_rho      :      0.81s CPU      0.85s WALL (      57 calls)

     Called by c_bands:
     init_us_2    :      2.98s CPU      3.01s WALL (    1972 calls)
     init_us_2:cp :      2.97s CPU      3.00s WALL (    1972 calls)
     cegterg      :    301.05s CPU    312.52s WALL (     969 calls)

     Called by sum_band:
     sum_band:wei :      0.01s CPU      0.01s WALL (      57 calls)
     sum_band:loo :     43.59s CPU     45.61s WALL (      57 calls)
     sum_band:buf :      0.21s CPU      0.22s WALL (     969 calls)
     sum_band:ini :      1.46s CPU      1.47s WALL (     969 calls)
     sum_band:cal :      5.25s CPU      5.33s WALL (     969 calls)
     sum_band:bec :      0.11s CPU      0.11s WALL (     969 calls)
     addusdens    :      7.14s CPU      9.61s WALL (      57 calls)
                                        0.00s GPU  (      57 calls)
     addusd:skk   :      0.06s CPU      0.06s WALL (     114 calls)
                                        0.00s GPU  (     114 calls)

     Called by *egterg:
     cdiaghg      :     19.96s CPU     20.01s WALL (    4768 calls)
     cegterg:over :     14.42s CPU     14.71s WALL (    3799 calls)
     cegterg:upda :      8.98s CPU      9.02s WALL (    3799 calls)
     cegterg:last :     17.52s CPU     17.54s WALL (    2209 calls)
     h_psi        :    218.88s CPU    229.93s WALL (    4785 calls)
     s_psi        :     16.29s CPU     16.34s WALL (    4785 calls)
     g_psi        :      0.84s CPU      0.84s WALL (    3799 calls)

     Called by h_psi:
     h_psi:calbec :     15.48s CPU     15.94s WALL (    4785 calls)
     vloc_psi     :    185.96s CPU    196.49s WALL (    4785 calls)
     add_vuspsi   :     16.78s CPU     16.85s WALL (    4785 calls)

     General routines
     calbec       :     21.07s CPU     21.61s WALL (    5822 calls)
     fft          :      2.96s CPU      3.20s WALL (     763 calls)
     ffts         :      0.31s CPU      0.32s WALL (     115 calls)
     fftw         :    184.40s CPU    194.80s WALL (  229334 calls)
     interpolate  :      0.49s CPU      0.51s WALL (      58 calls)

     Parallel routines

     PWSCF        :   6m37.71s CPU   6m56.70s WALL


   This run was terminated on:  15:46:19  13Jul2025            

=------------------------------------------------------------------------------=
   JOB DONE.
=------------------------------------------------------------------------------=
Note: The following floating-point exceptions are signalling: IEEE_INVALID_FLAG
Note: The following floating-point exceptions are signalling: IEEE_INVALID_FLAG
