Authorization required, but no authorization protocol specified

Authorization required, but no authorization protocol specified

Authorization required, but no authorization protocol specified

Authorization required, but no authorization protocol specified

Authorization required, but no authorization protocol specified

Authorization required, but no authorization protocol specified

Authorization required, but no authorization protocol specified

Authorization required, but no authorization protocol specified

Authorization required, but no authorization protocol specified

Authorization required, but no authorization protocol specified


     Program PWSCF v.7.2 starts on 13Jul2025 at 10:53:41 

     This program is part of the open-source Quantum ESPRESSO suite
     for quantum simulation of materials; please cite
         "P. Giannozzi et al., J. Phys.:Condens. Matter 21 395502 (2009);
         "P. Giannozzi et al., J. Phys.:Condens. Matter 29 465901 (2017);
         "P. Giannozzi et al., J. Chem. Phys. 152 154105 (2020);
          URL http://www.quantum-espresso.org", 
     in publications or presentations arising from this work. More details at
     http://www.quantum-espresso.org/quote

     Parallel version (MPI), running on     8 processors

     MPI processes distributed on     1 nodes
     55450 MiB available memory on the printing compute node when the environment starts

     Reading input from /home/jvc/QEspresso7.2/ZnO_database/scripts/cell112.in/ZnO-2.94-1.49-112.in
Warning: card &CELL ignored
Warning: card / ignored
Warning: card &FCP ignored
Warning: card / ignored
Warning: card &RISM ignored
Warning: card / ignored

     Current dimensions of program PWSCF are:
     Max number of different atomic species (ntypx) = 10
     Max number of k-points (npk) =  40000
     Max angular momentum in pseudopotentials (lmaxx) =  4
     file Zn.upf: wavefunction(s)  3D renormalized
     Found identity + (  0.0000  0.0000 -0.5000) symmetry
     This is a supercell, fractional translations are disabled
     Message from routine setup:
     using ibrav=0 with symmetry is DISCOURAGED, use correct ibrav instead

     K-points division:     npool     =       2
     R & G space division:  proc/nbgrp/npool/nimage =       4
     Subspace diagonalization in iterative solution of the eigenvalue problem:
     a serial algorithm will be used


     Parallelization info
     --------------------
     sticks:   dense  smooth     PW     G-vecs:    dense   smooth      PW
     Min         211     107     31                14943     5290     885
     Max         212     109     33                14960     5295     893
     Sum         847     433    127                59823    21171    3551

     Using Slab Decomposition



     bravais-lattice index     =            0
     lattice parameter (alat)  =       5.5610  a.u.
     unit-cell volume          =     442.3843 (a.u.)^3
     number of atoms/cell      =            8
     number of atomic types    =            2
     number of electrons       =        72.00
     number of Kohn-Sham states=           36
     kinetic-energy cutoff     =      50.0000  Ry
     charge density cutoff     =     400.0000  Ry
     scf convergence threshold =      1.0E-08
     mixing beta               =       0.3000
     number of iterations used =            8  plain     mixing
     Exchange-correlation= PBE
                           (   1   4   3   4   0   0   0)

     celldm(1)=   5.560969  celldm(2)=   0.000000  celldm(3)=   0.000000
     celldm(4)=   0.000000  celldm(5)=   0.000000  celldm(6)=   0.000000

     crystal axes: (cart. coord. in units of alat)
               a(1) = (   1.000000   0.000000   0.000000 )  
               a(2) = (  -0.500000   0.866025   0.000000 )  
               a(3) = (   0.000000   0.000000   2.970419 )  

     reciprocal axes: (cart. coord. in units 2 pi/alat)
               b(1) = (  1.000000  0.577350 -0.000000 )  
               b(2) = (  0.000000  1.154701  0.000000 )  
               b(3) = (  0.000000 -0.000000  0.336653 )  


     PseudoPot. # 1 for Zn read from file:
     /home/jvc/QEspresso7.2/ZnO_database/pseudos/Zn.upf
     MD5 check sum: 7f56cabf9682ed8c977c2f7d0c5985c5
     Pseudo is Ultrasoft + core correction, Zval = 12.0
     Generated using &quot;atomic&quot; code by A. Dal Corso  v.6.2.2
     Using radial grid of 1201 points,  6 beta functions with: 
                l(1) =   0
                l(2) =   0
                l(3) =   1
                l(4) =   1
                l(5) =   2
                l(6) =   2
     Q(r) pseudized with 0 coefficients 


     PseudoPot. # 2 for O  read from file:
     /home/jvc/QEspresso7.2/ZnO_database/pseudos/O.upf
     MD5 check sum: 91400c9766925bcf19f520983a725ff0
     Pseudo is Ultrasoft + core correction, Zval =  6.0
     Generated using &quot;atomic&quot; code by A. Dal Corso  v.6.3MaX
     Using radial grid of 1095 points,  4 beta functions with: 
                l(1) =   0
                l(2) =   0
                l(3) =   1
                l(4) =   1
     Q(r) pseudized with 0 coefficients 


     atomic species   valence    mass     pseudopotential
        Zn            12.00    65.38000     Zn( 1.00)
        O              6.00    15.99900     O ( 1.00)

      6 Sym. Ops. (no inversion) found


                                    s                        frac. trans.

      isym =  1     identity                                     

 cryst.   s( 1) = (     1          0          0      )
                  (     0          1          0      )
                  (     0          0          1      )

 cart.    s( 1) = (  1.0000000  0.0000000  0.0000000 )
                  (  0.0000000  1.0000000  0.0000000 )
                  (  0.0000000  0.0000000  1.0000000 )


      isym =  2     120 deg rotation - cryst. axis [0,0,1]       

 cryst.   s( 2) = (     0          1          0      )
                  (    -1         -1          0      )
                  (     0          0          1      )

 cart.    s( 2) = ( -0.5000000 -0.8660254  0.0000000 )
                  (  0.8660254 -0.5000000  0.0000000 )
                  (  0.0000000  0.0000000  1.0000000 )


      isym =  3     120 deg rotation - cryst. axis [0,0,-1]      

 cryst.   s( 3) = (    -1         -1          0      )
                  (     1          0          0      )
                  (     0          0          1      )

 cart.    s( 3) = ( -0.5000000  0.8660254  0.0000000 )
                  ( -0.8660254 -0.5000000  0.0000000 )
                  (  0.0000000  0.0000000  1.0000000 )


      isym =  4     inv. 180 deg rotation - cart. axis [1,0,0]   

 cryst.   s( 4) = (    -1          0          0      )
                  (     1          1          0      )
                  (     0          0          1      )

 cart.    s( 4) = ( -1.0000000 -0.0000000  0.0000000 )
                  (  0.0000000  1.0000000  0.0000000 )
                  (  0.0000000  0.0000000  1.0000000 )


      isym =  5     inv. 180 deg rotation - cryst. axis [0,1,0]  

 cryst.   s( 5) = (     1          1          0      )
                  (     0         -1          0      )
                  (     0          0          1      )

 cart.    s( 5) = (  0.5000000  0.8660254  0.0000000 )
                  (  0.8660254 -0.5000000  0.0000000 )
                  (  0.0000000  0.0000000  1.0000000 )


      isym =  6     inv. 180 deg rotation - cryst. axis [1,1,0]  

 cryst.   s( 6) = (     0         -1          0      )
                  (    -1          0          0      )
                  (     0          0          1      )

 cart.    s( 6) = (  0.5000000 -0.8660254  0.0000000 )
                  ( -0.8660254 -0.5000000  0.0000000 )
                  (  0.0000000  0.0000000  1.0000000 )


   Cartesian axes

     site n.     atom                  positions (alat units)
         1           Zn  tau(   1) = (   0.0000000   0.0000000   0.0000000  )
         2           O   tau(   2) = (  -0.0000000   0.5773503   0.1468672  )
         3           Zn  tau(   3) = (  -0.0000000   0.5773503   0.7426048  )
         4           O   tau(   4) = (   0.0000000   0.0000000   0.8894721  )
         5           Zn  tau(   5) = (   0.0000000   0.0000000   1.4852097  )
         6           O   tau(   6) = (  -0.0000000   0.5773503   1.6320769  )
         7           Zn  tau(   7) = (  -0.0000000   0.5773503   2.2278145  )
         8           O   tau(   8) = (   0.0000000   0.0000000   2.3746818  )

   Crystallographic axes

     site n.     atom                  positions (cryst. coord.)
         1           Zn  tau(   1) = (  0.0000000  0.0000000  0.0000000  )
         2           O   tau(   2) = (  0.3333333  0.6666667  0.0494433  )
         3           Zn  tau(   3) = (  0.3333333  0.6666667  0.2500000  )
         4           O   tau(   4) = (  0.0000000  0.0000000  0.2994433  )
         5           Zn  tau(   5) = (  0.0000000  0.0000000  0.5000000  )
         6           O   tau(   6) = (  0.3333333  0.6666667  0.5494433  )
         7           Zn  tau(   7) = (  0.3333333  0.6666667  0.7500000  )
         8           O   tau(   8) = (  0.0000000  0.0000000  0.7994433  )

     number of k points=    34
                       cart. coord. in units 2pi/alat
        k(    1) = (   0.0000000   0.0000000   0.0000000), wk =   0.0092593
        k(    2) = (   0.0000000   0.0000000   0.0561088), wk =   0.0185185
        k(    3) = (   0.0000000   0.0000000   0.1122176), wk =   0.0185185
        k(    4) = (   0.0000000   0.0000000  -0.1683264), wk =   0.0092593
        k(    5) = (   0.0000000   0.1924501   0.0000000), wk =   0.0555556
        k(    6) = (   0.0000000   0.1924501   0.0561088), wk =   0.0555556
        k(    7) = (   0.0000000   0.1924501   0.1122176), wk =   0.0555556
        k(    8) = (   0.0000000   0.1924501  -0.1683264), wk =   0.0555556
        k(    9) = (   0.0000000   0.3849002   0.0000000), wk =   0.0555556
        k(   10) = (   0.0000000   0.3849002   0.0561088), wk =   0.0555556
        k(   11) = (   0.0000000   0.3849002   0.1122176), wk =   0.0555556
        k(   12) = (   0.0000000   0.3849002  -0.1683264), wk =   0.0555556
        k(   13) = (   0.0000000  -0.5773503   0.0000000), wk =   0.0277778
        k(   14) = (   0.0000000  -0.5773503   0.0561088), wk =   0.0555556
        k(   15) = (   0.0000000  -0.5773503   0.1122176), wk =   0.0555556
        k(   16) = (   0.0000000  -0.5773503  -0.1683264), wk =   0.0277778
        k(   17) = (   0.1666667   0.2886751   0.0000000), wk =   0.0555556
        k(   18) = (   0.1666667   0.2886751   0.0561088), wk =   0.1111111
        k(   19) = (   0.1666667   0.2886751   0.1122176), wk =   0.1111111
        k(   20) = (   0.1666667   0.2886751  -0.1683264), wk =   0.0555556
        k(   21) = (   0.1666667   0.4811252   0.0000000), wk =   0.1111111
        k(   22) = (   0.1666667   0.4811252   0.0561088), wk =   0.1111111
        k(   23) = (   0.1666667   0.4811252   0.1122176), wk =   0.1111111
        k(   24) = (   0.1666667   0.4811252  -0.1683264), wk =   0.1111111
        k(   25) = (   0.3333333   0.5773503   0.0000000), wk =   0.0185185
        k(   26) = (   0.3333333   0.5773503   0.0561088), wk =   0.0370370
        k(   27) = (   0.3333333   0.5773503   0.1122176), wk =   0.0370370
        k(   28) = (   0.3333333   0.5773503  -0.1683264), wk =   0.0185185
        k(   29) = (   0.0000000  -0.1924501   0.0561088), wk =   0.0555556
        k(   30) = (   0.0000000  -0.1924501   0.1122176), wk =   0.0555556
        k(   31) = (   0.0000000  -0.3849002   0.0561088), wk =   0.0555556
        k(   32) = (   0.0000000  -0.3849002   0.1122176), wk =   0.0555556
        k(   33) = (  -0.1666667  -0.4811252   0.0561088), wk =   0.1111111
        k(   34) = (  -0.1666667  -0.4811252   0.1122176), wk =   0.1111111

                       cryst. coord.
        k(    1) = (   0.0000000   0.0000000   0.0000000), wk =   0.0092593
        k(    2) = (   0.0000000   0.0000000   0.1666667), wk =   0.0185185
        k(    3) = (   0.0000000   0.0000000   0.3333333), wk =   0.0185185
        k(    4) = (   0.0000000   0.0000000  -0.5000000), wk =   0.0092593
        k(    5) = (   0.0000000   0.1666667   0.0000000), wk =   0.0555556
        k(    6) = (   0.0000000   0.1666667   0.1666667), wk =   0.0555556
        k(    7) = (   0.0000000   0.1666667   0.3333333), wk =   0.0555556
        k(    8) = (   0.0000000   0.1666667  -0.5000000), wk =   0.0555556
        k(    9) = (   0.0000000   0.3333333   0.0000000), wk =   0.0555556
        k(   10) = (   0.0000000   0.3333333   0.1666667), wk =   0.0555556
        k(   11) = (   0.0000000   0.3333333   0.3333333), wk =   0.0555556
        k(   12) = (   0.0000000   0.3333333  -0.5000000), wk =   0.0555556
        k(   13) = (   0.0000000  -0.5000000   0.0000000), wk =   0.0277778
        k(   14) = (   0.0000000  -0.5000000   0.1666667), wk =   0.0555556
        k(   15) = (   0.0000000  -0.5000000   0.3333333), wk =   0.0555556
        k(   16) = (   0.0000000  -0.5000000  -0.5000000), wk =   0.0277778
        k(   17) = (   0.1666667   0.1666667   0.0000000), wk =   0.0555556
        k(   18) = (   0.1666667   0.1666667   0.1666667), wk =   0.1111111
        k(   19) = (   0.1666667   0.1666667   0.3333333), wk =   0.1111111
        k(   20) = (   0.1666667   0.1666667  -0.5000000), wk =   0.0555556
        k(   21) = (   0.1666667   0.3333333   0.0000000), wk =   0.1111111
        k(   22) = (   0.1666667   0.3333333   0.1666667), wk =   0.1111111
        k(   23) = (   0.1666667   0.3333333   0.3333333), wk =   0.1111111
        k(   24) = (   0.1666667   0.3333333  -0.5000000), wk =   0.1111111
        k(   25) = (   0.3333333   0.3333333   0.0000000), wk =   0.0185185
        k(   26) = (   0.3333333   0.3333333   0.1666667), wk =   0.0370370
        k(   27) = (   0.3333333   0.3333333   0.3333333), wk =   0.0370370
        k(   28) = (   0.3333333   0.3333333  -0.5000000), wk =   0.0185185
        k(   29) = (   0.0000000  -0.1666667   0.1666667), wk =   0.0555556
        k(   30) = (   0.0000000  -0.1666667   0.3333333), wk =   0.0555556
        k(   31) = (   0.0000000  -0.3333333   0.1666667), wk =   0.0555556
        k(   32) = (   0.0000000  -0.3333333   0.3333333), wk =   0.0555556
        k(   33) = (  -0.1666667  -0.3333333   0.1666667), wk =   0.1111111
        k(   34) = (  -0.1666667  -0.3333333   0.3333333), wk =   0.1111111

     Dense  grid:    59823 G-vectors     FFT dimensions: (  36,  36, 108)

     Smooth grid:    21171 G-vectors     FFT dimensions: (  25,  25,  75)

     Dynamical RAM for                 wfc:       0.36 MB

     Dynamical RAM for     wfc (w. buffer):       6.53 MB

     Dynamical RAM for           str. fact:       0.46 MB

     Dynamical RAM for           local pot:       0.00 MB

     Dynamical RAM for          nlocal pot:       1.05 MB

     Dynamical RAM for                qrad:       3.21 MB

     Dynamical RAM for          rho,v,vnew:       1.49 MB

     Dynamical RAM for               rhoin:       0.50 MB

     Dynamical RAM for            rho*nmix:       3.65 MB

     Dynamical RAM for           G-vectors:       0.90 MB

     Dynamical RAM for          h,s,v(r/c):       0.24 MB

     Dynamical RAM for          <psi|beta>:       0.06 MB

     Dynamical RAM for                 psi:       0.73 MB

     Dynamical RAM for                hpsi:       0.73 MB

     Dynamical RAM for                spsi:       0.73 MB

     Dynamical RAM for      wfcinit/wfcrot:       1.11 MB

     Dynamical RAM for           addusdens:      21.80 MB

     Dynamical RAM for          addusforce:      22.50 MB

     Estimated static dynamical RAM per process >      16.14 MB

     Estimated max dynamical RAM per process >      42.29 MB

     Estimated total dynamical RAM >     323.71 MB

     Initial potential from superposition of free atoms

     starting charge      71.9851, renormalised to      72.0000
     Starting wfcs are   52 randomized atomic wfcs

     total cpu time spent up to now is        3.3 secs

     Self-consistent Calculation

     iteration #  1     ecut=    50.00 Ry     beta= 0.30
     Davidson diagonalization with overlap

---- Real-time Memory Report at c_bands before calling an iterative solver
            64 MiB given to the printing process from OS
             0 MiB allocation reported by mallinfo(arena+hblkhd)
         55151 MiB available memory on the node where the printing process lives
------------------
     ethr =  1.00E-02,  avg # of iterations =  2.3

     total cpu time spent up to now is        6.1 secs

     total energy              =    -722.34428657 Ry
     estimated scf accuracy    <       1.40824703 Ry

     iteration #  2     ecut=    50.00 Ry     beta= 0.30
     Davidson diagonalization with overlap

---- Real-time Memory Report at c_bands before calling an iterative solver
            75 MiB given to the printing process from OS
             0 MiB allocation reported by mallinfo(arena+hblkhd)
         55044 MiB available memory on the node where the printing process lives
------------------
     ethr =  1.96E-03,  avg # of iterations =  2.0

     total cpu time spent up to now is        9.3 secs

     total energy              =    -722.37196761 Ry
     estimated scf accuracy    <       0.32745790 Ry

     iteration #  3     ecut=    50.00 Ry     beta= 0.30
     Davidson diagonalization with overlap

---- Real-time Memory Report at c_bands before calling an iterative solver
            76 MiB given to the printing process from OS
             0 MiB allocation reported by mallinfo(arena+hblkhd)
         55045 MiB available memory on the node where the printing process lives
------------------
     ethr =  4.55E-04,  avg # of iterations =  6.2

     total cpu time spent up to now is       14.8 secs

     total energy              =    -722.57815802 Ry
     estimated scf accuracy    <       0.19130071 Ry

     iteration #  4     ecut=    50.00 Ry     beta= 0.30
     Davidson diagonalization with overlap

---- Real-time Memory Report at c_bands before calling an iterative solver
            76 MiB given to the printing process from OS
             0 MiB allocation reported by mallinfo(arena+hblkhd)
         55046 MiB available memory on the node where the printing process lives
------------------
     ethr =  2.66E-04,  avg # of iterations =  2.0

     total cpu time spent up to now is       17.5 secs

     total energy              =    -722.56654160 Ry
     estimated scf accuracy    <       0.06217221 Ry

     iteration #  5     ecut=    50.00 Ry     beta= 0.30
     Davidson diagonalization with overlap

---- Real-time Memory Report at c_bands before calling an iterative solver
            76 MiB given to the printing process from OS
             0 MiB allocation reported by mallinfo(arena+hblkhd)
         55060 MiB available memory on the node where the printing process lives
------------------
     ethr =  8.64E-05,  avg # of iterations =  8.9

     total cpu time spent up to now is       25.1 secs

     total energy              =    -722.65377477 Ry
     estimated scf accuracy    <       0.90939090 Ry

     iteration #  6     ecut=    50.00 Ry     beta= 0.30
     Davidson diagonalization with overlap

---- Real-time Memory Report at c_bands before calling an iterative solver
            77 MiB given to the printing process from OS
             0 MiB allocation reported by mallinfo(arena+hblkhd)
         55074 MiB available memory on the node where the printing process lives
------------------
     ethr =  8.64E-05,  avg # of iterations =  5.3

     total cpu time spent up to now is       29.8 secs

     total energy              =    -722.51536544 Ry
     estimated scf accuracy    <       0.33780148 Ry

     iteration #  7     ecut=    50.00 Ry     beta= 0.30
     Davidson diagonalization with overlap

---- Real-time Memory Report at c_bands before calling an iterative solver
            77 MiB given to the printing process from OS
             0 MiB allocation reported by mallinfo(arena+hblkhd)
         55077 MiB available memory on the node where the printing process lives
------------------
     ethr =  8.64E-05,  avg # of iterations =  6.7

     total cpu time spent up to now is       35.6 secs

     total energy              =    -722.58910765 Ry
     estimated scf accuracy    <       0.00023539 Ry

     iteration #  8     ecut=    50.00 Ry     beta= 0.30
     Davidson diagonalization with overlap

---- Real-time Memory Report at c_bands before calling an iterative solver
            77 MiB given to the printing process from OS
             0 MiB allocation reported by mallinfo(arena+hblkhd)
         55079 MiB available memory on the node where the printing process lives
------------------
     ethr =  3.27E-07,  avg # of iterations = 10.8

     total cpu time spent up to now is       44.1 secs

     total energy              =    -722.59098207 Ry
     estimated scf accuracy    <       0.00044637 Ry

     iteration #  9     ecut=    50.00 Ry     beta= 0.30
     Davidson diagonalization with overlap

---- Real-time Memory Report at c_bands before calling an iterative solver
            77 MiB given to the printing process from OS
             0 MiB allocation reported by mallinfo(arena+hblkhd)
         55079 MiB available memory on the node where the printing process lives
------------------
     ethr =  3.27E-07,  avg # of iterations =  1.1

     total cpu time spent up to now is       46.6 secs

     total energy              =    -722.59085223 Ry
     estimated scf accuracy    <       0.00034559 Ry

     iteration # 10     ecut=    50.00 Ry     beta= 0.30
     Davidson diagonalization with overlap

---- Real-time Memory Report at c_bands before calling an iterative solver
            77 MiB given to the printing process from OS
             0 MiB allocation reported by mallinfo(arena+hblkhd)
         55071 MiB available memory on the node where the printing process lives
------------------
     ethr =  3.27E-07,  avg # of iterations =  2.1

     total cpu time spent up to now is       49.4 secs

     total energy              =    -722.59081422 Ry
     estimated scf accuracy    <       0.00009952 Ry

     iteration # 11     ecut=    50.00 Ry     beta= 0.30
     Davidson diagonalization with overlap

---- Real-time Memory Report at c_bands before calling an iterative solver
            77 MiB given to the printing process from OS
             0 MiB allocation reported by mallinfo(arena+hblkhd)
         55069 MiB available memory on the node where the printing process lives
------------------
     ethr =  1.38E-07,  avg # of iterations =  6.3

     total cpu time spent up to now is       54.7 secs

     total energy              =    -722.59091903 Ry
     estimated scf accuracy    <       0.00007458 Ry

     iteration # 12     ecut=    50.00 Ry     beta= 0.30
     Davidson diagonalization with overlap

---- Real-time Memory Report at c_bands before calling an iterative solver
            77 MiB given to the printing process from OS
             0 MiB allocation reported by mallinfo(arena+hblkhd)
         55076 MiB available memory on the node where the printing process lives
------------------
     ethr =  1.04E-07,  avg # of iterations =  1.1

     total cpu time spent up to now is       57.2 secs

     total energy              =    -722.59091097 Ry
     estimated scf accuracy    <       0.00006736 Ry

     iteration # 13     ecut=    50.00 Ry     beta= 0.30
     Davidson diagonalization with overlap

---- Real-time Memory Report at c_bands before calling an iterative solver
            77 MiB given to the printing process from OS
             0 MiB allocation reported by mallinfo(arena+hblkhd)
         55076 MiB available memory on the node where the printing process lives
------------------
     ethr =  9.36E-08,  avg # of iterations =  1.0

     total cpu time spent up to now is       59.6 secs

     total energy              =    -722.59090254 Ry
     estimated scf accuracy    <       0.00004785 Ry

     iteration # 14     ecut=    50.00 Ry     beta= 0.30
     Davidson diagonalization with overlap

---- Real-time Memory Report at c_bands before calling an iterative solver
            77 MiB given to the printing process from OS
             0 MiB allocation reported by mallinfo(arena+hblkhd)
         55077 MiB available memory on the node where the printing process lives
------------------
     ethr =  6.65E-08,  avg # of iterations =  1.2

     total cpu time spent up to now is       62.1 secs

     total energy              =    -722.59090474 Ry
     estimated scf accuracy    <       0.00002353 Ry

     iteration # 15     ecut=    50.00 Ry     beta= 0.30
     Davidson diagonalization with overlap

---- Real-time Memory Report at c_bands before calling an iterative solver
            77 MiB given to the printing process from OS
             0 MiB allocation reported by mallinfo(arena+hblkhd)
         55076 MiB available memory on the node where the printing process lives
------------------
     ethr =  3.27E-08,  avg # of iterations =  1.0

     total cpu time spent up to now is       64.5 secs

     total energy              =    -722.59090721 Ry
     estimated scf accuracy    <       0.00002439 Ry

     iteration # 16     ecut=    50.00 Ry     beta= 0.30
     Davidson diagonalization with overlap

---- Real-time Memory Report at c_bands before calling an iterative solver
            77 MiB given to the printing process from OS
             0 MiB allocation reported by mallinfo(arena+hblkhd)
         55076 MiB available memory on the node where the printing process lives
------------------
     ethr =  3.27E-08,  avg # of iterations =  1.0

     total cpu time spent up to now is       66.9 secs

     total energy              =    -722.59089749 Ry
     estimated scf accuracy    <       0.00002614 Ry

     iteration # 17     ecut=    50.00 Ry     beta= 0.30
     Davidson diagonalization with overlap

---- Real-time Memory Report at c_bands before calling an iterative solver
            77 MiB given to the printing process from OS
             0 MiB allocation reported by mallinfo(arena+hblkhd)
         55077 MiB available memory on the node where the printing process lives
------------------
     ethr =  3.27E-08,  avg # of iterations =  2.0

     total cpu time spent up to now is       69.6 secs

     total energy              =    -722.59089619 Ry
     estimated scf accuracy    <       0.00000824 Ry

     iteration # 18     ecut=    50.00 Ry     beta= 0.30
     Davidson diagonalization with overlap

---- Real-time Memory Report at c_bands before calling an iterative solver
            77 MiB given to the printing process from OS
             0 MiB allocation reported by mallinfo(arena+hblkhd)
         55077 MiB available memory on the node where the printing process lives
------------------
     ethr =  1.14E-08,  avg # of iterations =  4.2

     total cpu time spent up to now is       73.6 secs

     total energy              =    -722.59089979 Ry
     estimated scf accuracy    <       0.00000031 Ry

     iteration # 19     ecut=    50.00 Ry     beta= 0.30
     Davidson diagonalization with overlap

---- Real-time Memory Report at c_bands before calling an iterative solver
            77 MiB given to the printing process from OS
             0 MiB allocation reported by mallinfo(arena+hblkhd)
         55076 MiB available memory on the node where the printing process lives
------------------
     ethr =  4.37E-10,  avg # of iterations =  5.4

     total cpu time spent up to now is       78.1 secs

     total energy              =    -722.59090010 Ry
     estimated scf accuracy    <       0.00000019 Ry

     iteration # 20     ecut=    50.00 Ry     beta= 0.30
     Davidson diagonalization with overlap

---- Real-time Memory Report at c_bands before calling an iterative solver
            77 MiB given to the printing process from OS
             0 MiB allocation reported by mallinfo(arena+hblkhd)
         55077 MiB available memory on the node where the printing process lives
------------------
     ethr =  2.71E-10,  avg # of iterations =  8.1

     total cpu time spent up to now is       85.3 secs

     total energy              =    -722.59090087 Ry
     estimated scf accuracy    <       0.00000231 Ry

     iteration # 21     ecut=    50.00 Ry     beta= 0.30
     Davidson diagonalization with overlap

---- Real-time Memory Report at c_bands before calling an iterative solver
            77 MiB given to the printing process from OS
             0 MiB allocation reported by mallinfo(arena+hblkhd)
         55077 MiB available memory on the node where the printing process lives
------------------
     ethr =  2.71E-10,  avg # of iterations =  2.3

     total cpu time spent up to now is       88.2 secs

     total energy              =    -722.59090090 Ry
     estimated scf accuracy    <       0.00000288 Ry

     iteration # 22     ecut=    50.00 Ry     beta= 0.30
     Davidson diagonalization with overlap

---- Real-time Memory Report at c_bands before calling an iterative solver
            77 MiB given to the printing process from OS
             0 MiB allocation reported by mallinfo(arena+hblkhd)
         55077 MiB available memory on the node where the printing process lives
------------------
     ethr =  2.71E-10,  avg # of iterations =  1.2

     total cpu time spent up to now is       90.7 secs

     total energy              =    -722.59090046 Ry
     estimated scf accuracy    <       0.00000304 Ry

     iteration # 23     ecut=    50.00 Ry     beta= 0.30
     Davidson diagonalization with overlap

---- Real-time Memory Report at c_bands before calling an iterative solver
            77 MiB given to the printing process from OS
             0 MiB allocation reported by mallinfo(arena+hblkhd)
         55077 MiB available memory on the node where the printing process lives
------------------
     ethr =  2.71E-10,  avg # of iterations =  2.0

     total cpu time spent up to now is       93.4 secs

     total energy              =    -722.59090009 Ry
     estimated scf accuracy    <       0.00000225 Ry

     iteration # 24     ecut=    50.00 Ry     beta= 0.30
     Davidson diagonalization with overlap

---- Real-time Memory Report at c_bands before calling an iterative solver
            77 MiB given to the printing process from OS
             0 MiB allocation reported by mallinfo(arena+hblkhd)
         55077 MiB available memory on the node where the printing process lives
------------------
     ethr =  2.71E-10,  avg # of iterations =  4.7

     total cpu time spent up to now is       97.7 secs

     total energy              =    -722.59090014 Ry
     estimated scf accuracy    <       0.00000104 Ry

     iteration # 25     ecut=    50.00 Ry     beta= 0.30
     Davidson diagonalization with overlap

---- Real-time Memory Report at c_bands before calling an iterative solver
            77 MiB given to the printing process from OS
             0 MiB allocation reported by mallinfo(arena+hblkhd)
         55077 MiB available memory on the node where the printing process lives
------------------
     ethr =  2.71E-10,  avg # of iterations =  1.7

     total cpu time spent up to now is      100.3 secs

     total energy              =    -722.59090015 Ry
     estimated scf accuracy    <       0.00000098 Ry

     iteration # 26     ecut=    50.00 Ry     beta= 0.30
     Davidson diagonalization with overlap

---- Real-time Memory Report at c_bands before calling an iterative solver
            77 MiB given to the printing process from OS
             0 MiB allocation reported by mallinfo(arena+hblkhd)
         55077 MiB available memory on the node where the printing process lives
------------------
     ethr =  2.71E-10,  avg # of iterations =  1.2

     total cpu time spent up to now is      102.8 secs

     total energy              =    -722.59089983 Ry
     estimated scf accuracy    <       0.00000095 Ry

     iteration # 27     ecut=    50.00 Ry     beta= 0.30
     Davidson diagonalization with overlap

---- Real-time Memory Report at c_bands before calling an iterative solver
            77 MiB given to the printing process from OS
             0 MiB allocation reported by mallinfo(arena+hblkhd)
         55077 MiB available memory on the node where the printing process lives
------------------
     ethr =  2.71E-10,  avg # of iterations =  5.1

     total cpu time spent up to now is      107.5 secs

     total energy              =    -722.59089987 Ry
     estimated scf accuracy    <       0.00000014 Ry

     iteration # 28     ecut=    50.00 Ry     beta= 0.30
     Davidson diagonalization with overlap

---- Real-time Memory Report at c_bands before calling an iterative solver
            77 MiB given to the printing process from OS
             0 MiB allocation reported by mallinfo(arena+hblkhd)
         55077 MiB available memory on the node where the printing process lives
------------------
     ethr =  1.96E-10,  avg # of iterations =  3.3

     total cpu time spent up to now is      110.7 secs

     total energy              =    -722.59089988 Ry
     estimated scf accuracy    <       0.00000003 Ry

     iteration # 29     ecut=    50.00 Ry     beta= 0.30
     Davidson diagonalization with overlap

---- Real-time Memory Report at c_bands before calling an iterative solver
            77 MiB given to the printing process from OS
             0 MiB allocation reported by mallinfo(arena+hblkhd)
         55077 MiB available memory on the node where the printing process lives
------------------
     ethr =  4.03E-11,  avg # of iterations =  5.9

     total cpu time spent up to now is      115.2 secs

     End of self-consistent calculation

          k = 0.0000 0.0000 0.0000 (  2677 PWs)   bands (ev):

    -7.7215  -6.9106  -6.9105  -6.0399   5.2771   5.4053   5.4053   5.7555
     5.7555   5.7814   5.7814   5.7814   5.7814   5.9554   5.9554   6.4392
     8.3150   8.3150   8.7007   8.7007   8.7007   8.7007   8.9013   8.9013
     9.5956  11.8421  11.8421  12.9338  12.9338  13.5823  13.5823  13.5824
    13.5824  13.6267  14.2160  14.2160

     occupation numbers 
     1.0000   1.0000   1.0000   1.0000   1.0000   1.0000   1.0000   1.0000
     1.0000   1.0000   1.0000   1.0000   1.0000   1.0000   1.0000   1.0000
     1.0000   1.0000   1.0000   1.0000   1.0000   1.0000   1.0000   1.0000
     1.0000   1.0000   1.0000   1.0000   1.0000   1.0000   1.0000   1.0000
     1.0000   1.0000   1.0000   1.0000

          k = 0.0000 0.0000 0.0561 (  2677 PWs)   bands (ev):

    -7.6949  -7.1266  -6.6904  -6.0704   5.2562   5.2652   5.5992   5.7538
     5.7538   5.7606   5.7606   5.8119   5.8119   5.9469   5.9469   6.3905
     8.3307   8.3307   8.6174   8.6174   8.7728   8.7728   8.8976   8.8976
     9.7001  11.3769  12.2635  12.9555  12.9555  13.4136  13.4136  13.5238
    13.7500  13.7500  14.1952  14.1952

     occupation numbers 
     1.0000   1.0000   1.0000   1.0000   1.0000   1.0000   1.0000   1.0000
     1.0000   1.0000   1.0000   1.0000   1.0000   1.0000   1.0000   1.0000
     1.0000   1.0000   1.0000   1.0000   1.0000   1.0000   1.0000   1.0000
     1.0000   1.0000   1.0000   1.0000   1.0000   1.0000   1.0000   1.0000
     1.0000   1.0000   1.0000   1.0000

          k = 0.0000 0.0000 0.1122 (  2635 PWs)   bands (ev):

    -7.6166  -7.3240  -6.4817  -6.1593   5.1900   5.2109   5.7501   5.7501
     5.7502   5.7502   5.8258   5.8493   5.8493   5.9229   5.9229   6.2549
     8.3766   8.3766   8.5294   8.5294   8.8282   8.8282   8.8877   8.8877
     9.9898  10.8861  12.6394  13.0193  13.0193  13.2562  13.2562  13.2805
    13.9045  13.9045  14.1339  14.1339

     occupation numbers 
     1.0000   1.0000   1.0000   1.0000   1.0000   1.0000   1.0000   1.0000
     1.0000   1.0000   1.0000   1.0000   1.0000   1.0000   1.0000   1.0000
     1.0000   1.0000   1.0000   1.0000   1.0000   1.0000   1.0000   1.0000
     1.0000   1.0000   1.0000   1.0000   1.0000   1.0000   1.0000   1.0000
     1.0000   1.0000   1.0000   1.0000

          k = 0.0000 0.0000-0.1683 (  2642 PWs)   bands (ev):

    -7.4906  -7.4905  -6.3002  -6.3001   5.1777   5.1778   5.7476   5.7476
     5.7477   5.7477   5.8882   5.8882   5.8883   5.8883   6.0555   6.0555
     8.4459   8.4459   8.4459   8.4459   8.8655   8.8655   8.8656   8.8656
    10.4056  10.4056  12.9772  12.9773  13.1217  13.1217  13.1217  13.1217
    14.0351  14.0351  14.0352  14.0352

     occupation numbers 
     1.0000   1.0000   1.0000   1.0000   1.0000   1.0000   1.0000   1.0000
     1.0000   1.0000   1.0000   1.0000   1.0000   1.0000   1.0000   1.0000
     1.0000   1.0000   1.0000   1.0000   1.0000   1.0000   1.0000   1.0000
     1.0000   1.0000   1.0000   1.0000   1.0000   1.0000   1.0000   1.0000
     1.0000   1.0000   1.0000   1.0000

          k = 0.0000 0.1925 0.0000 (  2639 PWs)   bands (ev):

    -7.4500  -6.7098  -6.7098  -5.9502   5.0725   5.0725   5.3789   5.5484
     5.9310   5.9328   5.9727   5.9727   6.0176   6.0177   6.1627   6.5748
     8.1788   8.2885   8.6863   8.6863   8.7292   8.7292   8.9413   9.0325
     9.5846  11.7218  11.7218  11.7965  12.3289  12.8569  12.8569  13.0432
    13.1078  13.1078  13.4235  13.8430

     occupation numbers 
     1.0000   1.0000   1.0000   1.0000   1.0000   1.0000   1.0000   1.0000
     1.0000   1.0000   1.0000   1.0000   1.0000   1.0000   1.0000   1.0000
     1.0000   1.0000   1.0000   1.0000   1.0000   1.0000   1.0000   1.0000
     1.0000   1.0000   1.0000   1.0000   1.0000   1.0000   1.0000   1.0000
     1.0000   1.0000   1.0000   1.0000

          k = 0.0000 0.1925 0.0561 (  2641 PWs)   bands (ev):

    -7.4254  -6.9044  -6.5137  -5.9759   5.0256   5.1629   5.3432   5.5072
     5.9300   5.9481   5.9531   5.9937   6.0068   6.0717   6.1533   6.5334
     8.2053   8.3046   8.5967   8.6169   8.7669   8.8272   8.9355   9.0242
     9.7002  11.3687  11.8217  11.9929  12.3557  12.5443  12.9090  12.9284
    13.1777  13.3036  13.5046  13.8190

     occupation numbers 
     1.0000   1.0000   1.0000   1.0000   1.0000   1.0000   1.0000   1.0000
     1.0000   1.0000   1.0000   1.0000   1.0000   1.0000   1.0000   1.0000
     1.0000   1.0000   1.0000   1.0000   1.0000   1.0000   1.0000   1.0000
     1.0000   1.0000   1.0000   1.0000   1.0000   1.0000   1.0000   1.0000
     1.0000   1.0000   1.0000   1.0000

          k = 0.0000 0.1925 0.1122 (  2633 PWs)   bands (ev):

    -7.3529  -7.0841  -6.3302  -6.0516   5.0405   5.2386   5.2681   5.4382
     5.9280   5.9338   5.9802   5.9891   6.0476   6.1274   6.1630   6.4256
     8.2782   8.3504   8.4974   8.5051   8.8335   8.9058   8.9174   9.0019
    10.0145  10.9309  11.8975  12.1411  12.3674  12.4343  12.7215  12.7222
    13.4348  13.4829  13.5944  13.7482

     occupation numbers 
     1.0000   1.0000   1.0000   1.0000   1.0000   1.0000   1.0000   1.0000
     1.0000   1.0000   1.0000   1.0000   1.0000   1.0000   1.0000   1.0000
     1.0000   1.0000   1.0000   1.0000   1.0000   1.0000   1.0000   1.0000
     1.0000   1.0000   1.0000   1.0000   1.0000   1.0000   1.0000   1.0000
     1.0000   1.0000   1.0000   1.0000

          k = 0.0000 0.1925-0.1683 (  2622 PWs)   bands (ev):

    -7.2368  -7.2367  -6.1725  -6.1724   5.1190   5.1190   5.3626   5.3626
     5.9281   5.9282   5.9899   5.9899   6.0899   6.0900   6.2888   6.2889
     8.3807   8.3807   8.4200   8.4200   8.8837   8.8837   8.9637   8.9637
    10.4533  10.4534  12.0219  12.0219  12.5123  12.5123  12.5593  12.5593
    13.5797  13.5798  13.6340  13.6341

     occupation numbers 
     1.0000   1.0000   1.0000   1.0000   1.0000   1.0000   1.0000   1.0000
     1.0000   1.0000   1.0000   1.0000   1.0000   1.0000   1.0000   1.0000
     1.0000   1.0000   1.0000   1.0000   1.0000   1.0000   1.0000   1.0000
     1.0000   1.0000   1.0000   1.0000   1.0000   1.0000   1.0000   1.0000
     1.0000   1.0000   1.0000   1.0000

          k = 0.0000 0.3849 0.0000 (  2649 PWs)   bands (ev):

    -6.8138  -6.2852  -6.2851  -5.8263   4.6913   4.6913   5.0161   5.4820
     6.2782   6.2819   6.3330   6.3330   6.3985   6.3985   6.6593   7.0571
     7.9881   8.4062   8.7013   8.7013   8.8143   8.8143   8.9977   9.0053
     9.6841  10.1510  10.4385  10.4385  11.0854  11.2529  12.1236  12.1236
    12.5459  12.5459  12.8540  13.0075

     occupation numbers 
     1.0000   1.0000   1.0000   1.0000   1.0000   1.0000   1.0000   1.0000
     1.0000   1.0000   1.0000   1.0000   1.0000   1.0000   1.0000   1.0000
     1.0000   1.0000   1.0000   1.0000   1.0000   1.0000   1.0000   1.0000
     1.0000   1.0000   1.0000   1.0000   1.0000   1.0000   1.0000   1.0000
     1.0000   1.0000   1.0000   1.0000

          k = 0.0000 0.3849 0.0561 (  2637 PWs)   bands (ev):

    -6.7952  -6.4173  -6.1575  -5.8402   4.6844   4.7640   4.9936   5.4157
     6.2748   6.2759   6.2804   6.3556   6.4208   6.4508   6.6474   6.9919
     8.0495   8.4169   8.6280   8.6720   8.7746   8.9396   8.9863   9.0523
     9.7103  10.2147  10.2984  10.5594  11.1251  11.2291  11.8745  12.0957
    12.3634  12.8841  12.9026  12.9791

     occupation numbers 
     1.0000   1.0000   1.0000   1.0000   1.0000   1.0000   1.0000   1.0000
     1.0000   1.0000   1.0000   1.0000   1.0000   1.0000   1.0000   1.0000
     1.0000   1.0000   1.0000   1.0000   1.0000   1.0000   1.0000   1.0000
     1.0000   1.0000   1.0000   1.0000   1.0000   1.0000   1.0000   1.0000
     1.0000   1.0000   1.0000   1.0000

          k = 0.0000 0.3849 0.1122 (  2646 PWs)   bands (ev):

    -6.7407  -6.5439  -6.0436  -5.8817   4.7398   4.8923   4.9287   5.2531
     6.2479   6.2585   6.2873   6.3230   6.5082   6.5384   6.6140   6.8452
     8.1891   8.4480   8.5161   8.5581   8.8435   8.9540   9.0411   9.1159
     9.8131  10.1436  10.3969  10.6409  11.1920  11.2392  11.6165  11.6320
    12.5794  12.8952  13.0102  13.0663

     occupation numbers 
     1.0000   1.0000   1.0000   1.0000   1.0000   1.0000   1.0000   1.0000
     1.0000   1.0000   1.0000   1.0000   1.0000   1.0000   1.0000   1.0000
     1.0000   1.0000   1.0000   1.0000   1.0000   1.0000   1.0000   1.0000
     1.0000   1.0000   1.0000   1.0000   1.0000   1.0000   1.0000   1.0000
     1.0000   1.0000   1.0000   1.0000

          k = 0.0000 0.3849-0.1683 (  2652 PWs)   bands (ev):

    -6.6547  -6.6546  -5.9503  -5.9502   4.8340   4.8340   5.0626   5.0626
     6.2451   6.2451   6.3007   6.3008   6.5649   6.5650   6.6835   6.6835
     8.3522   8.3522   8.4965   8.4966   8.9046   8.9047   9.1083   9.1083
     9.9763   9.9763  10.6043  10.6043  11.2687  11.2687  11.4140  11.4140
    12.7597  12.7598  13.0923  13.0923

     occupation numbers 
     1.0000   1.0000   1.0000   1.0000   1.0000   1.0000   1.0000   1.0000
     1.0000   1.0000   1.0000   1.0000   1.0000   1.0000   1.0000   1.0000
     1.0000   1.0000   1.0000   1.0000   1.0000   1.0000   1.0000   1.0000
     1.0000   1.0000   1.0000   1.0000   1.0000   1.0000   1.0000   1.0000
     1.0000   1.0000   1.0000   1.0000

          k = 0.0000-0.5774 0.0000 (  2644 PWs)   bands (ev):

    -6.3811  -6.0598  -6.0597  -5.8574   4.5701   4.5701   5.0220   5.2320
     6.3991   6.4176   6.5221   6.5221   6.6375   6.6376   7.0092   7.5824
     8.5063   8.5082   8.6277   8.7585   8.7585   8.9182   8.9182   9.0183
     9.1520   9.5079   9.5079   9.8769  10.3459  10.3901  11.5782  11.5782
    12.4242  12.5261  12.5765  12.5765

     occupation numbers 
     1.0000   1.0000   1.0000   1.0000   1.0000   1.0000   1.0000   1.0000
     1.0000   1.0000   1.0000   1.0000   1.0000   1.0000   1.0000   1.0000
     1.0000   1.0000   1.0000   1.0000   1.0000   1.0000   1.0000   1.0000
     1.0000   1.0000   1.0000   1.0000   1.0000   1.0000   1.0000   1.0000
     1.0000   1.0000   1.0000   1.0000

          k = 0.0000-0.5774 0.0561 (  2654 PWs)   bands (ev):

    -6.3687  -6.1331  -5.9945  -5.8620   4.5669   4.6448   4.9841   5.1936
     6.3839   6.4231   6.4295   6.5690   6.6487   6.7157   6.9929   7.4706
     8.5389   8.6092   8.6318   8.7213   8.8010   8.8567   8.9652   9.0007
     9.1516   9.4167   9.5764   9.8258  10.4002  10.5353  11.3018  11.8390
    12.2325  12.4716  12.4960  12.7775

     occupation numbers 
     1.0000   1.0000   1.0000   1.0000   1.0000   1.0000   1.0000   1.0000
     1.0000   1.0000   1.0000   1.0000   1.0000   1.0000   1.0000   1.0000
     1.0000   1.0000   1.0000   1.0000   1.0000   1.0000   1.0000   1.0000
     1.0000   1.0000   1.0000   1.0000   1.0000   1.0000   1.0000   1.0000
     1.0000   1.0000   1.0000   1.0000

          k = 0.0000-0.5774 0.1122 (  2648 PWs)   bands (ev):

    -6.3326  -6.2080  -5.9415  -5.8764   4.6337   4.7765   4.8823   5.0868
     6.3568   6.3711   6.4404   6.5127   6.7986   6.8115   6.9468   7.2435
     8.6132   8.6439   8.6895   8.7837   8.8051   8.8494   8.9571   8.9895
     9.1563   9.3026   9.6309   9.7467  10.5499  10.8775  11.0254  11.7931
    12.0711  12.4072  12.5942  12.8203

     occupation numbers 
     1.0000   1.0000   1.0000   1.0000   1.0000   1.0000   1.0000   1.0000
     1.0000   1.0000   1.0000   1.0000   1.0000   1.0000   1.0000   1.0000
     1.0000   1.0000   1.0000   1.0000   1.0000   1.0000   1.0000   1.0000
     1.0000   1.0000   1.0000   1.0000   1.0000   1.0000   1.0000   1.0000
     1.0000   1.0000   1.0000   1.0000

          k = 0.0000-0.5774-0.1683 (  2640 PWs)   bands (ev):

    -6.2771  -6.2769  -5.9024  -5.9022   4.7510   4.7510   4.9360   4.9360
     6.3475   6.3475   6.4701   6.4702   6.8788   6.8789   7.0119   7.0119
     8.6637   8.6638   8.7005   8.7006   8.9028   8.9029   8.9538   8.9539
     9.1964   9.1964   9.6836   9.6836  10.7674  10.7674  11.3195  11.3195
    12.2635  12.2636  12.7361  12.7362

     occupation numbers 
     1.0000   1.0000   1.0000   1.0000   1.0000   1.0000   1.0000   1.0000
     1.0000   1.0000   1.0000   1.0000   1.0000   1.0000   1.0000   1.0000
     1.0000   1.0000   1.0000   1.0000   1.0000   1.0000   1.0000   1.0000
     1.0000   1.0000   1.0000   1.0000   1.0000   1.0000   1.0000   1.0000
     1.0000   1.0000   1.0000   1.0000

          k = 0.1667 0.2887 0.0000 (  2654 PWs)   bands (ev):

    -6.9925  -6.3958  -6.3958  -5.8449   4.8347   4.8347   5.2010   5.5504
     6.0762   6.0829   6.0829   6.3052   6.3873   6.3895   6.3895   6.8589
     8.0842   8.2999   8.6784   8.6784   8.8089   8.8089   8.9810   9.0834
     9.7309  10.6374  10.9814  10.9814  11.0208  11.8584  12.0616  12.0616
    12.6172  12.6172  13.0325  13.0469

     occupation numbers 
     1.0000   1.0000   1.0000   1.0000   1.0000   1.0000   1.0000   1.0000
     1.0000   1.0000   1.0000   1.0000   1.0000   1.0000   1.0000   1.0000
     1.0000   1.0000   1.0000   1.0000   1.0000   1.0000   1.0000   1.0000
     1.0000   1.0000   1.0000   1.0000   1.0000   1.0000   1.0000   1.0000
     1.0000   1.0000   1.0000   1.0000

          k = 0.1667 0.2887 0.0561 (  2651 PWs)   bands (ev):

    -6.9719  -6.5478  -6.2467  -5.8623   4.8470   4.8837   5.1851   5.4704
     6.0907   6.0917   6.0922   6.2876   6.3490   6.3767   6.4502   6.8219
     8.1234   8.3222   8.6047   8.6442   8.7821   8.9238   8.9715   9.1060
     9.8139  10.6758  10.8196  11.0525  11.1245  11.8125  11.8594  11.9994
    12.4230  12.9708  13.0021  13.0975

     occupation numbers 
     1.0000   1.0000   1.0000   1.0000   1.0000   1.0000   1.0000   1.0000
     1.0000   1.0000   1.0000   1.0000   1.0000   1.0000   1.0000   1.0000
     1.0000   1.0000   1.0000   1.0000   1.0000   1.0000   1.0000   1.0000
     1.0000   1.0000   1.0000   1.0000   1.0000   1.0000   1.0000   1.0000
     1.0000   1.0000   1.0000   1.0000

          k = 0.1667 0.2887 0.1122 (  2644 PWs)   bands (ev):

    -6.9115  -6.6914  -6.1113  -5.9140   4.9332   4.9692   5.1378   5.2874
     6.1082   6.1116   6.1244   6.2402   6.3300   6.3532   6.5298   6.7317
     8.2248   8.3766   8.5047   8.5241   8.8437   8.9439   9.0234   9.1243
    10.0627  10.6308  10.8047  11.1380  11.2318  11.5200  11.6801  11.7103
    12.5934  12.9131  13.1915  13.1990

     occupation numbers 
     1.0000   1.0000   1.0000   1.0000   1.0000   1.0000   1.0000   1.0000
     1.0000   1.0000   1.0000   1.0000   1.0000   1.0000   1.0000   1.0000
     1.0000   1.0000   1.0000   1.0000   1.0000   1.0000   1.0000   1.0000
     1.0000   1.0000   1.0000   1.0000   1.0000   1.0000   1.0000   1.0000
     1.0000   1.0000   1.0000   1.0000

          k = 0.1667 0.2887-0.1683 (  2652 PWs)   bands (ev):

    -6.8158  -6.8157  -5.9983  -5.9982   5.0617   5.0618   5.0891   5.0891
     6.1177   6.1177   6.1787   6.1788   6.3331   6.3332   6.6264   6.6264
     8.3589   8.3590   8.4463   8.4464   8.9000   8.9000   9.0943   9.0943
    10.3800  10.3800  11.0769  11.0769  11.2340  11.2341  11.6278  11.6279
    12.7722  12.7723  13.2560  13.2560

     occupation numbers 
     1.0000   1.0000   1.0000   1.0000   1.0000   1.0000   1.0000   1.0000
     1.0000   1.0000   1.0000   1.0000   1.0000   1.0000   1.0000   1.0000
     1.0000   1.0000   1.0000   1.0000   1.0000   1.0000   1.0000   1.0000
     1.0000   1.0000   1.0000   1.0000   1.0000   1.0000   1.0000   1.0000
     1.0000   1.0000   1.0000   1.0000

          k = 0.1667 0.4811 0.0000 (  2634 PWs)   bands (ev):

    -6.4036  -6.0663  -6.0663  -5.8443   4.7990   4.7990   5.2468   5.5416
     6.2237   6.2237   6.2261   6.3718   6.7208   6.7208   6.9775   7.4015
     8.1155   8.5129   8.6287   8.6287   8.8836   9.0096   9.0276   9.0276
     9.3339   9.5801   9.7862   9.7862  10.3245  10.6883  11.0279  11.0279
    12.0295  12.3827  12.6200  12.6200

     occupation numbers 
     1.0000   1.0000   1.0000   1.0000   1.0000   1.0000   1.0000   1.0000
     1.0000   1.0000   1.0000   1.0000   1.0000   1.0000   1.0000   1.0000
     1.0000   1.0000   1.0000   1.0000   1.0000   1.0000   1.0000   1.0000
     1.0000   1.0000   1.0000   1.0000   1.0000   1.0000   1.0000   1.0000
     1.0000   1.0000   1.0000   1.0000

          k = 0.1667 0.4811 0.0561 (  2637 PWs)   bands (ev):

    -6.3906  -6.1441  -5.9962  -5.8496   4.8135   4.8604   5.2186   5.4885
     6.2018   6.2209   6.2509   6.3579   6.6985   6.7796   6.9407   7.3152
     8.1822   8.5524   8.5862   8.6494   8.9231   8.9754   8.9994   9.0888
     9.3388   9.6321   9.6739   9.8685  10.3172  10.7694  10.7797  11.2660
    12.0034  12.3017  12.4322  12.8003

     occupation numbers 
     1.0000   1.0000   1.0000   1.0000   1.0000   1.0000   1.0000   1.0000
     1.0000   1.0000   1.0000   1.0000   1.0000   1.0000   1.0000   1.0000
     1.0000   1.0000   1.0000   1.0000   1.0000   1.0000   1.0000   1.0000
     1.0000   1.0000   1.0000   1.0000   1.0000   1.0000   1.0000   1.0000
     1.0000   1.0000   1.0000   1.0000

          k = 0.1667 0.4811 0.1122 (  2646 PWs)   bands (ev):

    -6.3532  -6.2230  -5.9386  -5.8661   4.8964   4.9885   5.1372   5.3463
     6.1913   6.2077   6.2770   6.3286   6.7173   6.8583   6.8712   7.1501
     8.3047   8.5168   8.6108   8.6532   8.9423   8.9426   9.0808   9.1461
     9.3382   9.5355   9.7645   9.9115  10.3174  10.5490  10.9992  11.4459
    11.9227  11.9314  12.5647  12.8236

     occupation numbers 
     1.0000   1.0000   1.0000   1.0000   1.0000   1.0000   1.0000   1.0000
     1.0000   1.0000   1.0000   1.0000   1.0000   1.0000   1.0000   1.0000
     1.0000   1.0000   1.0000   1.0000   1.0000   1.0000   1.0000   1.0000
     1.0000   1.0000   1.0000   1.0000   1.0000   1.0000   1.0000   1.0000
     1.0000   1.0000   1.0000   1.0000

          k = 0.1667 0.4811-0.1683 (  2640 PWs)   bands (ev):

    -6.2953  -6.2952  -5.8953  -5.8952   5.0184   5.0185   5.1623   5.1623
     6.1947   6.1947   6.3013   6.3014   6.7747   6.7748   6.9951   6.9952
     8.4212   8.4212   8.6420   8.6420   8.9323   8.9324   9.1701   9.1701
     9.3935   9.3935   9.8842   9.8842  10.3810  10.3811  11.3224  11.3225
    11.8170  11.8170  12.7219  12.7220

     occupation numbers 
     1.0000   1.0000   1.0000   1.0000   1.0000   1.0000   1.0000   1.0000
     1.0000   1.0000   1.0000   1.0000   1.0000   1.0000   1.0000   1.0000
     1.0000   1.0000   1.0000   1.0000   1.0000   1.0000   1.0000   1.0000
     1.0000   1.0000   1.0000   1.0000   1.0000   1.0000   1.0000   1.0000
     1.0000   1.0000   1.0000   1.0000

          k = 0.3333 0.5774 0.0000 (  2622 PWs)   bands (ev):

    -6.0267  -6.0267  -5.9590  -5.9589   5.1637   5.1637   5.9038   5.9436
     5.9436   5.9736   5.9736   6.0502   6.9109   6.9109   7.4161   7.4161
     8.1038   8.3184   8.3184   8.3310   8.3310   8.5220   9.1544   9.4844
     9.4844   9.6644   9.6644  10.0216  10.0216  10.0257  10.0258  10.9974
    11.4981  11.4981  12.6428  12.6429

     occupation numbers 
     1.0000   1.0000   1.0000   1.0000   1.0000   1.0000   1.0000   1.0000
     1.0000   1.0000   1.0000   1.0000   1.0000   1.0000   1.0000   1.0000
     1.0000   1.0000   1.0000   1.0000   1.0000   1.0000   1.0000   1.0000
     1.0000   1.0000   1.0000   1.0000   1.0000   1.0000   1.0000   1.0000
     1.0000   1.0000   1.0000   1.0000

          k = 0.3333 0.5774 0.0561 (  2631 PWs)   bands (ev):

    -6.0223  -6.0222  -5.9636  -5.9635   5.2126   5.2126   5.9043   5.9158
     5.9158   5.9278   5.9637   6.0451   6.9238   6.9238   7.3219   7.3219
     8.1110   8.2632   8.3727   8.4645   8.4645   8.5151   9.1834   9.3992
     9.3992   9.7207   9.7207   9.7951  10.0023  10.0023  10.2630  10.9614
    11.5737  11.5738  12.5640  12.5640

     occupation numbers 
     1.0000   1.0000   1.0000   1.0000   1.0000   1.0000   1.0000   1.0000
     1.0000   1.0000   1.0000   1.0000   1.0000   1.0000   1.0000   1.0000
     1.0000   1.0000   1.0000   1.0000   1.0000   1.0000   1.0000   1.0000
     1.0000   1.0000   1.0000   1.0000   1.0000   1.0000   1.0000   1.0000
     1.0000   1.0000   1.0000   1.0000

          k = 0.3333 0.5774 0.1122 (  2634 PWs)   bands (ev):

    -6.0100  -6.0100  -5.9761  -5.9760   5.3504   5.3504   5.7582   5.7582
     5.9059   5.9167   5.9868   6.0309   6.9645   6.9645   7.1624   7.1624
     8.1323   8.2114   8.4222   8.4955   8.7320   8.7320   9.2266   9.2266
     9.2693   9.5847   9.8057   9.8057   9.9523   9.9523  10.4918  10.8571
    11.7802  11.7802  12.3507  12.3507

     occupation numbers 
     1.0000   1.0000   1.0000   1.0000   1.0000   1.0000   1.0000   1.0000
     1.0000   1.0000   1.0000   1.0000   1.0000   1.0000   1.0000   1.0000
     1.0000   1.0000   1.0000   1.0000   1.0000   1.0000   1.0000   1.0000
     1.0000   1.0000   1.0000   1.0000   1.0000   1.0000   1.0000   1.0000
     1.0000   1.0000   1.0000   1.0000

          k = 0.3333 0.5774-0.1683 (  2610 PWs)   bands (ev):

    -5.9932  -5.9931  -5.9930  -5.9930   5.5488   5.5489   5.5489   5.5490
     5.9098   5.9099   6.0102   6.0103   7.0404   7.0405   7.0405   7.0405
     8.1667   8.1668   8.4640   8.4640   9.0008   9.0008   9.0008   9.0008
     9.4062   9.4062   9.8844   9.8844   9.8845   9.8845  10.6956  10.6956
    12.0637  12.0637  12.0638  12.0638

     occupation numbers 
     1.0000   1.0000   1.0000   1.0000   1.0000   1.0000   1.0000   1.0000
     1.0000   1.0000   1.0000   1.0000   1.0000   1.0000   1.0000   1.0000
     1.0000   1.0000   1.0000   1.0000   1.0000   1.0000   1.0000   1.0000
     1.0000   1.0000   1.0000   1.0000   1.0000   1.0000   1.0000   1.0000
     1.0000   1.0000   1.0000   1.0000

          k = 0.0000-0.1925 0.0561 (  2641 PWs)   bands (ev):

    -7.4254  -6.9044  -6.5137  -5.9759   5.0256   5.1629   5.3432   5.5072
     5.9300   5.9481   5.9531   5.9937   6.0068   6.0717   6.1533   6.5334
     8.2053   8.3046   8.5967   8.6169   8.7669   8.8272   8.9355   9.0242
     9.7002  11.3687  11.8217  11.9929  12.3557  12.5443  12.9090  12.9284
    13.1777  13.3036  13.5046  13.8190

     occupation numbers 
     1.0000   1.0000   1.0000   1.0000   1.0000   1.0000   1.0000   1.0000
     1.0000   1.0000   1.0000   1.0000   1.0000   1.0000   1.0000   1.0000
     1.0000   1.0000   1.0000   1.0000   1.0000   1.0000   1.0000   1.0000
     1.0000   1.0000   1.0000   1.0000   1.0000   1.0000   1.0000   1.0000
     1.0000   1.0000   1.0000   1.0000

          k = 0.0000-0.1925 0.1122 (  2633 PWs)   bands (ev):

    -7.3529  -7.0841  -6.3302  -6.0516   5.0405   5.2386   5.2681   5.4382
     5.9280   5.9338   5.9802   5.9891   6.0476   6.1274   6.1630   6.4256
     8.2782   8.3504   8.4974   8.5051   8.8335   8.9058   8.9174   9.0019
    10.0145  10.9309  11.8975  12.1412  12.3674  12.4343  12.7215  12.7222
    13.4348  13.4829  13.5944  13.7482

     occupation numbers 
     1.0000   1.0000   1.0000   1.0000   1.0000   1.0000   1.0000   1.0000
     1.0000   1.0000   1.0000   1.0000   1.0000   1.0000   1.0000   1.0000
     1.0000   1.0000   1.0000   1.0000   1.0000   1.0000   1.0000   1.0000
     1.0000   1.0000   1.0000   1.0000   1.0000   1.0000   1.0000   1.0000
     1.0000   1.0000   1.0000   1.0000

          k = 0.0000-0.3849 0.0561 (  2637 PWs)   bands (ev):

    -6.7952  -6.4173  -6.1575  -5.8402   4.6844   4.7640   4.9936   5.4157
     6.2748   6.2759   6.2804   6.3556   6.4208   6.4508   6.6474   6.9919
     8.0495   8.4169   8.6280   8.6720   8.7746   8.9396   8.9863   9.0523
     9.7103  10.2147  10.2984  10.5594  11.1251  11.2291  11.8745  12.0957
    12.3634  12.8841  12.9026  12.9791

     occupation numbers 
     1.0000   1.0000   1.0000   1.0000   1.0000   1.0000   1.0000   1.0000
     1.0000   1.0000   1.0000   1.0000   1.0000   1.0000   1.0000   1.0000
     1.0000   1.0000   1.0000   1.0000   1.0000   1.0000   1.0000   1.0000
     1.0000   1.0000   1.0000   1.0000   1.0000   1.0000   1.0000   1.0000
     1.0000   1.0000   1.0000   1.0000

          k = 0.0000-0.3849 0.1122 (  2646 PWs)   bands (ev):

    -6.7407  -6.5439  -6.0436  -5.8817   4.7398   4.8923   4.9287   5.2531
     6.2479   6.2585   6.2873   6.3230   6.5082   6.5384   6.6140   6.8452
     8.1891   8.4480   8.5161   8.5581   8.8435   8.9540   9.0411   9.1159
     9.8131  10.1436  10.3969  10.6409  11.1920  11.2392  11.6165  11.6320
    12.5794  12.8952  13.0102  13.0663

     occupation numbers 
     1.0000   1.0000   1.0000   1.0000   1.0000   1.0000   1.0000   1.0000
     1.0000   1.0000   1.0000   1.0000   1.0000   1.0000   1.0000   1.0000
     1.0000   1.0000   1.0000   1.0000   1.0000   1.0000   1.0000   1.0000
     1.0000   1.0000   1.0000   1.0000   1.0000   1.0000   1.0000   1.0000
     1.0000   1.0000   1.0000   1.0000

          k =-0.1667-0.4811 0.0561 (  2637 PWs)   bands (ev):

    -6.3906  -6.1441  -5.9962  -5.8496   4.8135   4.8604   5.2186   5.4885
     6.2018   6.2209   6.2509   6.3579   6.6986   6.7796   6.9407   7.3152
     8.1822   8.5524   8.5862   8.6494   8.9231   8.9754   8.9994   9.0888
     9.3388   9.6321   9.6739   9.8685  10.3172  10.7694  10.7797  11.2660
    12.0034  12.3017  12.4322  12.8003

     occupation numbers 
     1.0000   1.0000   1.0000   1.0000   1.0000   1.0000   1.0000   1.0000
     1.0000   1.0000   1.0000   1.0000   1.0000   1.0000   1.0000   1.0000
     1.0000   1.0000   1.0000   1.0000   1.0000   1.0000   1.0000   1.0000
     1.0000   1.0000   1.0000   1.0000   1.0000   1.0000   1.0000   1.0000
     1.0000   1.0000   1.0000   1.0000

          k =-0.1667-0.4811 0.1122 (  2646 PWs)   bands (ev):

    -6.3532  -6.2230  -5.9386  -5.8661   4.8964   4.9885   5.1372   5.3463
     6.1913   6.2077   6.2771   6.3286   6.7173   6.8583   6.8712   7.1501
     8.3047   8.5168   8.6108   8.6532   8.9423   8.9426   9.0808   9.1461
     9.3382   9.5355   9.7645   9.9116  10.3174  10.5490  10.9992  11.4459
    11.9227  11.9314  12.5647  12.8236

     occupation numbers 
     1.0000   1.0000   1.0000   1.0000   1.0000   1.0000   1.0000   1.0000
     1.0000   1.0000   1.0000   1.0000   1.0000   1.0000   1.0000   1.0000
     1.0000   1.0000   1.0000   1.0000   1.0000   1.0000   1.0000   1.0000
     1.0000   1.0000   1.0000   1.0000   1.0000   1.0000   1.0000   1.0000
     1.0000   1.0000   1.0000   1.0000

     highest occupied level (ev):    14.2160

!    total energy              =    -722.59089990 Ry
     estimated scf accuracy    <          8.1E-10 Ry

     The total energy is the sum of the following terms:
     one-electron contribution =    -212.39742682 Ry
     hartree contribution      =     204.14350379 Ry
     xc contribution           =    -221.17755415 Ry
     ewald contribution        =    -493.15942272 Ry

     convergence has been achieved in  29 iterations

     Forces acting on atoms (cartesian axes, Ry/au):

     atom    1 type  1   force =     0.00000000   -0.00000000    0.04073774
     atom    2 type  2   force =     0.00000000    0.00000000   -0.04070022
     atom    3 type  1   force =     0.00000000    0.00000000    0.04069227
     atom    4 type  2   force =     0.00000000   -0.00000000   -0.04071094
     atom    5 type  1   force =     0.00000000    0.00000000    0.04069339
     atom    6 type  2   force =     0.00000000    0.00000000   -0.04070668
     atom    7 type  1   force =     0.00000000    0.00000000    0.04070644
     atom    8 type  2   force =     0.00000000    0.00000000   -0.04071199
     The non-local contrib.  to forces
     atom    1 type  1   force =     0.00000000    0.00000000    0.14989806
     atom    2 type  2   force =     0.00000000    0.00000000    0.09800352
     atom    3 type  1   force =     0.00000000    0.00000000    0.14986989
     atom    4 type  2   force =     0.00000000    0.00000000    0.09800688
     atom    5 type  1   force =     0.00000000    0.00000000    0.14987371
     atom    6 type  2   force =     0.00000000    0.00000000    0.09801377
     atom    7 type  1   force =    -0.00000000   -0.00000000    0.14988947
     atom    8 type  2   force =     0.00000000   -0.00000000    0.09800277
     The ionic contribution  to forces
     atom    1 type  1   force =    -0.00000000    0.00000000    1.05974528
     atom    2 type  2   force =     0.00000000   -0.00000000   -1.05974528
     atom    3 type  1   force =     0.00000000   -0.00000000    1.05974528
     atom    4 type  2   force =    -0.00000000    0.00000000   -1.05974528
     atom    5 type  1   force =    -0.00000000    0.00000000    1.05974528
     atom    6 type  2   force =     0.00000000   -0.00000000   -1.05974528
     atom    7 type  1   force =     0.00000000   -0.00000000    1.05974528
     atom    8 type  2   force =    -0.00000000    0.00000000   -1.05974528
     The local contribution  to forces
     atom    1 type  1   force =    -0.00000000   -0.00000000   -1.15379370
     atom    2 type  2   force =     0.00000001   -0.00000001    0.92157281
     atom    3 type  1   force =     0.00000004   -0.00000002   -1.15371704
     atom    4 type  2   force =     0.00000000    0.00000000    0.92161999
     atom    5 type  1   force =     0.00000000   -0.00000000   -1.15371878
     atom    6 type  2   force =     0.00000001   -0.00000001    0.92160263
     atom    7 type  1   force =     0.00000004   -0.00000002   -1.15374945
     atom    8 type  2   force =     0.00000000    0.00000000    0.92157892
     The core correction contribution to forces
     atom    1 type  1   force =     0.00000000   -0.00000000   -0.01518030
     atom    2 type  2   force =    -0.00000000    0.00000000   -0.00055636
     atom    3 type  1   force =     0.00000001   -0.00000000   -0.01518089
     atom    4 type  2   force =     0.00000000   -0.00000000   -0.00055631
     atom    5 type  1   force =     0.00000000    0.00000000   -0.01518101
     atom    6 type  2   force =    -0.00000000    0.00000000   -0.00055647
     atom    7 type  1   force =     0.00000001   -0.00000000   -0.01518114
     atom    8 type  2   force =     0.00000000   -0.00000000   -0.00055637
     The Hubbard contrib.    to forces
     atom    1 type  1   force =     0.00000000    0.00000000    0.00000000
     atom    2 type  2   force =     0.00000000    0.00000000    0.00000000
     atom    3 type  1   force =     0.00000000    0.00000000    0.00000000
     atom    4 type  2   force =     0.00000000    0.00000000    0.00000000
     atom    5 type  1   force =     0.00000000    0.00000000    0.00000000
     atom    6 type  2   force =     0.00000000    0.00000000    0.00000000
     atom    7 type  1   force =     0.00000000    0.00000000    0.00000000
     atom    8 type  2   force =     0.00000000    0.00000000    0.00000000
     The SCF correction term to forces
     atom    1 type  1   force =    -0.00000000    0.00000000    0.00007082
     atom    2 type  2   force =     0.00000000   -0.00000000    0.00002750
     atom    3 type  1   force =     0.00000000   -0.00000000   -0.00002255
     atom    4 type  2   force =    -0.00000000    0.00000000   -0.00003380
     atom    5 type  1   force =    -0.00000000    0.00000000   -0.00002339
     atom    6 type  2   force =     0.00000000   -0.00000000   -0.00001891
     atom    7 type  1   force =     0.00000000   -0.00000000    0.00000470
     atom    8 type  2   force =    -0.00000000    0.00000000    0.00001038

     Total force =     0.115138     Total SCF correction =     0.000092

     init_run     :      2.68s CPU      2.79s WALL (       1 calls)
     electrons    :    106.14s CPU    111.89s WALL (       1 calls)
     forces       :      0.78s CPU      0.80s WALL (       1 calls)

     Called by init_run:
     wfcinit      :      1.19s CPU      1.25s WALL (       1 calls)
     wfcinit:atom :      0.02s CPU      0.02s WALL (      17 calls)
     wfcinit:wfcr :      1.08s CPU      1.14s WALL (      17 calls)
     potinit      :      0.32s CPU      0.33s WALL (       1 calls)
     hinit0       :      0.78s CPU      0.79s WALL (       1 calls)

     Called by electrons:
     c_bands      :     90.95s CPU     95.75s WALL (      29 calls)
     sum_band     :     11.98s CPU     12.84s WALL (      29 calls)
     v_of_rho     :      1.15s CPU      1.20s WALL (      30 calls)
     v_h          :      0.07s CPU      0.07s WALL (      30 calls)
     v_xc         :      1.12s CPU      1.16s WALL (      31 calls)
     newd         :      1.86s CPU      1.89s WALL (      30 calls)
     mix_rho      :      0.20s CPU      0.21s WALL (      29 calls)

     Called by c_bands:
     init_us_2    :      0.84s CPU      0.85s WALL (    1020 calls)
     init_us_2:cp :      0.83s CPU      0.85s WALL (    1020 calls)
     cegterg      :     80.91s CPU     85.68s WALL (     493 calls)

     Called by sum_band:
     sum_band:wei :      0.00s CPU      0.00s WALL (      29 calls)
     sum_band:loo :      9.10s CPU      9.89s WALL (      29 calls)
     sum_band:buf :      0.06s CPU      0.06s WALL (     493 calls)
     sum_band:ini :      0.39s CPU      0.40s WALL (     493 calls)
     sum_band:cal :      1.45s CPU      1.50s WALL (     493 calls)
     sum_band:bec :      0.05s CPU      0.05s WALL (     493 calls)
     addusdens    :      2.13s CPU      2.17s WALL (      29 calls)
                                        0.00s GPU  (      29 calls)
     addusd:skk   :      0.02s CPU      0.02s WALL (      58 calls)
                                        0.00s GPU  (      58 calls)

     Called by *egterg:
     cdiaghg      :      9.77s CPU      9.80s WALL (    2330 calls)
     cegterg:over :      4.39s CPU      4.53s WALL (    1837 calls)
     cegterg:upda :      2.67s CPU      2.68s WALL (    1837 calls)
     cegterg:last :      6.03s CPU      6.04s WALL (    1332 calls)
     h_psi        :     52.03s CPU     56.59s WALL (    2347 calls)
     s_psi        :      4.99s CPU      5.02s WALL (    2347 calls)
     g_psi        :      0.27s CPU      0.27s WALL (    1837 calls)

     Called by h_psi:
     h_psi:calbec :      4.71s CPU      4.93s WALL (    2347 calls)
     vloc_psi     :     42.07s CPU     46.38s WALL (    2347 calls)
     add_vuspsi   :      5.06s CPU      5.09s WALL (    2347 calls)

     General routines
     calbec       :      6.34s CPU      6.62s WALL (    2908 calls)
     fft          :      0.89s CPU      0.96s WALL (     399 calls)
     ffts         :      0.08s CPU      0.08s WALL (      59 calls)
     fftw         :     41.14s CPU     45.43s WALL (  127254 calls)
     interpolate  :      0.12s CPU      0.13s WALL (      30 calls)

     Parallel routines

     PWSCF        :   1m50.10s CPU   1m55.99s WALL


   This run was terminated on:  10:55:37  13Jul2025            

=------------------------------------------------------------------------------=
   JOB DONE.
=------------------------------------------------------------------------------=
Note: The following floating-point exceptions are signalling: IEEE_INVALID_FLAG
Note: The following floating-point exceptions are signalling: IEEE_INVALID_FLAG
