Authorization required, but no authorization protocol specified

Authorization required, but no authorization protocol specified

Authorization required, but no authorization protocol specified

Authorization required, but no authorization protocol specified

Authorization required, but no authorization protocol specified

Authorization required, but no authorization protocol specified

Authorization required, but no authorization protocol specified

Authorization required, but no authorization protocol specified

Authorization required, but no authorization protocol specified

Authorization required, but no authorization protocol specified


     Program PWSCF v.7.2 starts on 13Jul2025 at 16:18:27 

     This program is part of the open-source Quantum ESPRESSO suite
     for quantum simulation of materials; please cite
         "P. Giannozzi et al., J. Phys.:Condens. Matter 21 395502 (2009);
         "P. Giannozzi et al., J. Phys.:Condens. Matter 29 465901 (2017);
         "P. Giannozzi et al., J. Chem. Phys. 152 154105 (2020);
          URL http://www.quantum-espresso.org", 
     in publications or presentations arising from this work. More details at
     http://www.quantum-espresso.org/quote

     Parallel version (MPI), running on     8 processors

     MPI processes distributed on     1 nodes
     56125 MiB available memory on the printing compute node when the environment starts

     Reading input from /home/jvc/QEspresso7.2/ZnO_database/scripts/cell112.in/ZnO-3.47-1.68-112.in
Warning: card &CELL ignored
Warning: card / ignored
Warning: card &FCP ignored
Warning: card / ignored
Warning: card &RISM ignored
Warning: card / ignored

     Current dimensions of program PWSCF are:
     Max number of different atomic species (ntypx) = 10
     Max number of k-points (npk) =  40000
     Max angular momentum in pseudopotentials (lmaxx) =  4
     file Zn.upf: wavefunction(s)  3D renormalized
     Found identity + (  0.0000  0.0000 -0.5000) symmetry
     This is a supercell, fractional translations are disabled
     Message from routine setup:
     using ibrav=0 with symmetry is DISCOURAGED, use correct ibrav instead

     K-points division:     npool     =       2
     R & G space division:  proc/nbgrp/npool/nimage =       4
     Subspace diagonalization in iterative solution of the eigenvalue problem:
     a serial algorithm will be used


     Parallelization info
     --------------------
     sticks:   dense  smooth     PW     G-vecs:    dense   smooth      PW
     Min         294     145     42                27568     9745    1583
     Max         295     146     43                27570     9764    1588
     Sum        1177     583    169               110277    39033    6343

     Using Slab Decomposition



     bravais-lattice index     =            0
     lattice parameter (alat)  =       6.5496  a.u.
     unit-cell volume          =     817.0249 (a.u.)^3
     number of atoms/cell      =            8
     number of atomic types    =            2
     number of electrons       =        72.00
     number of Kohn-Sham states=           36
     kinetic-energy cutoff     =      50.0000  Ry
     charge density cutoff     =     400.0000  Ry
     scf convergence threshold =      1.0E-08
     mixing beta               =       0.3000
     number of iterations used =            8  plain     mixing
     Exchange-correlation= PBE
                           (   1   4   3   4   0   0   0)

     celldm(1)=   6.549585  celldm(2)=   0.000000  celldm(3)=   0.000000
     celldm(4)=   0.000000  celldm(5)=   0.000000  celldm(6)=   0.000000

     crystal axes: (cart. coord. in units of alat)
               a(1) = (   1.000000   0.000000   0.000000 )  
               a(2) = (  -0.500000   0.866025   0.000000 )  
               a(3) = (   0.000000   0.000000   3.357865 )  

     reciprocal axes: (cart. coord. in units 2 pi/alat)
               b(1) = (  1.000000  0.577350 -0.000000 )  
               b(2) = (  0.000000  1.154701  0.000000 )  
               b(3) = (  0.000000 -0.000000  0.297808 )  


     PseudoPot. # 1 for Zn read from file:
     /home/jvc/QEspresso7.2/ZnO_database/pseudos/Zn.upf
     MD5 check sum: 7f56cabf9682ed8c977c2f7d0c5985c5
     Pseudo is Ultrasoft + core correction, Zval = 12.0
     Generated using &quot;atomic&quot; code by A. Dal Corso  v.6.2.2
     Using radial grid of 1201 points,  6 beta functions with: 
                l(1) =   0
                l(2) =   0
                l(3) =   1
                l(4) =   1
                l(5) =   2
                l(6) =   2
     Q(r) pseudized with 0 coefficients 


     PseudoPot. # 2 for O  read from file:
     /home/jvc/QEspresso7.2/ZnO_database/pseudos/O.upf
     MD5 check sum: 91400c9766925bcf19f520983a725ff0
     Pseudo is Ultrasoft + core correction, Zval =  6.0
     Generated using &quot;atomic&quot; code by A. Dal Corso  v.6.3MaX
     Using radial grid of 1095 points,  4 beta functions with: 
                l(1) =   0
                l(2) =   0
                l(3) =   1
                l(4) =   1
     Q(r) pseudized with 0 coefficients 


     atomic species   valence    mass     pseudopotential
        Zn            12.00    65.38000     Zn( 1.00)
        O              6.00    15.99900     O ( 1.00)

      6 Sym. Ops. (no inversion) found


                                    s                        frac. trans.

      isym =  1     identity                                     

 cryst.   s( 1) = (     1          0          0      )
                  (     0          1          0      )
                  (     0          0          1      )

 cart.    s( 1) = (  1.0000000  0.0000000  0.0000000 )
                  (  0.0000000  1.0000000  0.0000000 )
                  (  0.0000000  0.0000000  1.0000000 )


      isym =  2     120 deg rotation - cryst. axis [0,0,1]       

 cryst.   s( 2) = (     0          1          0      )
                  (    -1         -1          0      )
                  (     0          0          1      )

 cart.    s( 2) = ( -0.5000000 -0.8660254  0.0000000 )
                  (  0.8660254 -0.5000000  0.0000000 )
                  (  0.0000000  0.0000000  1.0000000 )


      isym =  3     120 deg rotation - cryst. axis [0,0,-1]      

 cryst.   s( 3) = (    -1         -1          0      )
                  (     1          0          0      )
                  (     0          0          1      )

 cart.    s( 3) = ( -0.5000000  0.8660254  0.0000000 )
                  ( -0.8660254 -0.5000000  0.0000000 )
                  (  0.0000000  0.0000000  1.0000000 )


      isym =  4     inv. 180 deg rotation - cart. axis [1,0,0]   

 cryst.   s( 4) = (    -1          0          0      )
                  (     1          1          0      )
                  (     0          0          1      )

 cart.    s( 4) = ( -1.0000000  0.0000000  0.0000000 )
                  (  0.0000000  1.0000000  0.0000000 )
                  (  0.0000000  0.0000000  1.0000000 )


      isym =  5     inv. 180 deg rotation - cryst. axis [0,1,0]  

 cryst.   s( 5) = (     1          1          0      )
                  (     0         -1          0      )
                  (     0          0          1      )

 cart.    s( 5) = (  0.5000000  0.8660254  0.0000000 )
                  (  0.8660254 -0.5000000  0.0000000 )
                  (  0.0000000  0.0000000  1.0000000 )


      isym =  6     inv. 180 deg rotation - cryst. axis [1,1,0]  

 cryst.   s( 6) = (     0         -1          0      )
                  (    -1          0          0      )
                  (     0          0          1      )

 cart.    s( 6) = (  0.5000000 -0.8660254  0.0000000 )
                  ( -0.8660254 -0.5000000  0.0000000 )
                  (  0.0000000  0.0000000  1.0000000 )


   Cartesian axes

     site n.     atom                  positions (alat units)
         1           Zn  tau(   1) = (   0.0000000   0.0000000   0.0000000  )
         2           O   tau(   2) = (  -0.0000000   0.5773503   0.2211943  )
         3           Zn  tau(   3) = (  -0.0000000   0.5773503   0.8394663  )
         4           O   tau(   4) = (   0.0000000   0.0000000   1.0606607  )
         5           Zn  tau(   5) = (   0.0000000   0.0000000   1.6789327  )
         6           O   tau(   6) = (  -0.0000000   0.5773503   1.9001270  )
         7           Zn  tau(   7) = (  -0.0000000   0.5773503   2.5183990  )
         8           O   tau(   8) = (   0.0000000   0.0000000   2.7395934  )

   Crystallographic axes

     site n.     atom                  positions (cryst. coord.)
         1           Zn  tau(   1) = (  0.0000000  0.0000000  0.0000000  )
         2           O   tau(   2) = (  0.3333333  0.6666667  0.0658735  )
         3           Zn  tau(   3) = (  0.3333333  0.6666667  0.2500000  )
         4           O   tau(   4) = (  0.0000000  0.0000000  0.3158735  )
         5           Zn  tau(   5) = (  0.0000000  0.0000000  0.5000000  )
         6           O   tau(   6) = (  0.3333333  0.6666667  0.5658735  )
         7           Zn  tau(   7) = (  0.3333333  0.6666667  0.7500000  )
         8           O   tau(   8) = (  0.0000000  0.0000000  0.8158735  )

     number of k points=    34
                       cart. coord. in units 2pi/alat
        k(    1) = (   0.0000000   0.0000000   0.0000000), wk =   0.0092593
        k(    2) = (   0.0000000   0.0000000   0.0496347), wk =   0.0185185
        k(    3) = (   0.0000000   0.0000000   0.0992694), wk =   0.0185185
        k(    4) = (   0.0000000   0.0000000  -0.1489041), wk =   0.0092593
        k(    5) = (   0.0000000   0.1924501   0.0000000), wk =   0.0555556
        k(    6) = (   0.0000000   0.1924501   0.0496347), wk =   0.0555556
        k(    7) = (   0.0000000   0.1924501   0.0992694), wk =   0.0555556
        k(    8) = (   0.0000000   0.1924501  -0.1489041), wk =   0.0555556
        k(    9) = (   0.0000000   0.3849002   0.0000000), wk =   0.0555556
        k(   10) = (   0.0000000   0.3849002   0.0496347), wk =   0.0555556
        k(   11) = (   0.0000000   0.3849002   0.0992694), wk =   0.0555556
        k(   12) = (   0.0000000   0.3849002  -0.1489041), wk =   0.0555556
        k(   13) = (   0.0000000  -0.5773503   0.0000000), wk =   0.0277778
        k(   14) = (   0.0000000  -0.5773503   0.0496347), wk =   0.0555556
        k(   15) = (   0.0000000  -0.5773503   0.0992694), wk =   0.0555556
        k(   16) = (   0.0000000  -0.5773503  -0.1489041), wk =   0.0277778
        k(   17) = (   0.1666667   0.2886751   0.0000000), wk =   0.0555556
        k(   18) = (   0.1666667   0.2886751   0.0496347), wk =   0.1111111
        k(   19) = (   0.1666667   0.2886751   0.0992694), wk =   0.1111111
        k(   20) = (   0.1666667   0.2886751  -0.1489041), wk =   0.0555556
        k(   21) = (   0.1666667   0.4811252   0.0000000), wk =   0.1111111
        k(   22) = (   0.1666667   0.4811252   0.0496347), wk =   0.1111111
        k(   23) = (   0.1666667   0.4811252   0.0992694), wk =   0.1111111
        k(   24) = (   0.1666667   0.4811252  -0.1489041), wk =   0.1111111
        k(   25) = (   0.3333333   0.5773503   0.0000000), wk =   0.0185185
        k(   26) = (   0.3333333   0.5773503   0.0496347), wk =   0.0370370
        k(   27) = (   0.3333333   0.5773503   0.0992694), wk =   0.0370370
        k(   28) = (   0.3333333   0.5773503  -0.1489041), wk =   0.0185185
        k(   29) = (   0.0000000  -0.1924501   0.0496347), wk =   0.0555556
        k(   30) = (   0.0000000  -0.1924501   0.0992694), wk =   0.0555556
        k(   31) = (   0.0000000  -0.3849002   0.0496347), wk =   0.0555556
        k(   32) = (   0.0000000  -0.3849002   0.0992694), wk =   0.0555556
        k(   33) = (  -0.1666667  -0.4811252   0.0496347), wk =   0.1111111
        k(   34) = (  -0.1666667  -0.4811252   0.0992694), wk =   0.1111111

                       cryst. coord.
        k(    1) = (   0.0000000   0.0000000   0.0000000), wk =   0.0092593
        k(    2) = (   0.0000000   0.0000000   0.1666667), wk =   0.0185185
        k(    3) = (   0.0000000   0.0000000   0.3333333), wk =   0.0185185
        k(    4) = (   0.0000000   0.0000000  -0.5000000), wk =   0.0092593
        k(    5) = (   0.0000000   0.1666667   0.0000000), wk =   0.0555556
        k(    6) = (   0.0000000   0.1666667   0.1666667), wk =   0.0555556
        k(    7) = (   0.0000000   0.1666667   0.3333333), wk =   0.0555556
        k(    8) = (   0.0000000   0.1666667  -0.5000000), wk =   0.0555556
        k(    9) = (   0.0000000   0.3333333   0.0000000), wk =   0.0555556
        k(   10) = (   0.0000000   0.3333333   0.1666667), wk =   0.0555556
        k(   11) = (   0.0000000   0.3333333   0.3333333), wk =   0.0555556
        k(   12) = (   0.0000000   0.3333333  -0.5000000), wk =   0.0555556
        k(   13) = (   0.0000000  -0.5000000   0.0000000), wk =   0.0277778
        k(   14) = (   0.0000000  -0.5000000   0.1666667), wk =   0.0555556
        k(   15) = (   0.0000000  -0.5000000   0.3333333), wk =   0.0555556
        k(   16) = (   0.0000000  -0.5000000  -0.5000000), wk =   0.0277778
        k(   17) = (   0.1666667   0.1666667   0.0000000), wk =   0.0555556
        k(   18) = (   0.1666667   0.1666667   0.1666667), wk =   0.1111111
        k(   19) = (   0.1666667   0.1666667   0.3333333), wk =   0.1111111
        k(   20) = (   0.1666667   0.1666667  -0.5000000), wk =   0.0555556
        k(   21) = (   0.1666667   0.3333333   0.0000000), wk =   0.1111111
        k(   22) = (   0.1666667   0.3333333   0.1666667), wk =   0.1111111
        k(   23) = (   0.1666667   0.3333333   0.3333333), wk =   0.1111111
        k(   24) = (   0.1666667   0.3333333  -0.5000000), wk =   0.1111111
        k(   25) = (   0.3333333   0.3333333   0.0000000), wk =   0.0185185
        k(   26) = (   0.3333333   0.3333333   0.1666667), wk =   0.0370370
        k(   27) = (   0.3333333   0.3333333   0.3333333), wk =   0.0370370
        k(   28) = (   0.3333333   0.3333333  -0.5000000), wk =   0.0185185
        k(   29) = (   0.0000000  -0.1666667   0.1666667), wk =   0.0555556
        k(   30) = (   0.0000000  -0.1666667   0.3333333), wk =   0.0555556
        k(   31) = (   0.0000000  -0.3333333   0.1666667), wk =   0.0555556
        k(   32) = (   0.0000000  -0.3333333   0.3333333), wk =   0.0555556
        k(   33) = (  -0.1666667  -0.3333333   0.1666667), wk =   0.1111111
        k(   34) = (  -0.1666667  -0.3333333   0.3333333), wk =   0.1111111

     Dense  grid:   110277 G-vectors     FFT dimensions: (  45,  45, 144)

     Smooth grid:    39033 G-vectors     FFT dimensions: (  30,  30, 100)

     Dynamical RAM for                 wfc:       0.67 MB

     Dynamical RAM for     wfc (w. buffer):      12.05 MB

     Dynamical RAM for           str. fact:       0.84 MB

     Dynamical RAM for           local pot:       0.00 MB

     Dynamical RAM for          nlocal pot:       1.93 MB

     Dynamical RAM for                qrad:       3.21 MB

     Dynamical RAM for          rho,v,vnew:       2.93 MB

     Dynamical RAM for               rhoin:       0.98 MB

     Dynamical RAM for            rho*nmix:       6.73 MB

     Dynamical RAM for           G-vectors:       1.65 MB

     Dynamical RAM for          h,s,v(r/c):       0.24 MB

     Dynamical RAM for          <psi|beta>:       0.06 MB

     Dynamical RAM for                 psi:       1.34 MB

     Dynamical RAM for                hpsi:       1.34 MB

     Dynamical RAM for                spsi:       1.34 MB

     Dynamical RAM for      wfcinit/wfcrot:       2.00 MB

     Dynamical RAM for           addusdens:      40.17 MB

     Dynamical RAM for          addusforce:      41.45 MB

     Estimated static dynamical RAM per process >      27.64 MB

     Estimated max dynamical RAM per process >      75.82 MB

     Estimated total dynamical RAM >     579.66 MB

     Check: negative core charge=   -0.000002

     Initial potential from superposition of free atoms

     starting charge      71.9851, renormalised to      72.0000
     Starting wfcs are   52 randomized atomic wfcs

     total cpu time spent up to now is        5.0 secs

     Self-consistent Calculation

     iteration #  1     ecut=    50.00 Ry     beta= 0.30
     Davidson diagonalization with overlap

---- Real-time Memory Report at c_bands before calling an iterative solver
            91 MiB given to the printing process from OS
             0 MiB allocation reported by mallinfo(arena+hblkhd)
         55684 MiB available memory on the node where the printing process lives
------------------
     ethr =  1.00E-02,  avg # of iterations =  1.4

     total cpu time spent up to now is       10.1 secs

     total energy              =    -722.78425786 Ry
     estimated scf accuracy    <       1.59882284 Ry

     iteration #  2     ecut=    50.00 Ry     beta= 0.30
     Davidson diagonalization with overlap

---- Real-time Memory Report at c_bands before calling an iterative solver
           112 MiB given to the printing process from OS
             0 MiB allocation reported by mallinfo(arena+hblkhd)
         55582 MiB available memory on the node where the printing process lives
------------------
     ethr =  2.22E-03,  avg # of iterations =  2.4

     total cpu time spent up to now is       16.4 secs

     total energy              =    -723.02591976 Ry
     estimated scf accuracy    <       0.17978514 Ry

     iteration #  3     ecut=    50.00 Ry     beta= 0.30
     Davidson diagonalization with overlap

---- Real-time Memory Report at c_bands before calling an iterative solver
           114 MiB given to the printing process from OS
             0 MiB allocation reported by mallinfo(arena+hblkhd)
         55618 MiB available memory on the node where the printing process lives
------------------
     ethr =  2.50E-04,  avg # of iterations =  6.4

     total cpu time spent up to now is       25.8 secs

     total energy              =    -723.03105071 Ry
     estimated scf accuracy    <       0.25675823 Ry

     iteration #  4     ecut=    50.00 Ry     beta= 0.30
     Davidson diagonalization with overlap

---- Real-time Memory Report at c_bands before calling an iterative solver
           114 MiB given to the printing process from OS
             0 MiB allocation reported by mallinfo(arena+hblkhd)
         55628 MiB available memory on the node where the printing process lives
------------------
     ethr =  2.50E-04,  avg # of iterations = 10.1

     total cpu time spent up to now is       40.8 secs

     total energy              =    -723.26663128 Ry
     estimated scf accuracy    <       1.02228633 Ry

     iteration #  5     ecut=    50.00 Ry     beta= 0.30
     Davidson diagonalization with overlap

---- Real-time Memory Report at c_bands before calling an iterative solver
           114 MiB given to the printing process from OS
             0 MiB allocation reported by mallinfo(arena+hblkhd)
         55614 MiB available memory on the node where the printing process lives
------------------
     ethr =  2.50E-04,  avg # of iterations =  1.3

     total cpu time spent up to now is       45.9 secs

     total energy              =    -722.80477004 Ry
     estimated scf accuracy    <       0.71129017 Ry

     iteration #  6     ecut=    50.00 Ry     beta= 0.30
     Davidson diagonalization with overlap

---- Real-time Memory Report at c_bands before calling an iterative solver
           115 MiB given to the printing process from OS
             0 MiB allocation reported by mallinfo(arena+hblkhd)
         55617 MiB available memory on the node where the printing process lives
------------------
     c_bands:  1 eigenvalues not converged
     ethr =  2.50E-04,  avg # of iterations =  9.0

     total cpu time spent up to now is       57.4 secs

     total energy              =    -723.15254950 Ry
     estimated scf accuracy    <       0.73491519 Ry

     iteration #  7     ecut=    50.00 Ry     beta= 0.30
     Davidson diagonalization with overlap

---- Real-time Memory Report at c_bands before calling an iterative solver
           115 MiB given to the printing process from OS
             0 MiB allocation reported by mallinfo(arena+hblkhd)
         55618 MiB available memory on the node where the printing process lives
------------------
     ethr =  2.50E-04,  avg # of iterations =  2.6

     total cpu time spent up to now is       63.7 secs

     total energy              =    -723.16712782 Ry
     estimated scf accuracy    <       0.33005905 Ry

     iteration #  8     ecut=    50.00 Ry     beta= 0.30
     Davidson diagonalization with overlap

---- Real-time Memory Report at c_bands before calling an iterative solver
           115 MiB given to the printing process from OS
             0 MiB allocation reported by mallinfo(arena+hblkhd)
         55611 MiB available memory on the node where the printing process lives
------------------
     ethr =  2.50E-04,  avg # of iterations =  2.0

     total cpu time spent up to now is       69.2 secs

     total energy              =    -723.17881306 Ry
     estimated scf accuracy    <       0.26096500 Ry

     iteration #  9     ecut=    50.00 Ry     beta= 0.30
     Davidson diagonalization with overlap

---- Real-time Memory Report at c_bands before calling an iterative solver
           116 MiB given to the printing process from OS
             0 MiB allocation reported by mallinfo(arena+hblkhd)
         55615 MiB available memory on the node where the printing process lives
------------------
     ethr =  2.50E-04,  avg # of iterations =  1.7

     total cpu time spent up to now is       74.4 secs

     total energy              =    -723.18815476 Ry
     estimated scf accuracy    <       0.22010200 Ry

     iteration # 10     ecut=    50.00 Ry     beta= 0.30
     Davidson diagonalization with overlap

---- Real-time Memory Report at c_bands before calling an iterative solver
           116 MiB given to the printing process from OS
             0 MiB allocation reported by mallinfo(arena+hblkhd)
         55607 MiB available memory on the node where the printing process lives
------------------
     ethr =  2.50E-04,  avg # of iterations =  1.1

     total cpu time spent up to now is       79.4 secs

     total energy              =    -723.17164563 Ry
     estimated scf accuracy    <       0.19892307 Ry

     iteration # 11     ecut=    50.00 Ry     beta= 0.30
     Davidson diagonalization with overlap

---- Real-time Memory Report at c_bands before calling an iterative solver
           117 MiB given to the printing process from OS
             0 MiB allocation reported by mallinfo(arena+hblkhd)
         55612 MiB available memory on the node where the printing process lives
------------------
     ethr =  2.50E-04,  avg # of iterations =  1.9

     total cpu time spent up to now is       84.6 secs

     total energy              =    -723.17528513 Ry
     estimated scf accuracy    <       0.13246553 Ry

     iteration # 12     ecut=    50.00 Ry     beta= 0.30
     Davidson diagonalization with overlap

---- Real-time Memory Report at c_bands before calling an iterative solver
           117 MiB given to the printing process from OS
             0 MiB allocation reported by mallinfo(arena+hblkhd)
         55610 MiB available memory on the node where the printing process lives
------------------
     ethr =  1.84E-04,  avg # of iterations =  1.4

     total cpu time spent up to now is       89.7 secs

     total energy              =    -723.19030241 Ry
     estimated scf accuracy    <       0.11268082 Ry

     iteration # 13     ecut=    50.00 Ry     beta= 0.30
     Davidson diagonalization with overlap

---- Real-time Memory Report at c_bands before calling an iterative solver
           117 MiB given to the printing process from OS
             0 MiB allocation reported by mallinfo(arena+hblkhd)
         55607 MiB available memory on the node where the printing process lives
------------------
     ethr =  1.57E-04,  avg # of iterations =  1.1

     total cpu time spent up to now is       94.6 secs

     total energy              =    -723.24263444 Ry
     estimated scf accuracy    <       0.12977886 Ry

     iteration # 14     ecut=    50.00 Ry     beta= 0.30
     Davidson diagonalization with overlap

---- Real-time Memory Report at c_bands before calling an iterative solver
           117 MiB given to the printing process from OS
             0 MiB allocation reported by mallinfo(arena+hblkhd)
         55606 MiB available memory on the node where the printing process lives
------------------
     ethr =  1.57E-04,  avg # of iterations =  1.6

     total cpu time spent up to now is       99.8 secs

     total energy              =    -723.18587104 Ry
     estimated scf accuracy    <       0.24191116 Ry

     iteration # 15     ecut=    50.00 Ry     beta= 0.30
     Davidson diagonalization with overlap

---- Real-time Memory Report at c_bands before calling an iterative solver
           117 MiB given to the printing process from OS
             0 MiB allocation reported by mallinfo(arena+hblkhd)
         55598 MiB available memory on the node where the printing process lives
------------------
     ethr =  1.57E-04,  avg # of iterations =  1.1

     total cpu time spent up to now is      104.8 secs

     total energy              =    -723.12403353 Ry
     estimated scf accuracy    <       0.14256763 Ry

     iteration # 16     ecut=    50.00 Ry     beta= 0.30
     Davidson diagonalization with overlap

---- Real-time Memory Report at c_bands before calling an iterative solver
           117 MiB given to the printing process from OS
             0 MiB allocation reported by mallinfo(arena+hblkhd)
         55596 MiB available memory on the node where the printing process lives
------------------
     ethr =  1.57E-04,  avg # of iterations =  5.3

     total cpu time spent up to now is      112.4 secs

     total energy              =    -723.16635851 Ry
     estimated scf accuracy    <       0.00478132 Ry

     iteration # 17     ecut=    50.00 Ry     beta= 0.30
     Davidson diagonalization with overlap

---- Real-time Memory Report at c_bands before calling an iterative solver
           117 MiB given to the printing process from OS
             0 MiB allocation reported by mallinfo(arena+hblkhd)
         55601 MiB available memory on the node where the printing process lives
------------------
     c_bands:  2 eigenvalues not converged
     c_bands:  1 eigenvalues not converged
     ethr =  6.64E-06,  avg # of iterations = 12.8

     total cpu time spent up to now is      128.2 secs

     total energy              =    -723.15156355 Ry
     estimated scf accuracy    <       0.14621607 Ry

     iteration # 18     ecut=    50.00 Ry     beta= 0.30
     Davidson diagonalization with overlap

---- Real-time Memory Report at c_bands before calling an iterative solver
           117 MiB given to the printing process from OS
             0 MiB allocation reported by mallinfo(arena+hblkhd)
         55604 MiB available memory on the node where the printing process lives
------------------
     c_bands:  2 eigenvalues not converged
     ethr =  6.64E-06,  avg # of iterations = 10.9

     total cpu time spent up to now is      142.4 secs

     total energy              =    -723.16674435 Ry
     estimated scf accuracy    <       0.00632233 Ry

     iteration # 19     ecut=    50.00 Ry     beta= 0.30
     Davidson diagonalization with overlap

---- Real-time Memory Report at c_bands before calling an iterative solver
           117 MiB given to the printing process from OS
             0 MiB allocation reported by mallinfo(arena+hblkhd)
         55617 MiB available memory on the node where the printing process lives
------------------
     ethr =  6.64E-06,  avg # of iterations =  1.7

     total cpu time spent up to now is      147.6 secs

     total energy              =    -723.16910498 Ry
     estimated scf accuracy    <       0.00421678 Ry

     iteration # 20     ecut=    50.00 Ry     beta= 0.30
     Davidson diagonalization with overlap

---- Real-time Memory Report at c_bands before calling an iterative solver
           117 MiB given to the printing process from OS
             0 MiB allocation reported by mallinfo(arena+hblkhd)
         55611 MiB available memory on the node where the printing process lives
------------------
     ethr =  5.86E-06,  avg # of iterations =  2.0

     total cpu time spent up to now is      153.0 secs

     total energy              =    -723.17379043 Ry
     estimated scf accuracy    <       0.00849310 Ry

     iteration # 21     ecut=    50.00 Ry     beta= 0.30
     Davidson diagonalization with overlap

---- Real-time Memory Report at c_bands before calling an iterative solver
           117 MiB given to the printing process from OS
             0 MiB allocation reported by mallinfo(arena+hblkhd)
         55607 MiB available memory on the node where the printing process lives
------------------
     ethr =  5.86E-06,  avg # of iterations =  6.4

     total cpu time spent up to now is      161.9 secs

     total energy              =    -723.17454469 Ry
     estimated scf accuracy    <       0.04065910 Ry

     iteration # 22     ecut=    50.00 Ry     beta= 0.30
     Davidson diagonalization with overlap

---- Real-time Memory Report at c_bands before calling an iterative solver
           117 MiB given to the printing process from OS
             0 MiB allocation reported by mallinfo(arena+hblkhd)
         55620 MiB available memory on the node where the printing process lives
------------------
     ethr =  5.86E-06,  avg # of iterations =  1.1

     total cpu time spent up to now is      166.8 secs

     total energy              =    -723.17531088 Ry
     estimated scf accuracy    <       0.03707424 Ry

     iteration # 23     ecut=    50.00 Ry     beta= 0.30
     Davidson diagonalization with overlap

---- Real-time Memory Report at c_bands before calling an iterative solver
           117 MiB given to the printing process from OS
             0 MiB allocation reported by mallinfo(arena+hblkhd)
         55609 MiB available memory on the node where the printing process lives
------------------
     ethr =  5.86E-06,  avg # of iterations =  1.0

     total cpu time spent up to now is      171.7 secs

     total energy              =    -723.16584798 Ry
     estimated scf accuracy    <       0.03854111 Ry

     iteration # 24     ecut=    50.00 Ry     beta= 0.30
     Davidson diagonalization with overlap

---- Real-time Memory Report at c_bands before calling an iterative solver
           117 MiB given to the printing process from OS
             0 MiB allocation reported by mallinfo(arena+hblkhd)
         55609 MiB available memory on the node where the printing process lives
------------------
     ethr =  5.86E-06,  avg # of iterations =  5.4

     total cpu time spent up to now is      179.9 secs

     total energy              =    -723.16527465 Ry
     estimated scf accuracy    <       0.00827155 Ry

     iteration # 25     ecut=    50.00 Ry     beta= 0.30
     Davidson diagonalization with overlap

---- Real-time Memory Report at c_bands before calling an iterative solver
           117 MiB given to the printing process from OS
             0 MiB allocation reported by mallinfo(arena+hblkhd)
         55610 MiB available memory on the node where the printing process lives
------------------
     ethr =  5.86E-06,  avg # of iterations =  5.2

     total cpu time spent up to now is      187.1 secs

     total energy              =    -723.16607713 Ry
     estimated scf accuracy    <       0.00168767 Ry

     iteration # 26     ecut=    50.00 Ry     beta= 0.30
     Davidson diagonalization with overlap

---- Real-time Memory Report at c_bands before calling an iterative solver
           117 MiB given to the printing process from OS
             0 MiB allocation reported by mallinfo(arena+hblkhd)
         55613 MiB available memory on the node where the printing process lives
------------------
     ethr =  2.34E-06,  avg # of iterations =  4.6

     total cpu time spent up to now is      194.5 secs

     total energy              =    -723.16675631 Ry
     estimated scf accuracy    <       0.00033379 Ry

     iteration # 27     ecut=    50.00 Ry     beta= 0.30
     Davidson diagonalization with overlap

---- Real-time Memory Report at c_bands before calling an iterative solver
           117 MiB given to the printing process from OS
             0 MiB allocation reported by mallinfo(arena+hblkhd)
         55608 MiB available memory on the node where the printing process lives
------------------
     ethr =  4.64E-07,  avg # of iterations =  5.4

     total cpu time spent up to now is      202.5 secs

     total energy              =    -723.16644553 Ry
     estimated scf accuracy    <       0.00140278 Ry

     iteration # 28     ecut=    50.00 Ry     beta= 0.30
     Davidson diagonalization with overlap

---- Real-time Memory Report at c_bands before calling an iterative solver
           117 MiB given to the printing process from OS
             0 MiB allocation reported by mallinfo(arena+hblkhd)
         55608 MiB available memory on the node where the printing process lives
------------------
     ethr =  4.64E-07,  avg # of iterations =  5.6

     total cpu time spent up to now is      210.1 secs

     total energy              =    -723.16636808 Ry
     estimated scf accuracy    <       0.00026920 Ry

     iteration # 29     ecut=    50.00 Ry     beta= 0.30
     Davidson diagonalization with overlap

---- Real-time Memory Report at c_bands before calling an iterative solver
           117 MiB given to the printing process from OS
             0 MiB allocation reported by mallinfo(arena+hblkhd)
         55618 MiB available memory on the node where the printing process lives
------------------
     ethr =  3.74E-07,  avg # of iterations =  6.4

     total cpu time spent up to now is      219.6 secs

     total energy              =    -723.16641095 Ry
     estimated scf accuracy    <       0.00041139 Ry

     iteration # 30     ecut=    50.00 Ry     beta= 0.30
     Davidson diagonalization with overlap

---- Real-time Memory Report at c_bands before calling an iterative solver
           117 MiB given to the printing process from OS
             0 MiB allocation reported by mallinfo(arena+hblkhd)
         55624 MiB available memory on the node where the printing process lives
------------------
     ethr =  3.74E-07,  avg # of iterations =  5.2

     total cpu time spent up to now is      227.6 secs

     total energy              =    -723.16652305 Ry
     estimated scf accuracy    <       0.00002717 Ry

     iteration # 31     ecut=    50.00 Ry     beta= 0.30
     Davidson diagonalization with overlap

---- Real-time Memory Report at c_bands before calling an iterative solver
           117 MiB given to the printing process from OS
             0 MiB allocation reported by mallinfo(arena+hblkhd)
         55606 MiB available memory on the node where the printing process lives
------------------
     ethr =  3.77E-08,  avg # of iterations =  5.4

     total cpu time spent up to now is      234.6 secs

     total energy              =    -723.16651538 Ry
     estimated scf accuracy    <       0.00003107 Ry

     iteration # 32     ecut=    50.00 Ry     beta= 0.30
     Davidson diagonalization with overlap

---- Real-time Memory Report at c_bands before calling an iterative solver
           117 MiB given to the printing process from OS
             0 MiB allocation reported by mallinfo(arena+hblkhd)
         55620 MiB available memory on the node where the printing process lives
------------------
     ethr =  3.77E-08,  avg # of iterations =  2.7

     total cpu time spent up to now is      240.6 secs

     total energy              =    -723.16651275 Ry
     estimated scf accuracy    <       0.00000710 Ry

     iteration # 33     ecut=    50.00 Ry     beta= 0.30
     Davidson diagonalization with overlap

---- Real-time Memory Report at c_bands before calling an iterative solver
           117 MiB given to the printing process from OS
             0 MiB allocation reported by mallinfo(arena+hblkhd)
         55630 MiB available memory on the node where the printing process lives
------------------
     ethr =  9.86E-09,  avg # of iterations =  9.9

     total cpu time spent up to now is      253.8 secs

     total energy              =    -723.16652033 Ry
     estimated scf accuracy    <       0.00004263 Ry

     iteration # 34     ecut=    50.00 Ry     beta= 0.30
     Davidson diagonalization with overlap

---- Real-time Memory Report at c_bands before calling an iterative solver
           117 MiB given to the printing process from OS
             0 MiB allocation reported by mallinfo(arena+hblkhd)
         55607 MiB available memory on the node where the printing process lives
------------------
     ethr =  9.86E-09,  avg # of iterations =  5.3

     total cpu time spent up to now is      261.2 secs

     total energy              =    -723.16651824 Ry
     estimated scf accuracy    <       0.00001078 Ry

     iteration # 35     ecut=    50.00 Ry     beta= 0.30
     Davidson diagonalization with overlap

---- Real-time Memory Report at c_bands before calling an iterative solver
           117 MiB given to the printing process from OS
             0 MiB allocation reported by mallinfo(arena+hblkhd)
         55618 MiB available memory on the node where the printing process lives
------------------
     ethr =  9.86E-09,  avg # of iterations =  5.9

     total cpu time spent up to now is      268.9 secs

     total energy              =    -723.16652109 Ry
     estimated scf accuracy    <       0.00000004 Ry

     iteration # 36     ecut=    50.00 Ry     beta= 0.30
     Davidson diagonalization with overlap

---- Real-time Memory Report at c_bands before calling an iterative solver
           117 MiB given to the printing process from OS
             0 MiB allocation reported by mallinfo(arena+hblkhd)
         55610 MiB available memory on the node where the printing process lives
------------------
     c_bands:  1 eigenvalues not converged
     ethr =  5.75E-11,  avg # of iterations = 11.8

     total cpu time spent up to now is      285.7 secs

     total energy              =    -723.16652131 Ry
     estimated scf accuracy    <       0.00000023 Ry

     iteration # 37     ecut=    50.00 Ry     beta= 0.30
     Davidson diagonalization with overlap

---- Real-time Memory Report at c_bands before calling an iterative solver
           117 MiB given to the printing process from OS
             0 MiB allocation reported by mallinfo(arena+hblkhd)
         55583 MiB available memory on the node where the printing process lives
------------------
     ethr =  5.75E-11,  avg # of iterations =  7.0

     total cpu time spent up to now is      296.1 secs

     total energy              =    -723.16652136 Ry
     estimated scf accuracy    <       0.00000001 Ry

     iteration # 38     ecut=    50.00 Ry     beta= 0.30
     Davidson diagonalization with overlap

---- Real-time Memory Report at c_bands before calling an iterative solver
           117 MiB given to the printing process from OS
             0 MiB allocation reported by mallinfo(arena+hblkhd)
         55627 MiB available memory on the node where the printing process lives
------------------
     ethr =  1.87E-11,  avg # of iterations =  5.9

     total cpu time spent up to now is      303.7 secs

     End of self-consistent calculation

          k = 0.0000 0.0000 0.0000 (  4939 PWs)   bands (ev):

   -12.3563 -12.1669 -12.1669 -11.9703  -0.8247  -0.8171  -0.8170  -0.7623
    -0.7623  -0.7103  -0.7103  -0.7103  -0.7103  -0.6363  -0.6363  -0.2604
    -0.1875  -0.1875  -0.1250  -0.1250  -0.1250  -0.1250  -0.0783  -0.0783
     0.3027   1.9504   1.9504   3.6351   3.6351   3.9018   3.9018   3.9019
     3.9019   4.0437   4.1644   4.1644

     occupation numbers 
     1.0000   1.0000   1.0000   1.0000   1.0000   1.0000   1.0000   1.0000
     1.0000   1.0000   1.0000   1.0000   1.0000   1.0000   1.0000   1.0000
     1.0000   1.0000   1.0000   1.0000   1.0000   1.0000   1.0000   1.0000
     1.0000   1.0000   1.0000   1.0000   1.0000   1.0000   1.0000   1.0000
     1.0000   1.0000   1.0000   1.0000

          k = 0.0000 0.0000 0.0496 (  4921 PWs)   bands (ev):

   -12.3500 -12.2166 -12.1167 -11.9771  -0.8400  -0.8274  -0.7714  -0.7607
    -0.7607  -0.7255  -0.7255  -0.6934  -0.6934  -0.6393  -0.6393  -0.3333
    -0.1850  -0.1850  -0.1396  -0.1396  -0.1113  -0.1113  -0.0795  -0.0795
     0.4094   1.5979   2.3116   3.6443   3.6443   3.8031   3.8332   3.8332
     3.9702   3.9702   4.1555   4.1555

     occupation numbers 
     1.0000   1.0000   1.0000   1.0000   1.0000   1.0000   1.0000   1.0000
     1.0000   1.0000   1.0000   1.0000   1.0000   1.0000   1.0000   1.0000
     1.0000   1.0000   1.0000   1.0000   1.0000   1.0000   1.0000   1.0000
     1.0000   1.0000   1.0000   1.0000   1.0000   1.0000   1.0000   1.0000
     1.0000   1.0000   1.0000   1.0000

          k = 0.0000 0.0000 0.0993 (  4916 PWs)   bands (ev):

   -12.3313 -12.2625 -12.0695 -11.9971  -0.8465  -0.8348  -0.7563  -0.7563
    -0.7386  -0.7386  -0.6986  -0.6762  -0.6762  -0.6477  -0.6477  -0.4688
    -0.1782  -0.1782  -0.1543  -0.1543  -0.0991  -0.0991  -0.0834  -0.0834
     0.6455   1.2578   2.6795   3.4315   3.6711   3.6711   3.7691   3.7691
     4.0336   4.0336   4.1295   4.1295

     occupation numbers 
     1.0000   1.0000   1.0000   1.0000   1.0000   1.0000   1.0000   1.0000
     1.0000   1.0000   1.0000   1.0000   1.0000   1.0000   1.0000   1.0000
     1.0000   1.0000   1.0000   1.0000   1.0000   1.0000   1.0000   1.0000
     1.0000   1.0000   1.0000   1.0000   1.0000   1.0000   1.0000   1.0000
     1.0000   1.0000   1.0000   1.0000

          k = 0.0000 0.0000-0.1489 (  4910 PWs)   bands (ev):

   -12.3016 -12.3015 -12.0287 -12.0286  -0.8428  -0.8428  -0.7490  -0.7490
    -0.7490  -0.7490  -0.6604  -0.6604  -0.6604  -0.6604  -0.5967  -0.5967
    -0.1676  -0.1676  -0.1676  -0.1676  -0.0897  -0.0897  -0.0897  -0.0897
     0.9366   0.9366   3.0532   3.0532   3.7137   3.7137   3.7137   3.7137
     4.0879   4.0879   4.0879   4.0879

     occupation numbers 
     1.0000   1.0000   1.0000   1.0000   1.0000   1.0000   1.0000   1.0000
     1.0000   1.0000   1.0000   1.0000   1.0000   1.0000   1.0000   1.0000
     1.0000   1.0000   1.0000   1.0000   1.0000   1.0000   1.0000   1.0000
     1.0000   1.0000   1.0000   1.0000   1.0000   1.0000   1.0000   1.0000
     1.0000   1.0000   1.0000   1.0000

          k = 0.0000 0.1925 0.0000 (  4881 PWs)   bands (ev):

   -12.2666 -12.0988 -12.0988 -11.9269  -0.8229  -0.8229  -0.8034  -0.7693
    -0.7163  -0.6606  -0.6606  -0.6481  -0.6481  -0.6163  -0.5603  -0.2572
    -0.2189  -0.1859  -0.1265  -0.1265  -0.1258  -0.1258  -0.0740   0.0253
     0.4434   1.9011   1.9011   2.8005   3.1005   3.3876   3.3876   3.4017
     3.7243   3.7243   3.9203   4.0416

     occupation numbers 
     1.0000   1.0000   1.0000   1.0000   1.0000   1.0000   1.0000   1.0000
     1.0000   1.0000   1.0000   1.0000   1.0000   1.0000   1.0000   1.0000
     1.0000   1.0000   1.0000   1.0000   1.0000   1.0000   1.0000   1.0000
     1.0000   1.0000   1.0000   1.0000   1.0000   1.0000   1.0000   1.0000
     1.0000   1.0000   1.0000   1.0000

          k = 0.0000 0.1925 0.0496 (  4880 PWs)   bands (ev):

   -12.2609 -12.1426 -12.0547 -11.9329  -0.8433  -0.8111  -0.7869  -0.7634
    -0.7141  -0.6765  -0.6676  -0.6351  -0.6275  -0.6203  -0.5637  -0.3031
    -0.2140  -0.1836  -0.1479  -0.1406  -0.1115  -0.1058  -0.0754  -0.0063
     0.5477   1.6205   2.1650   2.7929   3.0790   3.2630   3.4128   3.5191
     3.6415   3.8068   3.9015   4.0309

     occupation numbers 
     1.0000   1.0000   1.0000   1.0000   1.0000   1.0000   1.0000   1.0000
     1.0000   1.0000   1.0000   1.0000   1.0000   1.0000   1.0000   1.0000
     1.0000   1.0000   1.0000   1.0000   1.0000   1.0000   1.0000   1.0000
     1.0000   1.0000   1.0000   1.0000   1.0000   1.0000   1.0000   1.0000
     1.0000   1.0000   1.0000   1.0000

          k = 0.0000 0.1925 0.0993 (  4887 PWs)   bands (ev):

   -12.2444 -12.1832 -12.0134 -11.9502  -0.8478  -0.8262  -0.7529  -0.7521
    -0.7082  -0.6845  -0.6757  -0.6324  -0.6070  -0.5933  -0.5734  -0.4089
    -0.2034  -0.1774  -0.1689  -0.1550  -0.0988  -0.0862  -0.0801  -0.0429
     0.7734   1.3314   2.4041   2.7413   3.0521   3.1560   3.4454   3.5639
     3.6465   3.8463   3.8834   3.9993

     occupation numbers 
     1.0000   1.0000   1.0000   1.0000   1.0000   1.0000   1.0000   1.0000
     1.0000   1.0000   1.0000   1.0000   1.0000   1.0000   1.0000   1.0000
     1.0000   1.0000   1.0000   1.0000   1.0000   1.0000   1.0000   1.0000
     1.0000   1.0000   1.0000   1.0000   1.0000   1.0000   1.0000   1.0000
     1.0000   1.0000   1.0000   1.0000

          k = 0.0000 0.1925-0.1489 (  4900 PWs)   bands (ev):

   -12.2179 -12.2179 -11.9777 -11.9777  -0.8404  -0.8404  -0.7450  -0.7450
    -0.6983  -0.6982  -0.6532  -0.6532  -0.5884  -0.5884  -0.5175  -0.5175
    -0.1881  -0.1880  -0.1677  -0.1676  -0.0881  -0.0881  -0.0665  -0.0665
     1.0440   1.0440   2.6052   2.6052   3.0791   3.0792   3.4969   3.4970
     3.7588   3.7588   3.9490   3.9491

     occupation numbers 
     1.0000   1.0000   1.0000   1.0000   1.0000   1.0000   1.0000   1.0000
     1.0000   1.0000   1.0000   1.0000   1.0000   1.0000   1.0000   1.0000
     1.0000   1.0000   1.0000   1.0000   1.0000   1.0000   1.0000   1.0000
     1.0000   1.0000   1.0000   1.0000   1.0000   1.0000   1.0000   1.0000
     1.0000   1.0000   1.0000   1.0000

          k = 0.0000 0.3849 0.0000 (  4893 PWs)   bands (ev):

   -12.0695 -11.9593 -11.9593 -11.8509  -0.8303  -0.8303  -0.8205  -0.6968
    -0.6515  -0.5310  -0.5310  -0.4901  -0.4901  -0.4549  -0.3930  -0.3186
    -0.1864  -0.1377  -0.1052  -0.1052  -0.1027  -0.1027  -0.0638   0.0791
     0.9240   1.3841   1.3841   1.5495   2.1993   2.9384   3.0245   3.0245
     3.3650   3.3650   3.5167   3.7795

     occupation numbers 
     1.0000   1.0000   1.0000   1.0000   1.0000   1.0000   1.0000   1.0000
     1.0000   1.0000   1.0000   1.0000   1.0000   1.0000   1.0000   1.0000
     1.0000   1.0000   1.0000   1.0000   1.0000   1.0000   1.0000   1.0000
     1.0000   1.0000   1.0000   1.0000   1.0000   1.0000   1.0000   1.0000
     1.0000   1.0000   1.0000   1.0000

          k = 0.0000 0.3849 0.0496 (  4876 PWs)   bands (ev):

   -12.0657 -11.9877 -11.9310 -11.8546  -0.8472  -0.8241  -0.8008  -0.7002
    -0.6477  -0.5639  -0.4969  -0.4916  -0.4782  -0.4571  -0.3978  -0.3295
    -0.1890  -0.1366  -0.1310  -0.1141  -0.0958  -0.0728  -0.0653   0.0635
     0.9500   1.2838   1.4830   1.5734   2.2019   2.7882   2.9533   3.2281
     3.2563   3.4729   3.5175   3.7654

     occupation numbers 
     1.0000   1.0000   1.0000   1.0000   1.0000   1.0000   1.0000   1.0000
     1.0000   1.0000   1.0000   1.0000   1.0000   1.0000   1.0000   1.0000
     1.0000   1.0000   1.0000   1.0000   1.0000   1.0000   1.0000   1.0000
     1.0000   1.0000   1.0000   1.0000   1.0000   1.0000   1.0000   1.0000
     1.0000   1.0000   1.0000   1.0000

          k = 0.0000 0.3849 0.0993 (  4870 PWs)   bands (ev):

   -12.0546 -12.0142 -11.9048 -11.8653  -0.8508  -0.8336  -0.7652  -0.7117
    -0.6362  -0.5934  -0.4848  -0.4640  -0.4640  -0.4535  -0.4123  -0.3645
    -0.1887  -0.1567  -0.1334  -0.1220  -0.0864  -0.0703  -0.0413   0.0289
     1.0142   1.1870   1.5697   1.6178   2.2350   2.5494   2.9968   3.1541
     3.3793   3.5098   3.5730   3.7242

     occupation numbers 
     1.0000   1.0000   1.0000   1.0000   1.0000   1.0000   1.0000   1.0000
     1.0000   1.0000   1.0000   1.0000   1.0000   1.0000   1.0000   1.0000
     1.0000   1.0000   1.0000   1.0000   1.0000   1.0000   1.0000   1.0000
     1.0000   1.0000   1.0000   1.0000   1.0000   1.0000   1.0000   1.0000
     1.0000   1.0000   1.0000   1.0000

          k = 0.0000 0.3849-0.1489 (  4854 PWs)   bands (ev):

   -12.0371 -12.0370 -11.8824 -11.8824  -0.8445  -0.8444  -0.7333  -0.7333
    -0.6179  -0.6178  -0.4740  -0.4739  -0.4349  -0.4349  -0.4128  -0.4128
    -0.1771  -0.1771  -0.1285  -0.1285  -0.0775  -0.0775  -0.0075  -0.0075
     1.0962   1.0962   1.6230   1.6230   2.3500   2.3501   3.0655   3.0655
     3.4706   3.4706   3.6586   3.6586

     occupation numbers 
     1.0000   1.0000   1.0000   1.0000   1.0000   1.0000   1.0000   1.0000
     1.0000   1.0000   1.0000   1.0000   1.0000   1.0000   1.0000   1.0000
     1.0000   1.0000   1.0000   1.0000   1.0000   1.0000   1.0000   1.0000
     1.0000   1.0000   1.0000   1.0000   1.0000   1.0000   1.0000   1.0000
     1.0000   1.0000   1.0000   1.0000

          k = 0.0000-0.5774 0.0000 (  4856 PWs)   bands (ev):

   -11.9490 -11.8877 -11.8877 -11.8312  -0.8191  -0.8191  -0.8000  -0.6352
    -0.5728  -0.4825  -0.4824  -0.4634  -0.3611  -0.3611  -0.3045  -0.2333
    -0.0834  -0.0752  -0.0752  -0.0745  -0.0518  -0.0207  -0.0207   0.0004
     0.7572   0.8853   0.8853   1.3587   1.9675   2.6997   3.0398   3.0398
     3.1340   3.1804   3.1804   3.6415

     occupation numbers 
     1.0000   1.0000   1.0000   1.0000   1.0000   1.0000   1.0000   1.0000
     1.0000   1.0000   1.0000   1.0000   1.0000   1.0000   1.0000   1.0000
     1.0000   1.0000   1.0000   1.0000   1.0000   1.0000   1.0000   1.0000
     1.0000   1.0000   1.0000   1.0000   1.0000   1.0000   1.0000   1.0000
     1.0000   1.0000   1.0000   1.0000

          k = 0.0000-0.5774 0.0496 (  4854 PWs)   bands (ev):

   -11.9469 -11.9031 -11.8726 -11.8330  -0.8340  -0.8039  -0.7881  -0.6305
    -0.5895  -0.5243  -0.4606  -0.4386  -0.3925  -0.3248  -0.3110  -0.2307
    -0.0832  -0.0779  -0.0771  -0.0716  -0.0535  -0.0347  -0.0106   0.0003
     0.7501   0.8156   0.9718   1.3333   2.0237   2.7167   2.8488   3.0589
     3.1537   3.1731   3.3008   3.6259

     occupation numbers 
     1.0000   1.0000   1.0000   1.0000   1.0000   1.0000   1.0000   1.0000
     1.0000   1.0000   1.0000   1.0000   1.0000   1.0000   1.0000   1.0000
     1.0000   1.0000   1.0000   1.0000   1.0000   1.0000   1.0000   1.0000
     1.0000   1.0000   1.0000   1.0000   1.0000   1.0000   1.0000   1.0000
     1.0000   1.0000   1.0000   1.0000

          k = 0.0000-0.5774 0.0993 (  4864 PWs)   bands (ev):

   -11.9405 -11.9178 -11.8588 -11.8384  -0.8349  -0.8141  -0.7427  -0.6326
    -0.6162  -0.5619  -0.4520  -0.4182  -0.3962  -0.3295  -0.2865  -0.2328
    -0.0826  -0.0800  -0.0784  -0.0673  -0.0574  -0.0522  -0.0044   0.0001
     0.7390   0.7667   1.0697   1.2650   2.1753   2.6218   2.7662   2.9441
     3.1992   3.2375   3.4121   3.5801

     occupation numbers 
     1.0000   1.0000   1.0000   1.0000   1.0000   1.0000   1.0000   1.0000
     1.0000   1.0000   1.0000   1.0000   1.0000   1.0000   1.0000   1.0000
     1.0000   1.0000   1.0000   1.0000   1.0000   1.0000   1.0000   1.0000
     1.0000   1.0000   1.0000   1.0000   1.0000   1.0000   1.0000   1.0000
     1.0000   1.0000   1.0000   1.0000

          k = 0.0000-0.5774-0.1489 (  4872 PWs)   bands (ev):

   -11.9306 -11.9306 -11.8472 -11.8472  -0.8264  -0.8264  -0.6879  -0.6879
    -0.5930  -0.5930  -0.4380  -0.4380  -0.3587  -0.3587  -0.2525  -0.2525
    -0.0815  -0.0815  -0.0694  -0.0694  -0.0623  -0.0623  -0.0013  -0.0013
     0.7415   0.7415   1.1714   1.1715   2.3867   2.3868   2.8441   2.8441
     3.2385   3.2385   3.5072   3.5073

     occupation numbers 
     1.0000   1.0000   1.0000   1.0000   1.0000   1.0000   1.0000   1.0000
     1.0000   1.0000   1.0000   1.0000   1.0000   1.0000   1.0000   1.0000
     1.0000   1.0000   1.0000   1.0000   1.0000   1.0000   1.0000   1.0000
     1.0000   1.0000   1.0000   1.0000   1.0000   1.0000   1.0000   1.0000
     1.0000   1.0000   1.0000   1.0000

          k = 0.1667 0.2887 0.0000 (  4905 PWs)   bands (ev):

   -12.1225 -11.9948 -11.9948 -11.8675  -0.7979  -0.7979  -0.7576  -0.7283
    -0.6879  -0.6029  -0.6029  -0.5506  -0.5370  -0.5370  -0.4295  -0.2474
    -0.2427  -0.1691  -0.1227  -0.1227  -0.1008  -0.1008  -0.0676   0.0758
     0.7991   1.6234   1.6234   2.0948   2.2324   2.9568   3.0924   3.0924
     3.3077   3.3077   3.6681   3.7147

     occupation numbers 
     1.0000   1.0000   1.0000   1.0000   1.0000   1.0000   1.0000   1.0000
     1.0000   1.0000   1.0000   1.0000   1.0000   1.0000   1.0000   1.0000
     1.0000   1.0000   1.0000   1.0000   1.0000   1.0000   1.0000   1.0000
     1.0000   1.0000   1.0000   1.0000   1.0000   1.0000   1.0000   1.0000
     1.0000   1.0000   1.0000   1.0000

          k = 0.1667 0.2887 0.0496 (  4887 PWs)   bands (ev):

   -12.1181 -12.0279 -11.9618 -11.8718  -0.8128  -0.7709  -0.7655  -0.7273
    -0.6826  -0.6228  -0.5859  -0.5535  -0.5407  -0.5158  -0.4338  -0.2761
    -0.2420  -0.1611  -0.1470  -0.1234  -0.0978  -0.0786  -0.0691   0.0560
     0.8566   1.4821   1.7522   2.0804   2.2617   2.8892   2.9605   3.1531
     3.3411   3.4005   3.6636   3.6998

     occupation numbers 
     1.0000   1.0000   1.0000   1.0000   1.0000   1.0000   1.0000   1.0000
     1.0000   1.0000   1.0000   1.0000   1.0000   1.0000   1.0000   1.0000
     1.0000   1.0000   1.0000   1.0000   1.0000   1.0000   1.0000   1.0000
     1.0000   1.0000   1.0000   1.0000   1.0000   1.0000   1.0000   1.0000
     1.0000   1.0000   1.0000   1.0000

          k = 0.1667 0.2887 0.0993 (  4883 PWs)   bands (ev):

   -12.1054 -12.0586 -11.9311 -11.8845  -0.8132  -0.7832  -0.7434  -0.7257
    -0.6708  -0.6408  -0.5799  -0.5614  -0.5064  -0.4904  -0.4465  -0.3528
    -0.2269  -0.1766  -0.1501  -0.1317  -0.0891  -0.0738  -0.0486   0.0182
     0.9947   1.3277   1.8671   2.0365   2.3492   2.6780   2.9774   3.0804
     3.4817   3.4995   3.6417   3.6562

     occupation numbers 
     1.0000   1.0000   1.0000   1.0000   1.0000   1.0000   1.0000   1.0000
     1.0000   1.0000   1.0000   1.0000   1.0000   1.0000   1.0000   1.0000
     1.0000   1.0000   1.0000   1.0000   1.0000   1.0000   1.0000   1.0000
     1.0000   1.0000   1.0000   1.0000   1.0000   1.0000   1.0000   1.0000
     1.0000   1.0000   1.0000   1.0000

          k = 0.1667 0.2887-0.1489 (  4880 PWs)   bands (ev):

   -12.0851 -12.0851 -11.9047 -11.9047  -0.8015  -0.8015  -0.7285  -0.7285
    -0.6566  -0.6566  -0.5719  -0.5719  -0.4661  -0.4661  -0.4388  -0.4388
    -0.2042  -0.2042  -0.1406  -0.1406  -0.0807  -0.0807  -0.0171  -0.0171
     1.1617   1.1617   1.9639   1.9639   2.4914   2.4914   3.0168   3.0168
     3.5850   3.5850   3.5875   3.5876

     occupation numbers 
     1.0000   1.0000   1.0000   1.0000   1.0000   1.0000   1.0000   1.0000
     1.0000   1.0000   1.0000   1.0000   1.0000   1.0000   1.0000   1.0000
     1.0000   1.0000   1.0000   1.0000   1.0000   1.0000   1.0000   1.0000
     1.0000   1.0000   1.0000   1.0000   1.0000   1.0000   1.0000   1.0000
     1.0000   1.0000   1.0000   1.0000

          k = 0.1667 0.4811 0.0000 (  4866 PWs)   bands (ev):

   -11.9526 -11.8886 -11.8886 -11.8292  -0.7765  -0.7497  -0.7497  -0.6191
    -0.5339  -0.5175  -0.5175  -0.3921  -0.3921  -0.3895  -0.3211  -0.2882
    -0.1812  -0.1447  -0.1165  -0.1165  -0.0308   0.0065   0.0065   0.0963
     0.9634   1.0798   1.0798   1.3990   2.0277   2.3385   2.7324   2.7324
     3.1523   3.1523   3.1744   3.3633

     occupation numbers 
     1.0000   1.0000   1.0000   1.0000   1.0000   1.0000   1.0000   1.0000
     1.0000   1.0000   1.0000   1.0000   1.0000   1.0000   1.0000   1.0000
     1.0000   1.0000   1.0000   1.0000   1.0000   1.0000   1.0000   1.0000
     1.0000   1.0000   1.0000   1.0000   1.0000   1.0000   1.0000   1.0000
     1.0000   1.0000   1.0000   1.0000

          k = 0.1667 0.4811 0.0496 (  4874 PWs)   bands (ev):

   -11.9503 -11.9048 -11.8728 -11.8312  -0.7749  -0.7638  -0.7234  -0.6252
    -0.5555  -0.5392  -0.4713  -0.3999  -0.3935  -0.3803  -0.3271  -0.2948
    -0.1851  -0.1356  -0.1304  -0.1085  -0.0305  -0.0086   0.0253   0.0925
     0.9550   1.0171   1.1536   1.3926   2.0618   2.3665   2.5800   2.8607
     3.0151   3.1887   3.2591   3.3471

     occupation numbers 
     1.0000   1.0000   1.0000   1.0000   1.0000   1.0000   1.0000   1.0000
     1.0000   1.0000   1.0000   1.0000   1.0000   1.0000   1.0000   1.0000
     1.0000   1.0000   1.0000   1.0000   1.0000   1.0000   1.0000   1.0000
     1.0000   1.0000   1.0000   1.0000   1.0000   1.0000   1.0000   1.0000
     1.0000   1.0000   1.0000   1.0000

          k = 0.1667 0.4811 0.0993 (  4870 PWs)   bands (ev):

   -11.9438 -11.9201 -11.8583 -11.8369  -0.7712  -0.7679  -0.6897  -0.6401
    -0.5772  -0.5552  -0.4281  -0.4028  -0.3973  -0.3655  -0.3423  -0.3171
    -0.1821  -0.1486  -0.1213  -0.1066  -0.0292  -0.0193   0.0458   0.0819
     0.9425   0.9707   1.2321   1.3633   2.1555   2.4284   2.4534   2.7752
     3.0505   3.2066   3.3093   3.3133

     occupation numbers 
     1.0000   1.0000   1.0000   1.0000   1.0000   1.0000   1.0000   1.0000
     1.0000   1.0000   1.0000   1.0000   1.0000   1.0000   1.0000   1.0000
     1.0000   1.0000   1.0000   1.0000   1.0000   1.0000   1.0000   1.0000
     1.0000   1.0000   1.0000   1.0000   1.0000   1.0000   1.0000   1.0000
     1.0000   1.0000   1.0000   1.0000

          k = 0.1667 0.4811-0.1489 (  4868 PWs)   bands (ev):

   -11.9334 -11.9334 -11.8461 -11.8461  -0.7686  -0.7686  -0.6604  -0.6604
    -0.5747  -0.5746  -0.4119  -0.4118  -0.3671  -0.3670  -0.3463  -0.3463
    -0.1677  -0.1677  -0.1110  -0.1109  -0.0259  -0.0258   0.0656   0.0656
     0.9453   0.9454   1.3062   1.3063   2.2844   2.2844   2.5980   2.5980
     3.1553   3.1553   3.3121   3.3121

     occupation numbers 
     1.0000   1.0000   1.0000   1.0000   1.0000   1.0000   1.0000   1.0000
     1.0000   1.0000   1.0000   1.0000   1.0000   1.0000   1.0000   1.0000
     1.0000   1.0000   1.0000   1.0000   1.0000   1.0000   1.0000   1.0000
     1.0000   1.0000   1.0000   1.0000   1.0000   1.0000   1.0000   1.0000
     1.0000   1.0000   1.0000   1.0000

          k = 0.3333 0.5774 0.0000 (  4866 PWs)   bands (ev):

   -11.8565 -11.8564 -11.8535 -11.8535  -0.7965  -0.6369  -0.6369  -0.5908
    -0.5908  -0.4904  -0.4904  -0.2786  -0.2467  -0.2467  -0.2419  -0.2418
    -0.1962  -0.1826  -0.1826  -0.1609   0.0366   0.0366   0.1021   0.1021
     1.0216   1.0216   1.2162   1.2162   1.4575   2.2252   2.2252   2.6876
     2.6876   2.9620   3.1874   3.1874

     occupation numbers 
     1.0000   1.0000   1.0000   1.0000   1.0000   1.0000   1.0000   1.0000
     1.0000   1.0000   1.0000   1.0000   1.0000   1.0000   1.0000   1.0000
     1.0000   1.0000   1.0000   1.0000   1.0000   1.0000   1.0000   1.0000
     1.0000   1.0000   1.0000   1.0000   1.0000   1.0000   1.0000   1.0000
     1.0000   1.0000   1.0000   1.0000

          k = 0.3333 0.5774 0.0496 (  4836 PWs)   bands (ev):

   -11.8563 -11.8562 -11.8537 -11.8537  -0.7905  -0.6507  -0.6278  -0.6278
    -0.5239  -0.5012  -0.5012  -0.2916  -0.2461  -0.2461  -0.2419  -0.2419
    -0.1971  -0.1879  -0.1769  -0.1617   0.0418   0.0418   0.0984   0.0984
     1.0318   1.0318   1.1991   1.1991   1.4864   2.0357   2.4134   2.7246
     2.7246   2.9361   3.1561   3.1562

     occupation numbers 
     1.0000   1.0000   1.0000   1.0000   1.0000   1.0000   1.0000   1.0000
     1.0000   1.0000   1.0000   1.0000   1.0000   1.0000   1.0000   1.0000
     1.0000   1.0000   1.0000   1.0000   1.0000   1.0000   1.0000   1.0000
     1.0000   1.0000   1.0000   1.0000   1.0000   1.0000   1.0000   1.0000
     1.0000   1.0000   1.0000   1.0000

          k = 0.3333 0.5774 0.0993 (  4866 PWs)   bands (ev):

   -11.8557 -11.8557 -11.8543 -11.8542  -0.7727  -0.7020  -0.6028  -0.6028
    -0.5302  -0.5302  -0.4543  -0.3298  -0.2452  -0.2452  -0.2426  -0.2426
    -0.1979  -0.1926  -0.1716  -0.1639   0.0552   0.0552   0.0877   0.0877
     1.0611   1.0611   1.1564   1.1564   1.5693   1.8557   2.5893   2.8219
     2.8219   2.8606   3.0697   3.0697

     occupation numbers 
     1.0000   1.0000   1.0000   1.0000   1.0000   1.0000   1.0000   1.0000
     1.0000   1.0000   1.0000   1.0000   1.0000   1.0000   1.0000   1.0000
     1.0000   1.0000   1.0000   1.0000   1.0000   1.0000   1.0000   1.0000
     1.0000   1.0000   1.0000   1.0000   1.0000   1.0000   1.0000   1.0000
     1.0000   1.0000   1.0000   1.0000

          k = 0.3333 0.5774-0.1489 (  4878 PWs)   bands (ev):

   -11.8550 -11.8550 -11.8550 -11.8550  -0.7431  -0.7431  -0.5674  -0.5674
    -0.5674  -0.5674  -0.3871  -0.3870  -0.2439  -0.2439  -0.2438  -0.2438
    -0.1963  -0.1963  -0.1674  -0.1673   0.0721   0.0721   0.0721   0.0721
     1.1055   1.1055   1.1055   1.1055   1.6963   1.6964   2.7419   2.7419
     2.9484   2.9484   2.9485   2.9485

     occupation numbers 
     1.0000   1.0000   1.0000   1.0000   1.0000   1.0000   1.0000   1.0000
     1.0000   1.0000   1.0000   1.0000   1.0000   1.0000   1.0000   1.0000
     1.0000   1.0000   1.0000   1.0000   1.0000   1.0000   1.0000   1.0000
     1.0000   1.0000   1.0000   1.0000   1.0000   1.0000   1.0000   1.0000
     1.0000   1.0000   1.0000   1.0000

          k = 0.0000-0.1925 0.0496 (  4880 PWs)   bands (ev):

   -12.2609 -12.1426 -12.0547 -11.9329  -0.8433  -0.8111  -0.7869  -0.7634
    -0.7141  -0.6765  -0.6676  -0.6351  -0.6275  -0.6203  -0.5637  -0.3031
    -0.2140  -0.1836  -0.1479  -0.1406  -0.1115  -0.1058  -0.0754  -0.0063
     0.5477   1.6205   2.1650   2.7929   3.0790   3.2630   3.4128   3.5191
     3.6415   3.8068   3.9015   4.0309

     occupation numbers 
     1.0000   1.0000   1.0000   1.0000   1.0000   1.0000   1.0000   1.0000
     1.0000   1.0000   1.0000   1.0000   1.0000   1.0000   1.0000   1.0000
     1.0000   1.0000   1.0000   1.0000   1.0000   1.0000   1.0000   1.0000
     1.0000   1.0000   1.0000   1.0000   1.0000   1.0000   1.0000   1.0000
     1.0000   1.0000   1.0000   1.0000

          k = 0.0000-0.1925 0.0993 (  4887 PWs)   bands (ev):

   -12.2444 -12.1832 -12.0134 -11.9502  -0.8478  -0.8262  -0.7529  -0.7521
    -0.7082  -0.6845  -0.6757  -0.6324  -0.6070  -0.5933  -0.5734  -0.4089
    -0.2034  -0.1774  -0.1689  -0.1550  -0.0988  -0.0862  -0.0801  -0.0429
     0.7734   1.3314   2.4041   2.7413   3.0521   3.1560   3.4454   3.5639
     3.6465   3.8463   3.8834   3.9993

     occupation numbers 
     1.0000   1.0000   1.0000   1.0000   1.0000   1.0000   1.0000   1.0000
     1.0000   1.0000   1.0000   1.0000   1.0000   1.0000   1.0000   1.0000
     1.0000   1.0000   1.0000   1.0000   1.0000   1.0000   1.0000   1.0000
     1.0000   1.0000   1.0000   1.0000   1.0000   1.0000   1.0000   1.0000
     1.0000   1.0000   1.0000   1.0000

          k = 0.0000-0.3849 0.0496 (  4876 PWs)   bands (ev):

   -12.0657 -11.9877 -11.9310 -11.8546  -0.8472  -0.8241  -0.8008  -0.7003
    -0.6477  -0.5639  -0.4969  -0.4916  -0.4782  -0.4571  -0.3978  -0.3295
    -0.1890  -0.1366  -0.1310  -0.1141  -0.0958  -0.0728  -0.0653   0.0635
     0.9500   1.2838   1.4830   1.5734   2.2019   2.7882   2.9533   3.2281
     3.2563   3.4729   3.5175   3.7654

     occupation numbers 
     1.0000   1.0000   1.0000   1.0000   1.0000   1.0000   1.0000   1.0000
     1.0000   1.0000   1.0000   1.0000   1.0000   1.0000   1.0000   1.0000
     1.0000   1.0000   1.0000   1.0000   1.0000   1.0000   1.0000   1.0000
     1.0000   1.0000   1.0000   1.0000   1.0000   1.0000   1.0000   1.0000
     1.0000   1.0000   1.0000   1.0000

          k = 0.0000-0.3849 0.0993 (  4870 PWs)   bands (ev):

   -12.0546 -12.0142 -11.9048 -11.8653  -0.8508  -0.8336  -0.7652  -0.7117
    -0.6362  -0.5934  -0.4848  -0.4640  -0.4640  -0.4535  -0.4123  -0.3645
    -0.1887  -0.1567  -0.1334  -0.1220  -0.0864  -0.0703  -0.0413   0.0289
     1.0142   1.1870   1.5697   1.6178   2.2350   2.5494   2.9968   3.1541
     3.3793   3.5098   3.5730   3.7242

     occupation numbers 
     1.0000   1.0000   1.0000   1.0000   1.0000   1.0000   1.0000   1.0000
     1.0000   1.0000   1.0000   1.0000   1.0000   1.0000   1.0000   1.0000
     1.0000   1.0000   1.0000   1.0000   1.0000   1.0000   1.0000   1.0000
     1.0000   1.0000   1.0000   1.0000   1.0000   1.0000   1.0000   1.0000
     1.0000   1.0000   1.0000   1.0000

          k =-0.1667-0.4811 0.0496 (  4874 PWs)   bands (ev):

   -11.9503 -11.9048 -11.8728 -11.8312  -0.7749  -0.7638  -0.7234  -0.6252
    -0.5555  -0.5392  -0.4713  -0.3999  -0.3935  -0.3803  -0.3271  -0.2948
    -0.1851  -0.1356  -0.1305  -0.1085  -0.0305  -0.0086   0.0253   0.0925
     0.9550   1.0171   1.1536   1.3926   2.0618   2.3665   2.5800   2.8607
     3.0151   3.1887   3.2591   3.3471

     occupation numbers 
     1.0000   1.0000   1.0000   1.0000   1.0000   1.0000   1.0000   1.0000
     1.0000   1.0000   1.0000   1.0000   1.0000   1.0000   1.0000   1.0000
     1.0000   1.0000   1.0000   1.0000   1.0000   1.0000   1.0000   1.0000
     1.0000   1.0000   1.0000   1.0000   1.0000   1.0000   1.0000   1.0000
     1.0000   1.0000   1.0000   1.0000

          k =-0.1667-0.4811 0.0993 (  4870 PWs)   bands (ev):

   -11.9438 -11.9201 -11.8583 -11.8369  -0.7712  -0.7679  -0.6897  -0.6401
    -0.5772  -0.5552  -0.4281  -0.4028  -0.3973  -0.3655  -0.3423  -0.3171
    -0.1821  -0.1486  -0.1213  -0.1066  -0.0292  -0.0193   0.0458   0.0819
     0.9425   0.9707   1.2321   1.3633   2.1555   2.4284   2.4534   2.7752
     3.0505   3.2066   3.3093   3.3133

     occupation numbers 
     1.0000   1.0000   1.0000   1.0000   1.0000   1.0000   1.0000   1.0000
     1.0000   1.0000   1.0000   1.0000   1.0000   1.0000   1.0000   1.0000
     1.0000   1.0000   1.0000   1.0000   1.0000   1.0000   1.0000   1.0000
     1.0000   1.0000   1.0000   1.0000   1.0000   1.0000   1.0000   1.0000
     1.0000   1.0000   1.0000   1.0000

     highest occupied level (ev):     4.1644

!    total energy              =    -723.16652137 Ry
     estimated scf accuracy    <          9.8E-10 Ry

     The total energy is the sum of the following terms:
     one-electron contribution =    -356.30971466 Ry
     hartree contribution      =     253.65778813 Ry
     xc contribution           =    -218.30726063 Ry
     ewald contribution        =    -402.20733421 Ry

     convergence has been achieved in  38 iterations

     Forces acting on atoms (cartesian axes, Ry/au):

     atom    1 type  1   force =     0.00000000    0.00000000    0.00587912
     atom    2 type  2   force =     0.00000000    0.00000000   -0.00587230
     atom    3 type  1   force =     0.00000000    0.00000000    0.00589109
     atom    4 type  2   force =     0.00000000    0.00000000   -0.00587409
     atom    5 type  1   force =     0.00000000    0.00000000    0.00587241
     atom    6 type  2   force =     0.00000000    0.00000000   -0.00587366
     atom    7 type  1   force =     0.00000000   -0.00000000    0.00584866
     atom    8 type  2   force =     0.00000000    0.00000000   -0.00587124
     The non-local contrib.  to forces
     atom    1 type  1   force =     0.00000000   -0.00000000   -0.04431103
     atom    2 type  2   force =     0.00000000    0.00000000   -0.04834140
     atom    3 type  1   force =     0.00000000    0.00000000   -0.04429655
     atom    4 type  2   force =     0.00000000    0.00000000   -0.04835448
     atom    5 type  1   force =     0.00000000    0.00000000   -0.04430475
     atom    6 type  2   force =     0.00000000    0.00000000   -0.04834955
     atom    7 type  1   force =     0.00000000   -0.00000000   -0.04431249
     atom    8 type  2   force =     0.00000000   -0.00000000   -0.04833319
     The ionic contribution  to forces
     atom    1 type  1   force =    -0.00000000    0.00000000   -0.41007870
     atom    2 type  2   force =     0.00000000   -0.00000000    0.41007870
     atom    3 type  1   force =     0.00000000   -0.00000000   -0.41007870
     atom    4 type  2   force =    -0.00000000    0.00000000    0.41007870
     atom    5 type  1   force =    -0.00000000    0.00000000   -0.41007870
     atom    6 type  2   force =     0.00000000   -0.00000000    0.41007870
     atom    7 type  1   force =     0.00000000   -0.00000000   -0.41007870
     atom    8 type  2   force =    -0.00000000    0.00000000    0.41007870
     The local contribution  to forces
     atom    1 type  1   force =     0.00000000   -0.00000000    0.45818020
     atom    2 type  2   force =     0.00000001   -0.00000001   -0.36804887
     atom    3 type  1   force =     0.00000005   -0.00000003    0.45815074
     atom    4 type  2   force =     0.00000000    0.00000000   -0.36805420
     atom    5 type  1   force =     0.00000000   -0.00000000    0.45817156
     atom    6 type  2   force =     0.00000001   -0.00000001   -0.36805324
     atom    7 type  1   force =     0.00000005   -0.00000003    0.45819795
     atom    8 type  2   force =     0.00000000   -0.00000000   -0.36805120
     The core correction contribution to forces
     atom    1 type  1   force =    -0.00000000    0.00000000    0.00208490
     atom    2 type  2   force =    -0.00000000    0.00000000    0.00044122
     atom    3 type  1   force =     0.00000001   -0.00000000    0.00208515
     atom    4 type  2   force =    -0.00000000    0.00000000    0.00044140
     atom    5 type  1   force =    -0.00000000    0.00000000    0.00208518
     atom    6 type  2   force =    -0.00000000    0.00000000    0.00044131
     atom    7 type  1   force =     0.00000001   -0.00000000    0.00208522
     atom    8 type  2   force =    -0.00000000    0.00000000    0.00044108
     The Hubbard contrib.    to forces
     atom    1 type  1   force =     0.00000000    0.00000000    0.00000000
     atom    2 type  2   force =     0.00000000    0.00000000    0.00000000
     atom    3 type  1   force =     0.00000000    0.00000000    0.00000000
     atom    4 type  2   force =     0.00000000    0.00000000    0.00000000
     atom    5 type  1   force =     0.00000000    0.00000000    0.00000000
     atom    6 type  2   force =     0.00000000    0.00000000    0.00000000
     atom    7 type  1   force =     0.00000000    0.00000000    0.00000000
     atom    8 type  2   force =     0.00000000    0.00000000    0.00000000
     The SCF correction term to forces
     atom    1 type  1   force =    -0.00000000    0.00000000    0.00000240
     atom    2 type  2   force =     0.00000000   -0.00000000   -0.00000328
     atom    3 type  1   force =     0.00000000   -0.00000000    0.00002911
     atom    4 type  2   force =    -0.00000000    0.00000000    0.00001316
     atom    5 type  1   force =    -0.00000000    0.00000000   -0.00000222
     atom    6 type  2   force =     0.00000000   -0.00000000    0.00000778
     atom    7 type  1   force =     0.00000000   -0.00000000   -0.00004466
     atom    8 type  2   force =    -0.00000000    0.00000000   -0.00000796

     Total force =     0.016611     Total SCF correction =     0.000056

     init_run     :      4.29s CPU      4.49s WALL (       1 calls)
     electrons    :    285.01s CPU    298.75s WALL (       1 calls)
     forces       :      1.38s CPU      1.44s WALL (       1 calls)

     Called by init_run:
     wfcinit      :      2.48s CPU      2.59s WALL (       1 calls)
     wfcinit:atom :      0.03s CPU      0.03s WALL (      17 calls)
     wfcinit:wfcr :      2.28s CPU      2.39s WALL (      17 calls)
     potinit      :      0.64s CPU      0.65s WALL (       1 calls)
     hinit0       :      0.99s CPU      1.01s WALL (       1 calls)

     Called by electrons:
     c_bands      :    244.03s CPU    252.84s WALL (      38 calls)
     sum_band     :     32.81s CPU     36.00s WALL (      38 calls)
     v_of_rho     :      3.20s CPU      3.31s WALL (      39 calls)
     v_h          :      0.19s CPU      0.20s WALL (      39 calls)
     v_xc         :      3.09s CPU      3.19s WALL (      40 calls)
     newd         :      4.35s CPU      5.97s WALL (      39 calls)
     mix_rho      :      0.53s CPU      0.55s WALL (      38 calls)

     Called by c_bands:
     init_us_2    :      2.01s CPU      2.04s WALL (    1326 calls)
     init_us_2:cp :      2.00s CPU      2.03s WALL (    1326 calls)
     cegterg      :    226.12s CPU    234.86s WALL (     646 calls)

     Called by sum_band:
     sum_band:wei :      0.00s CPU      0.00s WALL (      38 calls)
     sum_band:loo :     26.81s CPU     28.28s WALL (      38 calls)
     sum_band:buf :      0.15s CPU      0.16s WALL (     646 calls)
     sum_band:ini :      0.97s CPU      0.98s WALL (     646 calls)
     sum_band:cal :      3.47s CPU      3.55s WALL (     646 calls)
     sum_band:bec :      0.07s CPU      0.07s WALL (     646 calls)
     addusdens    :      4.85s CPU      6.49s WALL (      38 calls)
                                        0.00s GPU  (      38 calls)
     addusd:skk   :      0.04s CPU      0.04s WALL (      76 calls)
                                        0.00s GPU  (      76 calls)

     Called by *egterg:
     cdiaghg      :     16.65s CPU     16.70s WALL (    3880 calls)
     cegterg:over :     11.62s CPU     11.85s WALL (    3234 calls)
     cegterg:upda :      7.51s CPU      7.53s WALL (    3234 calls)
     cegterg:last :     15.42s CPU     15.45s WALL (    1804 calls)
     h_psi        :    159.27s CPU    167.68s WALL (    3897 calls)
     s_psi        :     12.74s CPU     12.78s WALL (    3897 calls)
     g_psi        :      0.69s CPU      0.69s WALL (    3234 calls)

     Called by h_psi:
     h_psi:calbec :     11.98s CPU     12.32s WALL (    3897 calls)
     vloc_psi     :    133.70s CPU    141.72s WALL (    3897 calls)
     add_vuspsi   :     13.10s CPU     13.15s WALL (    3897 calls)

     General routines
     calbec       :     15.80s CPU     16.22s WALL (    4611 calls)
     fft          :      2.00s CPU      2.16s WALL (     516 calls)
     ffts         :      0.24s CPU      0.25s WALL (      77 calls)
     fftw         :    129.34s CPU    137.16s WALL (  171092 calls)
     interpolate  :      0.35s CPU      0.37s WALL (      39 calls)

     Parallel routines

     PWSCF        :   4m51.15s CPU   5m 5.15s WALL


   This run was terminated on:  16:23:32  13Jul2025            

=------------------------------------------------------------------------------=
   JOB DONE.
=------------------------------------------------------------------------------=
Note: The following floating-point exceptions are signalling: IEEE_INVALID_FLAG
Note: The following floating-point exceptions are signalling: IEEE_INVALID_FLAG
