Authorization required, but no authorization protocol specified

Authorization required, but no authorization protocol specified

Authorization required, but no authorization protocol specified

Authorization required, but no authorization protocol specified

Authorization required, but no authorization protocol specified

Authorization required, but no authorization protocol specified

Authorization required, but no authorization protocol specified

Authorization required, but no authorization protocol specified

Authorization required, but no authorization protocol specified

Authorization required, but no authorization protocol specified


     Program PWSCF v.7.2 starts on 13Jul2025 at 14:47: 4 

     This program is part of the open-source Quantum ESPRESSO suite
     for quantum simulation of materials; please cite
         "P. Giannozzi et al., J. Phys.:Condens. Matter 21 395502 (2009);
         "P. Giannozzi et al., J. Phys.:Condens. Matter 29 465901 (2017);
         "P. Giannozzi et al., J. Chem. Phys. 152 154105 (2020);
          URL http://www.quantum-espresso.org", 
     in publications or presentations arising from this work. More details at
     http://www.quantum-espresso.org/quote

     Parallel version (MPI), running on     8 processors

     MPI processes distributed on     1 nodes
     56145 MiB available memory on the printing compute node when the environment starts

     Reading input from /home/jvc/QEspresso7.2/ZnO_database/scripts/cell112.in/ZnO-3.34-1.74-112.in
Warning: card &CELL ignored
Warning: card / ignored
Warning: card &FCP ignored
Warning: card / ignored
Warning: card &RISM ignored
Warning: card / ignored

     Current dimensions of program PWSCF are:
     Max number of different atomic species (ntypx) = 10
     Max number of k-points (npk) =  40000
     Max angular momentum in pseudopotentials (lmaxx) =  4
     file Zn.upf: wavefunction(s)  3D renormalized
     Found identity + (  0.0000  0.0000 -0.5000) symmetry
     This is a supercell, fractional translations are disabled
     Message from routine setup:
     using ibrav=0 with symmetry is DISCOURAGED, use correct ibrav instead

     K-points division:     npool     =       2
     R & G space division:  proc/nbgrp/npool/nimage =       4
     Subspace diagonalization in iterative solution of the eigenvalue problem:
     a serial algorithm will be used


     Parallelization info
     --------------------
     sticks:   dense  smooth     PW     G-vecs:    dense   smooth      PW
     Min         274     136     40                25521     9006    1480
     Max         275     137     41                25522     9019    1493
     Sum        1099     547    163               102085    36057    5953

     Using Slab Decomposition



     bravais-lattice index     =            0
     lattice parameter (alat)  =       6.3024  a.u.
     unit-cell volume          =     755.9771 (a.u.)^3
     number of atoms/cell      =            8
     number of atomic types    =            2
     number of electrons       =        72.00
     number of Kohn-Sham states=           36
     kinetic-energy cutoff     =      50.0000  Ry
     charge density cutoff     =     400.0000  Ry
     scf convergence threshold =      1.0E-08
     mixing beta               =       0.3000
     number of iterations used =            8  plain     mixing
     Exchange-correlation= PBE
                           (   1   4   3   4   0   0   0)

     celldm(1)=   6.302431  celldm(2)=   0.000000  celldm(3)=   0.000000
     celldm(4)=   0.000000  celldm(5)=   0.000000  celldm(6)=   0.000000

     crystal axes: (cart. coord. in units of alat)
               a(1) = (   1.000000   0.000000   0.000000 )  
               a(2) = (  -0.500000   0.866025   0.000000 )  
               a(3) = (   0.000000   0.000000   3.487014 )  

     reciprocal axes: (cart. coord. in units 2 pi/alat)
               b(1) = (  1.000000  0.577350 -0.000000 )  
               b(2) = (  0.000000  1.154701  0.000000 )  
               b(3) = (  0.000000 -0.000000  0.286778 )  


     PseudoPot. # 1 for Zn read from file:
     /home/jvc/QEspresso7.2/ZnO_database/pseudos/Zn.upf
     MD5 check sum: 7f56cabf9682ed8c977c2f7d0c5985c5
     Pseudo is Ultrasoft + core correction, Zval = 12.0
     Generated using &quot;atomic&quot; code by A. Dal Corso  v.6.2.2
     Using radial grid of 1201 points,  6 beta functions with: 
                l(1) =   0
                l(2) =   0
                l(3) =   1
                l(4) =   1
                l(5) =   2
                l(6) =   2
     Q(r) pseudized with 0 coefficients 


     PseudoPot. # 2 for O  read from file:
     /home/jvc/QEspresso7.2/ZnO_database/pseudos/O.upf
     MD5 check sum: 91400c9766925bcf19f520983a725ff0
     Pseudo is Ultrasoft + core correction, Zval =  6.0
     Generated using &quot;atomic&quot; code by A. Dal Corso  v.6.3MaX
     Using radial grid of 1095 points,  4 beta functions with: 
                l(1) =   0
                l(2) =   0
                l(3) =   1
                l(4) =   1
     Q(r) pseudized with 0 coefficients 


     atomic species   valence    mass     pseudopotential
        Zn            12.00    65.38000     Zn( 1.00)
        O              6.00    15.99900     O ( 1.00)

      6 Sym. Ops. (no inversion) found


                                    s                        frac. trans.

      isym =  1     identity                                     

 cryst.   s( 1) = (     1          0          0      )
                  (     0          1          0      )
                  (     0          0          1      )

 cart.    s( 1) = (  1.0000000  0.0000000  0.0000000 )
                  (  0.0000000  1.0000000  0.0000000 )
                  (  0.0000000  0.0000000  1.0000000 )


      isym =  2     120 deg rotation - cryst. axis [0,0,1]       

 cryst.   s( 2) = (     0          1          0      )
                  (    -1         -1          0      )
                  (     0          0          1      )

 cart.    s( 2) = ( -0.5000000 -0.8660254  0.0000000 )
                  (  0.8660254 -0.5000000  0.0000000 )
                  (  0.0000000  0.0000000  1.0000000 )


      isym =  3     120 deg rotation - cryst. axis [0,0,-1]      

 cryst.   s( 3) = (    -1         -1          0      )
                  (     1          0          0      )
                  (     0          0          1      )

 cart.    s( 3) = ( -0.5000000  0.8660254  0.0000000 )
                  ( -0.8660254 -0.5000000  0.0000000 )
                  (  0.0000000  0.0000000  1.0000000 )


      isym =  4     inv. 180 deg rotation - cart. axis [1,0,0]   

 cryst.   s( 4) = (    -1          0          0      )
                  (     1          1          0      )
                  (     0          0          1      )

 cart.    s( 4) = ( -1.0000000  0.0000000  0.0000000 )
                  (  0.0000000  1.0000000  0.0000000 )
                  (  0.0000000  0.0000000  1.0000000 )


      isym =  5     inv. 180 deg rotation - cryst. axis [0,1,0]  

 cryst.   s( 5) = (     1          1          0      )
                  (     0         -1          0      )
                  (     0          0          1      )

 cart.    s( 5) = (  0.5000000  0.8660254  0.0000000 )
                  (  0.8660254 -0.5000000  0.0000000 )
                  (  0.0000000  0.0000000  1.0000000 )


      isym =  6     inv. 180 deg rotation - cryst. axis [1,1,0]  

 cryst.   s( 6) = (     0         -1          0      )
                  (    -1          0          0      )
                  (     0          0          1      )

 cart.    s( 6) = (  0.5000000 -0.8660254  0.0000000 )
                  ( -0.8660254 -0.5000000  0.0000000 )
                  (  0.0000000  0.0000000  1.0000000 )


   Cartesian axes

     site n.     atom                  positions (alat units)
         1           Zn  tau(   1) = (   0.0000000   0.0000000   0.0000000  )
         2           O   tau(   2) = (  -0.0000000   0.5773503   0.2446912  )
         3           Zn  tau(   3) = (  -0.0000000   0.5773503   0.8717535  )
         4           O   tau(   4) = (   0.0000000   0.0000000   1.1164447  )
         5           Zn  tau(   5) = (   0.0000000   0.0000000   1.7435070  )
         6           O   tau(   6) = (  -0.0000000   0.5773503   1.9881982  )
         7           Zn  tau(   7) = (  -0.0000000   0.5773503   2.6152605  )
         8           O   tau(   8) = (   0.0000000   0.0000000   2.8599518  )

   Crystallographic axes

     site n.     atom                  positions (cryst. coord.)
         1           Zn  tau(   1) = (  0.0000000  0.0000000  0.0000000  )
         2           O   tau(   2) = (  0.3333333  0.6666667  0.0701721  )
         3           Zn  tau(   3) = (  0.3333333  0.6666667  0.2500000  )
         4           O   tau(   4) = (  0.0000000  0.0000000  0.3201721  )
         5           Zn  tau(   5) = (  0.0000000  0.0000000  0.5000000  )
         6           O   tau(   6) = (  0.3333333  0.6666667  0.5701721  )
         7           Zn  tau(   7) = (  0.3333333  0.6666667  0.7500000  )
         8           O   tau(   8) = (  0.0000000  0.0000000  0.8201721  )

     number of k points=    34
                       cart. coord. in units 2pi/alat
        k(    1) = (   0.0000000   0.0000000   0.0000000), wk =   0.0092593
        k(    2) = (   0.0000000   0.0000000   0.0477964), wk =   0.0185185
        k(    3) = (   0.0000000   0.0000000   0.0955928), wk =   0.0185185
        k(    4) = (   0.0000000   0.0000000  -0.1433892), wk =   0.0092593
        k(    5) = (   0.0000000   0.1924501   0.0000000), wk =   0.0555556
        k(    6) = (   0.0000000   0.1924501   0.0477964), wk =   0.0555556
        k(    7) = (   0.0000000   0.1924501   0.0955928), wk =   0.0555556
        k(    8) = (   0.0000000   0.1924501  -0.1433892), wk =   0.0555556
        k(    9) = (   0.0000000   0.3849002   0.0000000), wk =   0.0555556
        k(   10) = (   0.0000000   0.3849002   0.0477964), wk =   0.0555556
        k(   11) = (   0.0000000   0.3849002   0.0955928), wk =   0.0555556
        k(   12) = (   0.0000000   0.3849002  -0.1433892), wk =   0.0555556
        k(   13) = (   0.0000000  -0.5773503   0.0000000), wk =   0.0277778
        k(   14) = (   0.0000000  -0.5773503   0.0477964), wk =   0.0555556
        k(   15) = (   0.0000000  -0.5773503   0.0955928), wk =   0.0555556
        k(   16) = (   0.0000000  -0.5773503  -0.1433892), wk =   0.0277778
        k(   17) = (   0.1666667   0.2886751   0.0000000), wk =   0.0555556
        k(   18) = (   0.1666667   0.2886751   0.0477964), wk =   0.1111111
        k(   19) = (   0.1666667   0.2886751   0.0955928), wk =   0.1111111
        k(   20) = (   0.1666667   0.2886751  -0.1433892), wk =   0.0555556
        k(   21) = (   0.1666667   0.4811252   0.0000000), wk =   0.1111111
        k(   22) = (   0.1666667   0.4811252   0.0477964), wk =   0.1111111
        k(   23) = (   0.1666667   0.4811252   0.0955928), wk =   0.1111111
        k(   24) = (   0.1666667   0.4811252  -0.1433892), wk =   0.1111111
        k(   25) = (   0.3333333   0.5773503   0.0000000), wk =   0.0185185
        k(   26) = (   0.3333333   0.5773503   0.0477964), wk =   0.0370370
        k(   27) = (   0.3333333   0.5773503   0.0955928), wk =   0.0370370
        k(   28) = (   0.3333333   0.5773503  -0.1433892), wk =   0.0185185
        k(   29) = (   0.0000000  -0.1924501   0.0477964), wk =   0.0555556
        k(   30) = (   0.0000000  -0.1924501   0.0955928), wk =   0.0555556
        k(   31) = (   0.0000000  -0.3849002   0.0477964), wk =   0.0555556
        k(   32) = (   0.0000000  -0.3849002   0.0955928), wk =   0.0555556
        k(   33) = (  -0.1666667  -0.4811252   0.0477964), wk =   0.1111111
        k(   34) = (  -0.1666667  -0.4811252   0.0955928), wk =   0.1111111

                       cryst. coord.
        k(    1) = (   0.0000000   0.0000000   0.0000000), wk =   0.0092593
        k(    2) = (   0.0000000   0.0000000   0.1666667), wk =   0.0185185
        k(    3) = (   0.0000000   0.0000000   0.3333333), wk =   0.0185185
        k(    4) = (   0.0000000   0.0000000  -0.5000000), wk =   0.0092593
        k(    5) = (   0.0000000   0.1666667   0.0000000), wk =   0.0555556
        k(    6) = (   0.0000000   0.1666667   0.1666667), wk =   0.0555556
        k(    7) = (   0.0000000   0.1666667   0.3333333), wk =   0.0555556
        k(    8) = (   0.0000000   0.1666667  -0.5000000), wk =   0.0555556
        k(    9) = (   0.0000000   0.3333333   0.0000000), wk =   0.0555556
        k(   10) = (   0.0000000   0.3333333   0.1666667), wk =   0.0555556
        k(   11) = (   0.0000000   0.3333333   0.3333333), wk =   0.0555556
        k(   12) = (   0.0000000   0.3333333  -0.5000000), wk =   0.0555556
        k(   13) = (   0.0000000  -0.5000000   0.0000000), wk =   0.0277778
        k(   14) = (   0.0000000  -0.5000000   0.1666667), wk =   0.0555556
        k(   15) = (   0.0000000  -0.5000000   0.3333333), wk =   0.0555556
        k(   16) = (   0.0000000  -0.5000000  -0.5000000), wk =   0.0277778
        k(   17) = (   0.1666667   0.1666667   0.0000000), wk =   0.0555556
        k(   18) = (   0.1666667   0.1666667   0.1666667), wk =   0.1111111
        k(   19) = (   0.1666667   0.1666667   0.3333333), wk =   0.1111111
        k(   20) = (   0.1666667   0.1666667  -0.5000000), wk =   0.0555556
        k(   21) = (   0.1666667   0.3333333   0.0000000), wk =   0.1111111
        k(   22) = (   0.1666667   0.3333333   0.1666667), wk =   0.1111111
        k(   23) = (   0.1666667   0.3333333   0.3333333), wk =   0.1111111
        k(   24) = (   0.1666667   0.3333333  -0.5000000), wk =   0.1111111
        k(   25) = (   0.3333333   0.3333333   0.0000000), wk =   0.0185185
        k(   26) = (   0.3333333   0.3333333   0.1666667), wk =   0.0370370
        k(   27) = (   0.3333333   0.3333333   0.3333333), wk =   0.0370370
        k(   28) = (   0.3333333   0.3333333  -0.5000000), wk =   0.0185185
        k(   29) = (   0.0000000  -0.1666667   0.1666667), wk =   0.0555556
        k(   30) = (   0.0000000  -0.1666667   0.3333333), wk =   0.0555556
        k(   31) = (   0.0000000  -0.3333333   0.1666667), wk =   0.0555556
        k(   32) = (   0.0000000  -0.3333333   0.3333333), wk =   0.0555556
        k(   33) = (  -0.1666667  -0.3333333   0.1666667), wk =   0.1111111
        k(   34) = (  -0.1666667  -0.3333333   0.3333333), wk =   0.1111111

     Dense  grid:   102085 G-vectors     FFT dimensions: (  45,  45, 144)

     Smooth grid:    36057 G-vectors     FFT dimensions: (  30,  30, 100)

     Dynamical RAM for                 wfc:       0.62 MB

     Dynamical RAM for     wfc (w. buffer):      11.15 MB

     Dynamical RAM for           str. fact:       0.78 MB

     Dynamical RAM for           local pot:       0.00 MB

     Dynamical RAM for          nlocal pot:       1.79 MB

     Dynamical RAM for                qrad:       3.21 MB

     Dynamical RAM for          rho,v,vnew:       2.84 MB

     Dynamical RAM for               rhoin:       0.95 MB

     Dynamical RAM for            rho*nmix:       6.23 MB

     Dynamical RAM for           G-vectors:       1.53 MB

     Dynamical RAM for          h,s,v(r/c):       0.24 MB

     Dynamical RAM for          <psi|beta>:       0.06 MB

     Dynamical RAM for                 psi:       1.24 MB

     Dynamical RAM for                hpsi:       1.24 MB

     Dynamical RAM for                spsi:       1.24 MB

     Dynamical RAM for      wfcinit/wfcrot:       1.85 MB

     Dynamical RAM for           addusdens:      37.19 MB

     Dynamical RAM for          addusforce:      38.37 MB

     Estimated static dynamical RAM per process >      26.19 MB

     Estimated max dynamical RAM per process >      70.80 MB

     Estimated total dynamical RAM >     541.45 MB

     Check: negative core charge=   -0.000002

     Initial potential from superposition of free atoms

     starting charge      71.9851, renormalised to      72.0000
     Starting wfcs are   52 randomized atomic wfcs

     total cpu time spent up to now is        4.8 secs

     Self-consistent Calculation

     iteration #  1     ecut=    50.00 Ry     beta= 0.30
     Davidson diagonalization with overlap

---- Real-time Memory Report at c_bands before calling an iterative solver
            82 MiB given to the printing process from OS
             0 MiB allocation reported by mallinfo(arena+hblkhd)
         55780 MiB available memory on the node where the printing process lives
------------------
     ethr =  1.00E-02,  avg # of iterations =  1.5

     total cpu time spent up to now is        9.9 secs

     total energy              =    -722.86087015 Ry
     estimated scf accuracy    <       1.51127251 Ry

     iteration #  2     ecut=    50.00 Ry     beta= 0.30
     Davidson diagonalization with overlap

---- Real-time Memory Report at c_bands before calling an iterative solver
           107 MiB given to the printing process from OS
             0 MiB allocation reported by mallinfo(arena+hblkhd)
         55653 MiB available memory on the node where the printing process lives
------------------
     ethr =  2.10E-03,  avg # of iterations =  2.1

     total cpu time spent up to now is       16.0 secs

     total energy              =    -723.09387679 Ry
     estimated scf accuracy    <       0.17120837 Ry

     iteration #  3     ecut=    50.00 Ry     beta= 0.30
     Davidson diagonalization with overlap

---- Real-time Memory Report at c_bands before calling an iterative solver
           108 MiB given to the printing process from OS
             0 MiB allocation reported by mallinfo(arena+hblkhd)
         55696 MiB available memory on the node where the printing process lives
------------------
     ethr =  2.38E-04,  avg # of iterations =  6.9

     total cpu time spent up to now is       26.1 secs

     total energy              =    -723.12499532 Ry
     estimated scf accuracy    <       0.18229410 Ry

     iteration #  4     ecut=    50.00 Ry     beta= 0.30
     Davidson diagonalization with overlap

---- Real-time Memory Report at c_bands before calling an iterative solver
           109 MiB given to the printing process from OS
             0 MiB allocation reported by mallinfo(arena+hblkhd)
         55699 MiB available memory on the node where the printing process lives
------------------
     ethr =  2.38E-04,  avg # of iterations =  9.6

     total cpu time spent up to now is       40.1 secs

     total energy              =    -723.27528597 Ry
     estimated scf accuracy    <       0.90466483 Ry

     iteration #  5     ecut=    50.00 Ry     beta= 0.30
     Davidson diagonalization with overlap

---- Real-time Memory Report at c_bands before calling an iterative solver
           109 MiB given to the printing process from OS
             0 MiB allocation reported by mallinfo(arena+hblkhd)
         55676 MiB available memory on the node where the printing process lives
------------------
     ethr =  2.38E-04,  avg # of iterations =  2.0

     total cpu time spent up to now is       45.3 secs

     total energy              =    -723.17394869 Ry
     estimated scf accuracy    <       0.57153149 Ry

     iteration #  6     ecut=    50.00 Ry     beta= 0.30
     Davidson diagonalization with overlap

---- Real-time Memory Report at c_bands before calling an iterative solver
           109 MiB given to the printing process from OS
             0 MiB allocation reported by mallinfo(arena+hblkhd)
         55696 MiB available memory on the node where the printing process lives
------------------
     ethr =  2.38E-04,  avg # of iterations =  4.2

     total cpu time spent up to now is       52.1 secs

     total energy              =    -723.16017912 Ry
     estimated scf accuracy    <       0.13139778 Ry

     iteration #  7     ecut=    50.00 Ry     beta= 0.30
     Davidson diagonalization with overlap

---- Real-time Memory Report at c_bands before calling an iterative solver
           110 MiB given to the printing process from OS
             0 MiB allocation reported by mallinfo(arena+hblkhd)
         55693 MiB available memory on the node where the printing process lives
------------------
     ethr =  1.82E-04,  avg # of iterations =  5.3

     total cpu time spent up to now is       60.0 secs

     total energy              =    -723.22807664 Ry
     estimated scf accuracy    <       0.01675523 Ry

     iteration #  8     ecut=    50.00 Ry     beta= 0.30
     Davidson diagonalization with overlap

---- Real-time Memory Report at c_bands before calling an iterative solver
           110 MiB given to the printing process from OS
             0 MiB allocation reported by mallinfo(arena+hblkhd)
         55687 MiB available memory on the node where the printing process lives
------------------
     ethr =  2.33E-05,  avg # of iterations =  6.7

     total cpu time spent up to now is       68.0 secs

     total energy              =    -723.23771966 Ry
     estimated scf accuracy    <       0.07687883 Ry

     iteration #  9     ecut=    50.00 Ry     beta= 0.30
     Davidson diagonalization with overlap

---- Real-time Memory Report at c_bands before calling an iterative solver
           110 MiB given to the printing process from OS
             0 MiB allocation reported by mallinfo(arena+hblkhd)
         55683 MiB available memory on the node where the printing process lives
------------------
     ethr =  2.33E-05,  avg # of iterations =  1.7

     total cpu time spent up to now is       73.1 secs

     total energy              =    -723.23981827 Ry
     estimated scf accuracy    <       0.08062152 Ry

     iteration # 10     ecut=    50.00 Ry     beta= 0.30
     Davidson diagonalization with overlap

---- Real-time Memory Report at c_bands before calling an iterative solver
           110 MiB given to the printing process from OS
             0 MiB allocation reported by mallinfo(arena+hblkhd)
         55683 MiB available memory on the node where the printing process lives
------------------
     ethr =  2.33E-05,  avg # of iterations =  1.2

     total cpu time spent up to now is       77.9 secs

     total energy              =    -723.21197120 Ry
     estimated scf accuracy    <       0.08668030 Ry

     iteration # 11     ecut=    50.00 Ry     beta= 0.30
     Davidson diagonalization with overlap

---- Real-time Memory Report at c_bands before calling an iterative solver
           111 MiB given to the printing process from OS
             0 MiB allocation reported by mallinfo(arena+hblkhd)
         55684 MiB available memory on the node where the printing process lives
------------------
     ethr =  2.33E-05,  avg # of iterations =  4.7

     total cpu time spent up to now is       85.4 secs

     total energy              =    -723.21380213 Ry
     estimated scf accuracy    <       0.01250607 Ry

     iteration # 12     ecut=    50.00 Ry     beta= 0.30
     Davidson diagonalization with overlap

---- Real-time Memory Report at c_bands before calling an iterative solver
           111 MiB given to the printing process from OS
             0 MiB allocation reported by mallinfo(arena+hblkhd)
         55692 MiB available memory on the node where the printing process lives
------------------
     ethr =  1.74E-05,  avg # of iterations =  5.0

     total cpu time spent up to now is       92.5 secs

     total energy              =    -723.21623352 Ry
     estimated scf accuracy    <       0.00088608 Ry

     iteration # 13     ecut=    50.00 Ry     beta= 0.30
     Davidson diagonalization with overlap

---- Real-time Memory Report at c_bands before calling an iterative solver
           111 MiB given to the printing process from OS
             0 MiB allocation reported by mallinfo(arena+hblkhd)
         55692 MiB available memory on the node where the printing process lives
------------------
     ethr =  1.23E-06,  avg # of iterations =  7.9

     total cpu time spent up to now is      104.0 secs

     total energy              =    -723.21747754 Ry
     estimated scf accuracy    <       0.00124331 Ry

     iteration # 14     ecut=    50.00 Ry     beta= 0.30
     Davidson diagonalization with overlap

---- Real-time Memory Report at c_bands before calling an iterative solver
           111 MiB given to the printing process from OS
             0 MiB allocation reported by mallinfo(arena+hblkhd)
         55689 MiB available memory on the node where the printing process lives
------------------
     ethr =  1.23E-06,  avg # of iterations =  2.0

     total cpu time spent up to now is      109.6 secs

     total energy              =    -723.22050384 Ry
     estimated scf accuracy    <       0.00033855 Ry

     iteration # 15     ecut=    50.00 Ry     beta= 0.30
     Davidson diagonalization with overlap

---- Real-time Memory Report at c_bands before calling an iterative solver
           111 MiB given to the printing process from OS
             0 MiB allocation reported by mallinfo(arena+hblkhd)
         55676 MiB available memory on the node where the printing process lives
------------------
     c_bands:  1 eigenvalues not converged
     c_bands:  1 eigenvalues not converged
     c_bands:  1 eigenvalues not converged
     c_bands:  1 eigenvalues not converged
     c_bands:  2 eigenvalues not converged
     ethr =  4.70E-07,  avg # of iterations = 15.6

     total cpu time spent up to now is      131.0 secs

     total energy              =    -723.22010050 Ry
     estimated scf accuracy    <       0.08113248 Ry

     iteration # 16     ecut=    50.00 Ry     beta= 0.30
     Davidson diagonalization with overlap

---- Real-time Memory Report at c_bands before calling an iterative solver
           111 MiB given to the printing process from OS
             0 MiB allocation reported by mallinfo(arena+hblkhd)
         55679 MiB available memory on the node where the printing process lives
------------------
     c_bands:  1 eigenvalues not converged
     ethr =  4.70E-07,  avg # of iterations = 12.8

     total cpu time spent up to now is      148.0 secs

     total energy              =    -723.21310666 Ry
     estimated scf accuracy    <       0.02363786 Ry

     iteration # 17     ecut=    50.00 Ry     beta= 0.30
     Davidson diagonalization with overlap

---- Real-time Memory Report at c_bands before calling an iterative solver
           111 MiB given to the printing process from OS
             0 MiB allocation reported by mallinfo(arena+hblkhd)
         55679 MiB available memory on the node where the printing process lives
------------------
     ethr =  4.70E-07,  avg # of iterations = 12.9

     total cpu time spent up to now is      166.5 secs

     total energy              =    -723.21762283 Ry
     estimated scf accuracy    <       0.00007963 Ry

     iteration # 18     ecut=    50.00 Ry     beta= 0.30
     Davidson diagonalization with overlap

---- Real-time Memory Report at c_bands before calling an iterative solver
           111 MiB given to the printing process from OS
             0 MiB allocation reported by mallinfo(arena+hblkhd)
         55679 MiB available memory on the node where the printing process lives
------------------
     ethr =  1.11E-07,  avg # of iterations =  9.2

     total cpu time spent up to now is      179.4 secs

     total energy              =    -723.21749215 Ry
     estimated scf accuracy    <       0.00050569 Ry

     iteration # 19     ecut=    50.00 Ry     beta= 0.30
     Davidson diagonalization with overlap

---- Real-time Memory Report at c_bands before calling an iterative solver
           111 MiB given to the printing process from OS
             0 MiB allocation reported by mallinfo(arena+hblkhd)
         55690 MiB available memory on the node where the printing process lives
------------------
     ethr =  1.11E-07,  avg # of iterations =  9.4

     total cpu time spent up to now is      193.3 secs

     total energy              =    -723.21772399 Ry
     estimated scf accuracy    <       0.00019363 Ry

     iteration # 20     ecut=    50.00 Ry     beta= 0.30
     Davidson diagonalization with overlap

---- Real-time Memory Report at c_bands before calling an iterative solver
           111 MiB given to the printing process from OS
             0 MiB allocation reported by mallinfo(arena+hblkhd)
         55675 MiB available memory on the node where the printing process lives
------------------
     ethr =  1.11E-07,  avg # of iterations =  1.4

     total cpu time spent up to now is      198.2 secs

     total energy              =    -723.21773360 Ry
     estimated scf accuracy    <       0.00019796 Ry

     iteration # 21     ecut=    50.00 Ry     beta= 0.30
     Davidson diagonalization with overlap

---- Real-time Memory Report at c_bands before calling an iterative solver
           111 MiB given to the printing process from OS
             0 MiB allocation reported by mallinfo(arena+hblkhd)
         55691 MiB available memory on the node where the printing process lives
------------------
     ethr =  1.11E-07,  avg # of iterations =  1.1

     total cpu time spent up to now is      203.0 secs

     total energy              =    -723.21761310 Ry
     estimated scf accuracy    <       0.00022520 Ry

     iteration # 22     ecut=    50.00 Ry     beta= 0.30
     Davidson diagonalization with overlap

---- Real-time Memory Report at c_bands before calling an iterative solver
           111 MiB given to the printing process from OS
             0 MiB allocation reported by mallinfo(arena+hblkhd)
         55679 MiB available memory on the node where the printing process lives
------------------
     ethr =  1.11E-07,  avg # of iterations =  5.6

     total cpu time spent up to now is      211.7 secs

     total energy              =    -723.21767287 Ry
     estimated scf accuracy    <       0.00001625 Ry

     iteration # 23     ecut=    50.00 Ry     beta= 0.30
     Davidson diagonalization with overlap

---- Real-time Memory Report at c_bands before calling an iterative solver
           111 MiB given to the printing process from OS
             0 MiB allocation reported by mallinfo(arena+hblkhd)
         55684 MiB available memory on the node where the printing process lives
------------------
     ethr =  2.26E-08,  avg # of iterations =  2.2

     total cpu time spent up to now is      216.9 secs

     total energy              =    -723.21767055 Ry
     estimated scf accuracy    <       0.00000634 Ry

     iteration # 24     ecut=    50.00 Ry     beta= 0.30
     Davidson diagonalization with overlap

---- Real-time Memory Report at c_bands before calling an iterative solver
           111 MiB given to the printing process from OS
             0 MiB allocation reported by mallinfo(arena+hblkhd)
         55692 MiB available memory on the node where the printing process lives
------------------
     ethr =  8.80E-09,  avg # of iterations =  5.6

     total cpu time spent up to now is      225.4 secs

     total energy              =    -723.21767366 Ry
     estimated scf accuracy    <       0.00000177 Ry

     iteration # 25     ecut=    50.00 Ry     beta= 0.30
     Davidson diagonalization with overlap

---- Real-time Memory Report at c_bands before calling an iterative solver
           111 MiB given to the printing process from OS
             0 MiB allocation reported by mallinfo(arena+hblkhd)
         55680 MiB available memory on the node where the printing process lives
------------------
     ethr =  2.45E-09,  avg # of iterations =  2.4

     total cpu time spent up to now is      230.9 secs

     total energy              =    -723.21767350 Ry
     estimated scf accuracy    <       0.00000059 Ry

     iteration # 26     ecut=    50.00 Ry     beta= 0.30
     Davidson diagonalization with overlap

---- Real-time Memory Report at c_bands before calling an iterative solver
           111 MiB given to the printing process from OS
             0 MiB allocation reported by mallinfo(arena+hblkhd)
         55688 MiB available memory on the node where the printing process lives
------------------
     ethr =  8.15E-10,  avg # of iterations =  7.0

     total cpu time spent up to now is      240.3 secs

     total energy              =    -723.21767391 Ry
     estimated scf accuracy    <       0.00000025 Ry

     iteration # 27     ecut=    50.00 Ry     beta= 0.30
     Davidson diagonalization with overlap

---- Real-time Memory Report at c_bands before calling an iterative solver
           111 MiB given to the printing process from OS
             0 MiB allocation reported by mallinfo(arena+hblkhd)
         55681 MiB available memory on the node where the printing process lives
------------------
     ethr =  3.54E-10,  avg # of iterations =  1.8

     total cpu time spent up to now is      245.3 secs

     total energy              =    -723.21767382 Ry
     estimated scf accuracy    <       0.00000019 Ry

     iteration # 28     ecut=    50.00 Ry     beta= 0.30
     Davidson diagonalization with overlap

---- Real-time Memory Report at c_bands before calling an iterative solver
           111 MiB given to the printing process from OS
             0 MiB allocation reported by mallinfo(arena+hblkhd)
         55693 MiB available memory on the node where the printing process lives
------------------
     ethr =  2.59E-10,  avg # of iterations =  5.4

     total cpu time spent up to now is      252.6 secs

     End of self-consistent calculation

          k = 0.0000 0.0000 0.0000 (  4519 PWs)   bands (ev):

   -11.8690 -11.6573 -11.6572 -11.4350  -0.1982  -0.1982  -0.1573   0.0015
     0.0015   0.0682   0.0682   0.0682   0.0682   0.1555   0.1555   0.1986
     0.6991   0.6991   0.7674   0.7674   0.7674   0.7674   0.8217   0.8217
     1.0503   2.6737   2.6737   4.5218   4.5218   4.8138   4.8138   4.8138
     4.8138   4.8690   5.1020   5.1020

     occupation numbers 
     1.0000   1.0000   1.0000   1.0000   1.0000   1.0000   1.0000   1.0000
     1.0000   1.0000   1.0000   1.0000   1.0000   1.0000   1.0000   1.0000
     1.0000   1.0000   1.0000   1.0000   1.0000   1.0000   1.0000   1.0000
     1.0000   1.0000   1.0000   1.0000   1.0000   1.0000   1.0000   1.0000
     1.0000   1.0000   1.0000   1.0000

          k = 0.0000 0.0000 0.0478 (  4507 PWs)   bands (ev):

   -11.8620 -11.7130 -11.6008 -11.4428  -0.2067  -0.1696  -0.1614   0.0035
     0.0035   0.0491   0.0491   0.0887   0.0887   0.1522   0.1522   0.1544
     0.7016   0.7016   0.7511   0.7511   0.7829   0.7829   0.8203   0.8203
     1.1331   2.3008   3.0596   4.5318   4.5318   4.6404   4.7386   4.7386
     4.8887   4.8887   5.0922   5.0922

     occupation numbers 
     1.0000   1.0000   1.0000   1.0000   1.0000   1.0000   1.0000   1.0000
     1.0000   1.0000   1.0000   1.0000   1.0000   1.0000   1.0000   1.0000
     1.0000   1.0000   1.0000   1.0000   1.0000   1.0000   1.0000   1.0000
     1.0000   1.0000   1.0000   1.0000   1.0000   1.0000   1.0000   1.0000
     1.0000   1.0000   1.0000   1.0000

          k = 0.0000 0.0000 0.0956 (  4496 PWs)   bands (ev):

   -11.8412 -11.7644 -11.5475 -11.4654  -0.2010  -0.1727  -0.1167   0.0094
     0.0094   0.0326   0.0326   0.0591   0.1091   0.1091   0.1424   0.1424
     0.7090   0.7090   0.7350   0.7350   0.7967   0.7967   0.8156   0.8156
     1.3417   1.9474   3.4542   4.2561   4.5612   4.5612   4.6684   4.6684
     4.9583   4.9583   5.0636   5.0636

     occupation numbers 
     1.0000   1.0000   1.0000   1.0000   1.0000   1.0000   1.0000   1.0000
     1.0000   1.0000   1.0000   1.0000   1.0000   1.0000   1.0000   1.0000
     1.0000   1.0000   1.0000   1.0000   1.0000   1.0000   1.0000   1.0000
     1.0000   1.0000   1.0000   1.0000   1.0000   1.0000   1.0000   1.0000
     1.0000   1.0000   1.0000   1.0000

          k = 0.0000 0.0000-0.1434 (  4442 PWs)   bands (ev):

   -11.8080 -11.8080 -11.5013 -11.5012  -0.1874  -0.1874  -0.0383  -0.0382
     0.0194   0.0194   0.0194   0.0194   0.1278   0.1278   0.1278   0.1278
     0.7209   0.7209   0.7209   0.7209   0.8076   0.8076   0.8076   0.8076
     1.6228   1.6228   3.8547   3.8547   4.6078   4.6078   4.6079   4.6079
     5.0179   5.0179   5.0180   5.0180

     occupation numbers 
     1.0000   1.0000   1.0000   1.0000   1.0000   1.0000   1.0000   1.0000
     1.0000   1.0000   1.0000   1.0000   1.0000   1.0000   1.0000   1.0000
     1.0000   1.0000   1.0000   1.0000   1.0000   1.0000   1.0000   1.0000
     1.0000   1.0000   1.0000   1.0000   1.0000   1.0000   1.0000   1.0000
     1.0000   1.0000   1.0000   1.0000

          k = 0.0000 0.1925 0.0000 (  4494 PWs)   bands (ev):

   -11.7573 -11.5698 -11.5698 -11.3755  -0.1743  -0.1743  -0.0933  -0.0737
     0.0503   0.0960   0.0960   0.1369   0.1369   0.1566   0.2429   0.4031
     0.6566   0.7014   0.7566   0.7566   0.7658   0.7658   0.8256   0.9123
     1.0500   2.6673   2.6674   3.6380   3.9955   4.1925   4.1926   4.2725
     4.6258   4.6259   4.7456   4.9730

     occupation numbers 
     1.0000   1.0000   1.0000   1.0000   1.0000   1.0000   1.0000   1.0000
     1.0000   1.0000   1.0000   1.0000   1.0000   1.0000   1.0000   1.0000
     1.0000   1.0000   1.0000   1.0000   1.0000   1.0000   1.0000   1.0000
     1.0000   1.0000   1.0000   1.0000   1.0000   1.0000   1.0000   1.0000
     1.0000   1.0000   1.0000   1.0000

          k = 0.0000 0.1925 0.0478 (  4502 PWs)   bands (ev):

   -11.7511 -11.6190 -11.5202 -11.3823  -0.1883  -0.1386  -0.1134  -0.0565
     0.0530   0.0730   0.1128   0.1222   0.1485   0.1622   0.2388   0.3506
     0.6613   0.7036   0.7328   0.7496   0.7797   0.7817   0.8236   0.8747
     1.1765   2.3493   2.9693   3.6358   3.9643   4.0734   4.2847   4.3205
     4.5352   4.7161   4.7228   4.9612

     occupation numbers 
     1.0000   1.0000   1.0000   1.0000   1.0000   1.0000   1.0000   1.0000
     1.0000   1.0000   1.0000   1.0000   1.0000   1.0000   1.0000   1.0000
     1.0000   1.0000   1.0000   1.0000   1.0000   1.0000   1.0000   1.0000
     1.0000   1.0000   1.0000   1.0000   1.0000   1.0000   1.0000   1.0000
     1.0000   1.0000   1.0000   1.0000

          k = 0.0000 0.1925 0.0956 (  4505 PWs)   bands (ev):

   -11.7326 -11.6644 -11.4735 -11.4020  -0.1840  -0.1412  -0.0845  -0.0384
     0.0580   0.0609   0.0914   0.1192   0.1513   0.1870   0.2274   0.2543
     0.6728   0.7099   0.7103   0.7341   0.7963   0.8016   0.8179   0.8436
     1.4204   2.0267   3.2425   3.6006   3.9072   3.9735   4.3204   4.4476
     4.4502   4.6590   4.7999   4.9267

     occupation numbers 
     1.0000   1.0000   1.0000   1.0000   1.0000   1.0000   1.0000   1.0000
     1.0000   1.0000   1.0000   1.0000   1.0000   1.0000   1.0000   1.0000
     1.0000   1.0000   1.0000   1.0000   1.0000   1.0000   1.0000   1.0000
     1.0000   1.0000   1.0000   1.0000   1.0000   1.0000   1.0000   1.0000
     1.0000   1.0000   1.0000   1.0000

          k = 0.0000 0.1925-0.1434 (  4486 PWs)   bands (ev):

   -11.7031 -11.7031 -11.4332 -11.4331  -0.1665  -0.1665  -0.0395  -0.0395
     0.0717   0.0717   0.0739   0.0740   0.1887   0.1887   0.2095   0.2096
     0.6894   0.6895   0.7208   0.7209   0.8087   0.8087   0.8221   0.8222
     1.7120   1.7120   3.4663   3.4663   3.9081   3.9081   4.3769   4.3770
     4.5639   4.5639   4.8717   4.8717

     occupation numbers 
     1.0000   1.0000   1.0000   1.0000   1.0000   1.0000   1.0000   1.0000
     1.0000   1.0000   1.0000   1.0000   1.0000   1.0000   1.0000   1.0000
     1.0000   1.0000   1.0000   1.0000   1.0000   1.0000   1.0000   1.0000
     1.0000   1.0000   1.0000   1.0000   1.0000   1.0000   1.0000   1.0000
     1.0000   1.0000   1.0000   1.0000

          k = 0.0000 0.3849 0.0000 (  4524 PWs)   bands (ev):

   -11.5121 -11.3892 -11.3891 -11.2671  -0.1757  -0.1757  -0.1580  -0.0058
     0.1133   0.2621   0.2621   0.2779   0.2779   0.3237   0.4357   0.4726
     0.6881   0.7630   0.7736   0.7736   0.7950   0.7951   0.8378   0.9989
     1.4973   2.1900   2.1901   2.2395   3.0337   3.7037   3.7037   3.7696
     4.2413   4.2413   4.2953   4.6963

     occupation numbers 
     1.0000   1.0000   1.0000   1.0000   1.0000   1.0000   1.0000   1.0000
     1.0000   1.0000   1.0000   1.0000   1.0000   1.0000   1.0000   1.0000
     1.0000   1.0000   1.0000   1.0000   1.0000   1.0000   1.0000   1.0000
     1.0000   1.0000   1.0000   1.0000   1.0000   1.0000   1.0000   1.0000
     1.0000   1.0000   1.0000   1.0000

          k = 0.0000 0.3849 0.0478 (  4514 PWs)   bands (ev):

   -11.5079 -11.4209 -11.3575 -11.2712  -0.1950  -0.1629  -0.1404  -0.0095
     0.1180   0.2213   0.2709   0.2940   0.3046   0.3201   0.4295   0.4541
     0.6856   0.7434   0.7641   0.7862   0.8046   0.8062   0.8362   0.9721
     1.5555   2.0740   2.2661   2.2934   3.0256   3.4586   3.7862   3.9258
     4.1216   4.2917   4.3599   4.6809

     occupation numbers 
     1.0000   1.0000   1.0000   1.0000   1.0000   1.0000   1.0000   1.0000
     1.0000   1.0000   1.0000   1.0000   1.0000   1.0000   1.0000   1.0000
     1.0000   1.0000   1.0000   1.0000   1.0000   1.0000   1.0000   1.0000
     1.0000   1.0000   1.0000   1.0000   1.0000   1.0000   1.0000   1.0000
     1.0000   1.0000   1.0000   1.0000

          k = 0.0000 0.3849 0.0956 (  4505 PWs)   bands (ev):

   -11.4956 -11.4506 -11.3280 -11.2833  -0.1984  -0.1756  -0.0953  -0.0235
     0.1320   0.1849   0.2757   0.3087   0.3183   0.3459   0.4061   0.4111
     0.6861   0.7171   0.7671   0.7785   0.8144   0.8310   0.8413   0.9237
     1.6821   1.9508   2.3313   2.3681   3.0205   3.2305   3.8346   4.0088
     4.0993   4.2712   4.4698   4.6357

     occupation numbers 
     1.0000   1.0000   1.0000   1.0000   1.0000   1.0000   1.0000   1.0000
     1.0000   1.0000   1.0000   1.0000   1.0000   1.0000   1.0000   1.0000
     1.0000   1.0000   1.0000   1.0000   1.0000   1.0000   1.0000   1.0000
     1.0000   1.0000   1.0000   1.0000   1.0000   1.0000   1.0000   1.0000
     1.0000   1.0000   1.0000   1.0000

          k = 0.0000 0.3849-0.1434 (  4504 PWs)   bands (ev):

   -11.4761 -11.4760 -11.3027 -11.3027  -0.1899  -0.1898  -0.0527  -0.0526
     0.1546   0.1547   0.2916   0.2916   0.3547   0.3547   0.3824   0.3824
     0.6969   0.6969   0.7720   0.7721   0.8234   0.8235   0.8796   0.8796
     1.8200   1.8201   2.3836   2.3836   3.0741   3.0742   3.9107   3.9108
     4.2131   4.2131   4.5638   4.5638

     occupation numbers 
     1.0000   1.0000   1.0000   1.0000   1.0000   1.0000   1.0000   1.0000
     1.0000   1.0000   1.0000   1.0000   1.0000   1.0000   1.0000   1.0000
     1.0000   1.0000   1.0000   1.0000   1.0000   1.0000   1.0000   1.0000
     1.0000   1.0000   1.0000   1.0000   1.0000   1.0000   1.0000   1.0000
     1.0000   1.0000   1.0000   1.0000

          k = 0.0000-0.5774 0.0000 (  4504 PWs)   bands (ev):

   -11.3634 -11.2959 -11.2958 -11.2327  -0.1623  -0.1623  -0.1141   0.0815
     0.1255   0.2447   0.3111   0.3111   0.4009   0.4010   0.5360   0.6173
     0.8027   0.8302   0.8369   0.8369   0.8569   0.8875   0.8875   0.9265
     1.4282   1.6432   1.6432   2.1420   2.6235   3.5049   3.7130   3.7130
     3.8357   4.0409   4.0410   4.5492

     occupation numbers 
     1.0000   1.0000   1.0000   1.0000   1.0000   1.0000   1.0000   1.0000
     1.0000   1.0000   1.0000   1.0000   1.0000   1.0000   1.0000   1.0000
     1.0000   1.0000   1.0000   1.0000   1.0000   1.0000   1.0000   1.0000
     1.0000   1.0000   1.0000   1.0000   1.0000   1.0000   1.0000   1.0000
     1.0000   1.0000   1.0000   1.0000

          k = 0.0000-0.5774 0.0478 (  4512 PWs)   bands (ev):

   -11.3610 -11.3129 -11.2791 -11.2348  -0.1734  -0.1334  -0.1200   0.0650
     0.1313   0.2500   0.2596   0.3563   0.3654   0.4521   0.5278   0.6163
     0.7973   0.8303   0.8345   0.8398   0.8556   0.8647   0.9041   0.9261
     1.4293   1.5641   1.7371   2.1156   2.6787   3.5144   3.5241   3.8541
     3.8546   3.9064   4.1739   4.5320

     occupation numbers 
     1.0000   1.0000   1.0000   1.0000   1.0000   1.0000   1.0000   1.0000
     1.0000   1.0000   1.0000   1.0000   1.0000   1.0000   1.0000   1.0000
     1.0000   1.0000   1.0000   1.0000   1.0000   1.0000   1.0000   1.0000
     1.0000   1.0000   1.0000   1.0000   1.0000   1.0000   1.0000   1.0000
     1.0000   1.0000   1.0000   1.0000

          k = 0.0000-0.5774 0.0956 (  4514 PWs)   bands (ev):

   -11.3541 -11.3291 -11.2637 -11.2409  -0.1689  -0.1353  -0.0885   0.0224
     0.1485   0.2139   0.2650   0.3189   0.4182   0.5036   0.5080   0.6020
     0.7943   0.8307   0.8327   0.8369   0.8434   0.8521   0.9151   0.9248
     1.4378   1.5029   1.8412   2.0449   2.8293   3.2811   3.5798   3.7787
     3.8977   3.9257   4.2966   4.4816

     occupation numbers 
     1.0000   1.0000   1.0000   1.0000   1.0000   1.0000   1.0000   1.0000
     1.0000   1.0000   1.0000   1.0000   1.0000   1.0000   1.0000   1.0000
     1.0000   1.0000   1.0000   1.0000   1.0000   1.0000   1.0000   1.0000
     1.0000   1.0000   1.0000   1.0000   1.0000   1.0000   1.0000   1.0000
     1.0000   1.0000   1.0000   1.0000

          k = 0.0000-0.5774-0.1434 (  4528 PWs)   bands (ev):

   -11.3432 -11.3432 -11.2507 -11.2507  -0.1540  -0.1540  -0.0332  -0.0332
     0.1762   0.1763   0.2883   0.2883   0.4657   0.4657   0.5623   0.5624
     0.8097   0.8097   0.8314   0.8315   0.8477   0.8477   0.9213   0.9214
     1.4610   1.4610   1.9478   1.9478   3.0420   3.0420   3.6671   3.6671
     3.9327   3.9327   4.4014   4.4014

     occupation numbers 
     1.0000   1.0000   1.0000   1.0000   1.0000   1.0000   1.0000   1.0000
     1.0000   1.0000   1.0000   1.0000   1.0000   1.0000   1.0000   1.0000
     1.0000   1.0000   1.0000   1.0000   1.0000   1.0000   1.0000   1.0000
     1.0000   1.0000   1.0000   1.0000   1.0000   1.0000   1.0000   1.0000
     1.0000   1.0000   1.0000   1.0000

          k = 0.1667 0.2887 0.0000 (  4507 PWs)   bands (ev):

   -11.5780 -11.4354 -11.4354 -11.2917  -0.1400  -0.1400  -0.0751  -0.0043
     0.0347   0.1672   0.1672   0.2292   0.2463   0.2463   0.3826   0.5650
     0.6187   0.7137   0.7558   0.7558   0.7935   0.7935   0.8326   0.9926
     1.3300   2.4387   2.4388   2.9417   2.9691   3.7992   3.7992   3.8062
     4.1642   4.1642   4.4738   4.6211

     occupation numbers 
     1.0000   1.0000   1.0000   1.0000   1.0000   1.0000   1.0000   1.0000
     1.0000   1.0000   1.0000   1.0000   1.0000   1.0000   1.0000   1.0000
     1.0000   1.0000   1.0000   1.0000   1.0000   1.0000   1.0000   1.0000
     1.0000   1.0000   1.0000   1.0000   1.0000   1.0000   1.0000   1.0000
     1.0000   1.0000   1.0000   1.0000

          k = 0.1667 0.2887 0.0478 (  4510 PWs)   bands (ev):

   -11.5731 -11.4724 -11.3983 -11.2966  -0.1551  -0.1069  -0.0863  -0.0052
     0.0440   0.1409   0.1878   0.2250   0.2347   0.2747   0.3771   0.5148
     0.6238   0.7235   0.7256   0.7709   0.8008   0.8039   0.8308   0.9584
     1.4245   2.2644   2.5898   2.9292   2.9946   3.5818   3.8093   3.9651
     4.0995   4.2748   4.4632   4.6047

     occupation numbers 
     1.0000   1.0000   1.0000   1.0000   1.0000   1.0000   1.0000   1.0000
     1.0000   1.0000   1.0000   1.0000   1.0000   1.0000   1.0000   1.0000
     1.0000   1.0000   1.0000   1.0000   1.0000   1.0000   1.0000   1.0000
     1.0000   1.0000   1.0000   1.0000   1.0000   1.0000   1.0000   1.0000
     1.0000   1.0000   1.0000   1.0000

          k = 0.1667 0.2887 0.0956 (  4516 PWs)   bands (ev):

   -11.5589 -11.5068 -11.3637 -11.3110  -0.1524  -0.1105  -0.0641  -0.0104
     0.0648   0.1146   0.1919   0.2139   0.2616   0.3069   0.3616   0.4145
     0.6386   0.6908   0.7420   0.7643   0.8098   0.8260   0.8354   0.9100
     1.6230   2.0662   2.7173   2.8893   3.0716   3.3739   3.8250   3.9281
     4.2203   4.3845   4.4247   4.5568

     occupation numbers 
     1.0000   1.0000   1.0000   1.0000   1.0000   1.0000   1.0000   1.0000
     1.0000   1.0000   1.0000   1.0000   1.0000   1.0000   1.0000   1.0000
     1.0000   1.0000   1.0000   1.0000   1.0000   1.0000   1.0000   1.0000
     1.0000   1.0000   1.0000   1.0000   1.0000   1.0000   1.0000   1.0000
     1.0000   1.0000   1.0000   1.0000

          k = 0.1667 0.2887-0.1434 (  4522 PWs)   bands (ev):

   -11.5364 -11.5363 -11.3339 -11.3338  -0.1355  -0.1355  -0.0283  -0.0283
     0.0892   0.0892   0.1997   0.1997   0.3223   0.3223   0.3372   0.3372
     0.6616   0.6616   0.7543   0.7543   0.8186   0.8186   0.8705   0.8705
     1.8476   1.8476   2.8184   2.8185   3.1995   3.1995   3.8642   3.8642
     4.3455   4.3455   4.4813   4.4814

     occupation numbers 
     1.0000   1.0000   1.0000   1.0000   1.0000   1.0000   1.0000   1.0000
     1.0000   1.0000   1.0000   1.0000   1.0000   1.0000   1.0000   1.0000
     1.0000   1.0000   1.0000   1.0000   1.0000   1.0000   1.0000   1.0000
     1.0000   1.0000   1.0000   1.0000   1.0000   1.0000   1.0000   1.0000
     1.0000   1.0000   1.0000   1.0000

          k = 0.1667 0.4811 0.0000 (  4527 PWs)   bands (ev):

   -11.3682 -11.2973 -11.2972 -11.2305  -0.0872  -0.0765  -0.0764   0.1257
     0.1575   0.2406   0.2406   0.3937   0.4115   0.4115   0.4757   0.5373
     0.6843   0.7351   0.7674   0.7674   0.8880   0.9237   0.9237   1.0424
     1.6475   1.8538   1.8538   2.1377   2.7339   3.0725   3.5184   3.5185
     3.8572   3.8572   3.9159   4.2404

     occupation numbers 
     1.0000   1.0000   1.0000   1.0000   1.0000   1.0000   1.0000   1.0000
     1.0000   1.0000   1.0000   1.0000   1.0000   1.0000   1.0000   1.0000
     1.0000   1.0000   1.0000   1.0000   1.0000   1.0000   1.0000   1.0000
     1.0000   1.0000   1.0000   1.0000   1.0000   1.0000   1.0000   1.0000
     1.0000   1.0000   1.0000   1.0000

          k = 0.1667 0.4811 0.0478 (  4522 PWs)   bands (ev):

   -11.3657 -11.3152 -11.2795 -11.2327  -0.0893  -0.0862  -0.0488   0.1034
     0.1691   0.1975   0.2933   0.3854   0.3966   0.4295   0.4706   0.5271
     0.6819   0.7463   0.7471   0.7809   0.8885   0.9091   0.9439   1.0367
     1.6436   1.7764   1.9379   2.1431   2.7629   3.0980   3.3509   3.6043
     3.7724   3.9294   3.9713   4.2202

     occupation numbers 
     1.0000   1.0000   1.0000   1.0000   1.0000   1.0000   1.0000   1.0000
     1.0000   1.0000   1.0000   1.0000   1.0000   1.0000   1.0000   1.0000
     1.0000   1.0000   1.0000   1.0000   1.0000   1.0000   1.0000   1.0000
     1.0000   1.0000   1.0000   1.0000   1.0000   1.0000   1.0000   1.0000
     1.0000   1.0000   1.0000   1.0000

          k = 0.1667 0.4811 0.0956 (  4526 PWs)   bands (ev):

   -11.3585 -11.3322 -11.2633 -11.2391  -0.0902  -0.0849  -0.0107   0.0674
     0.1718   0.1736   0.3428   0.3698   0.3925   0.4487   0.4547   0.4995
     0.6862   0.7238   0.7654   0.7853   0.8901   0.8994   0.9689   1.0202
     1.6445   1.7119   2.0212   2.1358   2.8552   3.1742   3.1756   3.4671
     3.8695   3.9554   4.0431   4.1646

     occupation numbers 
     1.0000   1.0000   1.0000   1.0000   1.0000   1.0000   1.0000   1.0000
     1.0000   1.0000   1.0000   1.0000   1.0000   1.0000   1.0000   1.0000
     1.0000   1.0000   1.0000   1.0000   1.0000   1.0000   1.0000   1.0000
     1.0000   1.0000   1.0000   1.0000   1.0000   1.0000   1.0000   1.0000
     1.0000   1.0000   1.0000   1.0000

          k = 0.1667 0.4811-0.1434 (  4530 PWs)   bands (ev):

   -11.3470 -11.3470 -11.2496 -11.2495  -0.0864  -0.0864   0.0295   0.0295
     0.1676   0.1676   0.3606   0.3606   0.4225   0.4225   0.4705   0.4705
     0.7017   0.7017   0.7798   0.7798   0.8934   0.8935   0.9959   0.9959
     1.6663   1.6663   2.0924   2.0925   3.0019   3.0020   3.3035   3.3035
     3.9511   3.9512   4.0957   4.0957

     occupation numbers 
     1.0000   1.0000   1.0000   1.0000   1.0000   1.0000   1.0000   1.0000
     1.0000   1.0000   1.0000   1.0000   1.0000   1.0000   1.0000   1.0000
     1.0000   1.0000   1.0000   1.0000   1.0000   1.0000   1.0000   1.0000
     1.0000   1.0000   1.0000   1.0000   1.0000   1.0000   1.0000   1.0000
     1.0000   1.0000   1.0000   1.0000

          k = 0.3333 0.5774 0.0000 (  4527 PWs)   bands (ev):

   -11.2545 -11.2544 -11.2516 -11.2515  -0.1148   0.0817   0.0817   0.1217
     0.1217   0.2755   0.2755   0.5122   0.5750   0.5750   0.6123   0.6123
     0.6490   0.6874   0.6874   0.7133   0.9563   0.9563   1.0434   1.0434
     1.7459   1.7459   1.9381   1.9382   2.1349   2.9853   2.9853   3.3932
     3.3932   3.7936   3.8707   3.8708

     occupation numbers 
     1.0000   1.0000   1.0000   1.0000   1.0000   1.0000   1.0000   1.0000
     1.0000   1.0000   1.0000   1.0000   1.0000   1.0000   1.0000   1.0000
     1.0000   1.0000   1.0000   1.0000   1.0000   1.0000   1.0000   1.0000
     1.0000   1.0000   1.0000   1.0000   1.0000   1.0000   1.0000   1.0000
     1.0000   1.0000   1.0000   1.0000

          k = 0.3333 0.5774 0.0478 (  4542 PWs)   bands (ev):

   -11.2543 -11.2542 -11.2518 -11.2517  -0.1080   0.0520   0.0927   0.0927
     0.1997   0.2593   0.2593   0.4919   0.5799   0.5799   0.6112   0.6112
     0.6520   0.6800   0.6942   0.7125   0.9622   0.9622   1.0376   1.0376
     1.7565   1.7565   1.9220   1.9221   2.1679   2.7779   3.1910   3.4281
     3.4281   3.7649   3.8407   3.8407

     occupation numbers 
     1.0000   1.0000   1.0000   1.0000   1.0000   1.0000   1.0000   1.0000
     1.0000   1.0000   1.0000   1.0000   1.0000   1.0000   1.0000   1.0000
     1.0000   1.0000   1.0000   1.0000   1.0000   1.0000   1.0000   1.0000
     1.0000   1.0000   1.0000   1.0000   1.0000   1.0000   1.0000   1.0000
     1.0000   1.0000   1.0000   1.0000

          k = 0.3333 0.5774 0.0956 (  4539 PWs)   bands (ev):

   -11.2537 -11.2537 -11.2523 -11.2522  -0.0875  -0.0069   0.1237   0.1237
     0.2188   0.2188   0.2825   0.4386   0.5908   0.5908   0.6075   0.6075
     0.6585   0.6726   0.7004   0.7099   0.9786   0.9786   1.0220   1.0220
     1.7867   1.7867   1.8812   1.8813   2.2617   2.5802   3.3836   3.5206
     3.5206   3.6817   3.7576   3.7577

     occupation numbers 
     1.0000   1.0000   1.0000   1.0000   1.0000   1.0000   1.0000   1.0000
     1.0000   1.0000   1.0000   1.0000   1.0000   1.0000   1.0000   1.0000
     1.0000   1.0000   1.0000   1.0000   1.0000   1.0000   1.0000   1.0000
     1.0000   1.0000   1.0000   1.0000   1.0000   1.0000   1.0000   1.0000
     1.0000   1.0000   1.0000   1.0000

          k = 0.3333 0.5774-0.1434 (  4542 PWs)   bands (ev):

   -11.2530 -11.2530 -11.2530 -11.2529  -0.0538  -0.0538   0.1690   0.1690
     0.1691   0.1691   0.3651   0.3651   0.6007   0.6007   0.6008   0.6008
     0.6655   0.6655   0.7058   0.7058   1.0004   1.0005   1.0005   1.0005
     1.8314   1.8314   1.8314   1.8314   2.4038   2.4038   3.5510   3.5511
     3.6414   3.6414   3.6414   3.6415

     occupation numbers 
     1.0000   1.0000   1.0000   1.0000   1.0000   1.0000   1.0000   1.0000
     1.0000   1.0000   1.0000   1.0000   1.0000   1.0000   1.0000   1.0000
     1.0000   1.0000   1.0000   1.0000   1.0000   1.0000   1.0000   1.0000
     1.0000   1.0000   1.0000   1.0000   1.0000   1.0000   1.0000   1.0000
     1.0000   1.0000   1.0000   1.0000

          k = 0.0000-0.1925 0.0478 (  4502 PWs)   bands (ev):

   -11.7511 -11.6190 -11.5202 -11.3823  -0.1883  -0.1387  -0.1134  -0.0565
     0.0530   0.0730   0.1128   0.1222   0.1485   0.1622   0.2388   0.3506
     0.6613   0.7036   0.7328   0.7496   0.7797   0.7817   0.8236   0.8747
     1.1765   2.3493   2.9693   3.6358   3.9643   4.0735   4.2847   4.3205
     4.5352   4.7161   4.7228   4.9612

     occupation numbers 
     1.0000   1.0000   1.0000   1.0000   1.0000   1.0000   1.0000   1.0000
     1.0000   1.0000   1.0000   1.0000   1.0000   1.0000   1.0000   1.0000
     1.0000   1.0000   1.0000   1.0000   1.0000   1.0000   1.0000   1.0000
     1.0000   1.0000   1.0000   1.0000   1.0000   1.0000   1.0000   1.0000
     1.0000   1.0000   1.0000   1.0000

          k = 0.0000-0.1925 0.0956 (  4505 PWs)   bands (ev):

   -11.7326 -11.6644 -11.4735 -11.4020  -0.1840  -0.1412  -0.0845  -0.0384
     0.0580   0.0609   0.0914   0.1192   0.1513   0.1870   0.2274   0.2543
     0.6728   0.7099   0.7103   0.7341   0.7963   0.8016   0.8179   0.8436
     1.4204   2.0267   3.2425   3.6006   3.9072   3.9735   4.3204   4.4476
     4.4502   4.6590   4.7999   4.9267

     occupation numbers 
     1.0000   1.0000   1.0000   1.0000   1.0000   1.0000   1.0000   1.0000
     1.0000   1.0000   1.0000   1.0000   1.0000   1.0000   1.0000   1.0000
     1.0000   1.0000   1.0000   1.0000   1.0000   1.0000   1.0000   1.0000
     1.0000   1.0000   1.0000   1.0000   1.0000   1.0000   1.0000   1.0000
     1.0000   1.0000   1.0000   1.0000

          k = 0.0000-0.3849 0.0478 (  4514 PWs)   bands (ev):

   -11.5079 -11.4209 -11.3575 -11.2712  -0.1950  -0.1629  -0.1404  -0.0095
     0.1180   0.2213   0.2709   0.2940   0.3046   0.3201   0.4295   0.4541
     0.6856   0.7434   0.7641   0.7862   0.8046   0.8062   0.8362   0.9721
     1.5555   2.0740   2.2661   2.2934   3.0256   3.4586   3.7862   3.9257
     4.1216   4.2917   4.3599   4.6809

     occupation numbers 
     1.0000   1.0000   1.0000   1.0000   1.0000   1.0000   1.0000   1.0000
     1.0000   1.0000   1.0000   1.0000   1.0000   1.0000   1.0000   1.0000
     1.0000   1.0000   1.0000   1.0000   1.0000   1.0000   1.0000   1.0000
     1.0000   1.0000   1.0000   1.0000   1.0000   1.0000   1.0000   1.0000
     1.0000   1.0000   1.0000   1.0000

          k = 0.0000-0.3849 0.0956 (  4505 PWs)   bands (ev):

   -11.4956 -11.4506 -11.3280 -11.2833  -0.1984  -0.1756  -0.0953  -0.0235
     0.1320   0.1849   0.2758   0.3087   0.3183   0.3459   0.4061   0.4111
     0.6861   0.7171   0.7671   0.7785   0.8144   0.8310   0.8413   0.9237
     1.6821   1.9508   2.3314   2.3680   3.0205   3.2305   3.8346   4.0088
     4.0993   4.2712   4.4698   4.6357

     occupation numbers 
     1.0000   1.0000   1.0000   1.0000   1.0000   1.0000   1.0000   1.0000
     1.0000   1.0000   1.0000   1.0000   1.0000   1.0000   1.0000   1.0000
     1.0000   1.0000   1.0000   1.0000   1.0000   1.0000   1.0000   1.0000
     1.0000   1.0000   1.0000   1.0000   1.0000   1.0000   1.0000   1.0000
     1.0000   1.0000   1.0000   1.0000

          k =-0.1667-0.4811 0.0478 (  4522 PWs)   bands (ev):

   -11.3657 -11.3152 -11.2795 -11.2327  -0.0893  -0.0862  -0.0489   0.1034
     0.1691   0.1975   0.2933   0.3854   0.3966   0.4295   0.4706   0.5271
     0.6819   0.7463   0.7471   0.7809   0.8885   0.9091   0.9439   1.0367
     1.6436   1.7764   1.9379   2.1431   2.7629   3.0980   3.3509   3.6044
     3.7724   3.9294   3.9713   4.2202

     occupation numbers 
     1.0000   1.0000   1.0000   1.0000   1.0000   1.0000   1.0000   1.0000
     1.0000   1.0000   1.0000   1.0000   1.0000   1.0000   1.0000   1.0000
     1.0000   1.0000   1.0000   1.0000   1.0000   1.0000   1.0000   1.0000
     1.0000   1.0000   1.0000   1.0000   1.0000   1.0000   1.0000   1.0000
     1.0000   1.0000   1.0000   1.0000

          k =-0.1667-0.4811 0.0956 (  4526 PWs)   bands (ev):

   -11.3585 -11.3322 -11.2633 -11.2391  -0.0902  -0.0849  -0.0107   0.0674
     0.1718   0.1736   0.3428   0.3698   0.3925   0.4487   0.4547   0.4995
     0.6862   0.7238   0.7654   0.7853   0.8901   0.8994   0.9689   1.0202
     1.6445   1.7119   2.0212   2.1358   2.8552   3.1742   3.1756   3.4671
     3.8695   3.9555   4.0431   4.1646

     occupation numbers 
     1.0000   1.0000   1.0000   1.0000   1.0000   1.0000   1.0000   1.0000
     1.0000   1.0000   1.0000   1.0000   1.0000   1.0000   1.0000   1.0000
     1.0000   1.0000   1.0000   1.0000   1.0000   1.0000   1.0000   1.0000
     1.0000   1.0000   1.0000   1.0000   1.0000   1.0000   1.0000   1.0000
     1.0000   1.0000   1.0000   1.0000

     highest occupied level (ev):     5.1020

!    total energy              =    -723.21767387 Ry
     estimated scf accuracy    <          6.0E-09 Ry

     The total energy is the sum of the following terms:
     one-electron contribution =    -338.50478795 Ry
     hartree contribution      =     246.95659318 Ry
     xc contribution           =    -218.54722300 Ry
     ewald contribution        =    -413.12225610 Ry

     convergence has been achieved in  28 iterations

     Forces acting on atoms (cartesian axes, Ry/au):

     atom    1 type  1   force =     0.00000000    0.00000000    0.00880166
     atom    2 type  2   force =     0.00000000    0.00000000   -0.00881896
     atom    3 type  1   force =     0.00000000    0.00000000    0.00880778
     atom    4 type  2   force =     0.00000000    0.00000000   -0.00881751
     atom    5 type  1   force =     0.00000000   -0.00000000    0.00883115
     atom    6 type  2   force =     0.00000000    0.00000000   -0.00881552
     atom    7 type  1   force =     0.00000000    0.00000000    0.00882819
     atom    8 type  2   force =     0.00000000    0.00000000   -0.00881679
     The non-local contrib.  to forces
     atom    1 type  1   force =     0.00000000    0.00000000   -0.09950302
     atom    2 type  2   force =     0.00000000   -0.00000000   -0.09148126
     atom    3 type  1   force =     0.00000000    0.00000000   -0.09949982
     atom    4 type  2   force =     0.00000000    0.00000000   -0.09147788
     atom    5 type  1   force =     0.00000000   -0.00000000   -0.09948767
     atom    6 type  2   force =     0.00000000    0.00000000   -0.09148484
     atom    7 type  1   force =     0.00000000    0.00000000   -0.09949749
     atom    8 type  2   force =     0.00000000    0.00000000   -0.09148159
     The ionic contribution  to forces
     atom    1 type  1   force =    -0.00000000    0.00000000   -0.84202705
     atom    2 type  2   force =     0.00000000   -0.00000000    0.84202705
     atom    3 type  1   force =     0.00000000   -0.00000000   -0.84202705
     atom    4 type  2   force =    -0.00000000    0.00000000    0.84202705
     atom    5 type  1   force =    -0.00000000    0.00000000   -0.84202705
     atom    6 type  2   force =     0.00000000   -0.00000000    0.84202705
     atom    7 type  1   force =     0.00000000   -0.00000000   -0.84202705
     atom    8 type  2   force =    -0.00000000    0.00000000    0.84202705
     The local contribution  to forces
     atom    1 type  1   force =    -0.00000000    0.00000000    0.94529252
     atom    2 type  2   force =     0.00000001   -0.00000001   -0.76013902
     atom    3 type  1   force =     0.00000004   -0.00000003    0.94527761
     atom    4 type  2   force =     0.00000000    0.00000000   -0.76014374
     atom    5 type  1   force =     0.00000000    0.00000000    0.94525384
     atom    6 type  2   force =     0.00000001   -0.00000001   -0.76015683
     atom    7 type  1   force =     0.00000004   -0.00000003    0.94525840
     atom    8 type  2   force =    -0.00000000    0.00000000   -0.76014996
     The core correction contribution to forces
     atom    1 type  1   force =     0.00000000   -0.00000000    0.00507388
     atom    2 type  2   force =    -0.00000000    0.00000000    0.00078775
     atom    3 type  1   force =     0.00000001   -0.00000000    0.00507454
     atom    4 type  2   force =     0.00000000   -0.00000000    0.00078769
     atom    5 type  1   force =    -0.00000000   -0.00000000    0.00507402
     atom    6 type  2   force =    -0.00000000    0.00000000    0.00078778
     atom    7 type  1   force =     0.00000001   -0.00000000    0.00507487
     atom    8 type  2   force =     0.00000000   -0.00000000    0.00078773
     The Hubbard contrib.    to forces
     atom    1 type  1   force =     0.00000000    0.00000000    0.00000000
     atom    2 type  2   force =     0.00000000    0.00000000    0.00000000
     atom    3 type  1   force =     0.00000000    0.00000000    0.00000000
     atom    4 type  2   force =     0.00000000    0.00000000    0.00000000
     atom    5 type  1   force =     0.00000000    0.00000000    0.00000000
     atom    6 type  2   force =     0.00000000    0.00000000    0.00000000
     atom    7 type  1   force =     0.00000000    0.00000000    0.00000000
     atom    8 type  2   force =     0.00000000    0.00000000    0.00000000
     The SCF correction term to forces
     atom    1 type  1   force =     0.00000000   -0.00000000   -0.00003858
     atom    2 type  2   force =    -0.00000000    0.00000000   -0.00001738
     atom    3 type  1   force =    -0.00000000    0.00000000   -0.00002140
     atom    4 type  2   force =     0.00000000   -0.00000000   -0.00001453
     atom    5 type  1   force =     0.00000000   -0.00000000    0.00001410
     atom    6 type  2   force =    -0.00000000    0.00000000    0.00000742
     atom    7 type  1   force =    -0.00000000    0.00000000    0.00001555
     atom    8 type  2   force =     0.00000000   -0.00000000   -0.00000393

     Total force =     0.024939     Total SCF correction =     0.000055

     init_run     :      4.15s CPU      4.35s WALL (       1 calls)
     electrons    :    237.39s CPU    247.79s WALL (       1 calls)
     forces       :      1.27s CPU      1.34s WALL (       1 calls)

     Called by init_run:
     wfcinit      :      2.39s CPU      2.49s WALL (       1 calls)
     wfcinit:atom :      0.03s CPU      0.03s WALL (      17 calls)
     wfcinit:wfcr :      2.21s CPU      2.31s WALL (      17 calls)
     potinit      :      0.60s CPU      0.63s WALL (       1 calls)
     hinit0       :      0.96s CPU      0.98s WALL (       1 calls)

     Called by electrons:
     c_bands      :    208.21s CPU    215.23s WALL (      28 calls)
     sum_band     :     23.60s CPU     25.76s WALL (      28 calls)
     v_of_rho     :      2.33s CPU      2.43s WALL (      29 calls)
     v_h          :      0.13s CPU      0.15s WALL (      29 calls)
     v_xc         :      2.27s CPU      2.35s WALL (      30 calls)
     newd         :      2.92s CPU      4.04s WALL (      29 calls)
     mix_rho      :      0.35s CPU      0.38s WALL (      28 calls)

     Called by c_bands:
     init_us_2    :      1.37s CPU      1.40s WALL (     986 calls)
     init_us_2:cp :      1.37s CPU      1.39s WALL (     986 calls)
     cegterg      :    189.18s CPU    196.14s WALL (     476 calls)

     Called by sum_band:
     sum_band:wei :      0.00s CPU      0.00s WALL (      28 calls)
     sum_band:loo :     19.75s CPU     20.77s WALL (      28 calls)
     sum_band:buf :      0.10s CPU      0.10s WALL (     476 calls)
     sum_band:ini :      0.66s CPU      0.66s WALL (     476 calls)
     sum_band:cal :      2.39s CPU      2.43s WALL (     476 calls)
     sum_band:bec :      0.05s CPU      0.05s WALL (     476 calls)
     addusdens    :      3.36s CPU      4.45s WALL (      28 calls)
                                        0.00s GPU  (      28 calls)
     addusd:skk   :      0.03s CPU      0.03s WALL (      56 calls)
                                        0.00s GPU  (      56 calls)

     Called by *egterg:
     cdiaghg      :     13.99s CPU     14.02s WALL (    3196 calls)
     cegterg:over :      9.70s CPU      9.90s WALL (    2720 calls)
     cegterg:upda :      6.14s CPU      6.16s WALL (    2720 calls)
     cegterg:last :     13.96s CPU     13.98s WALL (    1663 calls)
     h_psi        :    133.64s CPU    140.36s WALL (    3213 calls)
     s_psi        :     10.02s CPU     10.04s WALL (    3213 calls)
     g_psi        :      0.58s CPU      0.58s WALL (    2720 calls)

     Called by h_psi:
     h_psi:calbec :      9.48s CPU      9.77s WALL (    3213 calls)
     vloc_psi     :    113.53s CPU    119.92s WALL (    3213 calls)
     add_vuspsi   :     10.26s CPU     10.30s WALL (    3213 calls)

     General routines
     calbec       :     12.19s CPU     12.53s WALL (    3757 calls)
     fft          :      1.54s CPU      1.67s WALL (     386 calls)
     ffts         :      0.21s CPU      0.22s WALL (      57 calls)
     fftw         :    108.52s CPU    114.69s WALL (  144834 calls)
     interpolate  :      0.30s CPU      0.31s WALL (      29 calls)

     Parallel routines

     PWSCF        :   4m 3.27s CPU   4m13.96s WALL


   This run was terminated on:  14:51:18  13Jul2025            

=------------------------------------------------------------------------------=
   JOB DONE.
=------------------------------------------------------------------------------=
Note: The following floating-point exceptions are signalling: IEEE_INVALID_FLAG
Note: The following floating-point exceptions are signalling: IEEE_INVALID_FLAG
