Authorization required, but no authorization protocol specified

Authorization required, but no authorization protocol specified

Authorization required, but no authorization protocol specified

Authorization required, but no authorization protocol specified

Authorization required, but no authorization protocol specified

Authorization required, but no authorization protocol specified

Authorization required, but no authorization protocol specified

Authorization required, but no authorization protocol specified

Authorization required, but no authorization protocol specified

Authorization required, but no authorization protocol specified


     Program PWSCF v.7.2 starts on 13Jul2025 at 16:13: 6 

     This program is part of the open-source Quantum ESPRESSO suite
     for quantum simulation of materials; please cite
         "P. Giannozzi et al., J. Phys.:Condens. Matter 21 395502 (2009);
         "P. Giannozzi et al., J. Phys.:Condens. Matter 29 465901 (2017);
         "P. Giannozzi et al., J. Chem. Phys. 152 154105 (2020);
          URL http://www.quantum-espresso.org", 
     in publications or presentations arising from this work. More details at
     http://www.quantum-espresso.org/quote

     Parallel version (MPI), running on     8 processors

     MPI processes distributed on     1 nodes
     56131 MiB available memory on the printing compute node when the environment starts

     Reading input from /home/jvc/QEspresso7.2/ZnO_database/scripts/cell112.in/ZnO-3.47-1.65-112.in
Warning: card &CELL ignored
Warning: card / ignored
Warning: card &FCP ignored
Warning: card / ignored
Warning: card &RISM ignored
Warning: card / ignored

     Current dimensions of program PWSCF are:
     Max number of different atomic species (ntypx) = 10
     Max number of k-points (npk) =  40000
     Max angular momentum in pseudopotentials (lmaxx) =  4
     file Zn.upf: wavefunction(s)  3D renormalized
     Found identity + (  0.0000  0.0000 -0.5000) symmetry
     This is a supercell, fractional translations are disabled
     Message from routine setup:
     using ibrav=0 with symmetry is DISCOURAGED, use correct ibrav instead

     K-points division:     npool     =       2
     R & G space division:  proc/nbgrp/npool/nimage =       4
     Subspace diagonalization in iterative solution of the eigenvalue problem:
     a serial algorithm will be used


     Parallelization info
     --------------------
     sticks:   dense  smooth     PW     G-vecs:    dense   smooth      PW
     Min         294     145     42                27027     9557    1529
     Max         295     146     43                27030     9574    1534
     Sum        1177     583    169               108113    38275    6125

     Using Slab Decomposition



     bravais-lattice index     =            0
     lattice parameter (alat)  =       6.5496  a.u.
     unit-cell volume          =     801.3129 (a.u.)^3
     number of atoms/cell      =            8
     number of atomic types    =            2
     number of electrons       =        72.00
     number of Kohn-Sham states=           36
     kinetic-energy cutoff     =      50.0000  Ry
     charge density cutoff     =     400.0000  Ry
     scf convergence threshold =      1.0E-08
     mixing beta               =       0.3000
     number of iterations used =            8  plain     mixing
     Exchange-correlation= PBE
                           (   1   4   3   4   0   0   0)

     celldm(1)=   6.549585  celldm(2)=   0.000000  celldm(3)=   0.000000
     celldm(4)=   0.000000  celldm(5)=   0.000000  celldm(6)=   0.000000

     crystal axes: (cart. coord. in units of alat)
               a(1) = (   1.000000   0.000000   0.000000 )  
               a(2) = (  -0.500000   0.866025   0.000000 )  
               a(3) = (   0.000000   0.000000   3.293291 )  

     reciprocal axes: (cart. coord. in units 2 pi/alat)
               b(1) = (  1.000000  0.577350 -0.000000 )  
               b(2) = (  0.000000  1.154701  0.000000 )  
               b(3) = (  0.000000 -0.000000  0.303648 )  


     PseudoPot. # 1 for Zn read from file:
     /home/jvc/QEspresso7.2/ZnO_database/pseudos/Zn.upf
     MD5 check sum: 7f56cabf9682ed8c977c2f7d0c5985c5
     Pseudo is Ultrasoft + core correction, Zval = 12.0
     Generated using &quot;atomic&quot; code by A. Dal Corso  v.6.2.2
     Using radial grid of 1201 points,  6 beta functions with: 
                l(1) =   0
                l(2) =   0
                l(3) =   1
                l(4) =   1
                l(5) =   2
                l(6) =   2
     Q(r) pseudized with 0 coefficients 


     PseudoPot. # 2 for O  read from file:
     /home/jvc/QEspresso7.2/ZnO_database/pseudos/O.upf
     MD5 check sum: 91400c9766925bcf19f520983a725ff0
     Pseudo is Ultrasoft + core correction, Zval =  6.0
     Generated using &quot;atomic&quot; code by A. Dal Corso  v.6.3MaX
     Using radial grid of 1095 points,  4 beta functions with: 
                l(1) =   0
                l(2) =   0
                l(3) =   1
                l(4) =   1
     Q(r) pseudized with 0 coefficients 


     atomic species   valence    mass     pseudopotential
        Zn            12.00    65.38000     Zn( 1.00)
        O              6.00    15.99900     O ( 1.00)

      6 Sym. Ops. (no inversion) found


                                    s                        frac. trans.

      isym =  1     identity                                     

 cryst.   s( 1) = (     1          0          0      )
                  (     0          1          0      )
                  (     0          0          1      )

 cart.    s( 1) = (  1.0000000  0.0000000  0.0000000 )
                  (  0.0000000  1.0000000  0.0000000 )
                  (  0.0000000  0.0000000  1.0000000 )


      isym =  2     120 deg rotation - cryst. axis [0,0,1]       

 cryst.   s( 2) = (     0          1          0      )
                  (    -1         -1          0      )
                  (     0          0          1      )

 cart.    s( 2) = ( -0.5000000 -0.8660254  0.0000000 )
                  (  0.8660254 -0.5000000  0.0000000 )
                  (  0.0000000  0.0000000  1.0000000 )


      isym =  3     120 deg rotation - cryst. axis [0,0,-1]      

 cryst.   s( 3) = (    -1         -1          0      )
                  (     1          0          0      )
                  (     0          0          1      )

 cart.    s( 3) = ( -0.5000000  0.8660254  0.0000000 )
                  ( -0.8660254 -0.5000000  0.0000000 )
                  (  0.0000000  0.0000000  1.0000000 )


      isym =  4     inv. 180 deg rotation - cart. axis [1,0,0]   

 cryst.   s( 4) = (    -1          0          0      )
                  (     1          1          0      )
                  (     0          0          1      )

 cart.    s( 4) = ( -1.0000000  0.0000000  0.0000000 )
                  (  0.0000000  1.0000000  0.0000000 )
                  (  0.0000000  0.0000000  1.0000000 )


      isym =  5     inv. 180 deg rotation - cryst. axis [0,1,0]  

 cryst.   s( 5) = (     1          1          0      )
                  (     0         -1          0      )
                  (     0          0          1      )

 cart.    s( 5) = (  0.5000000  0.8660254  0.0000000 )
                  (  0.8660254 -0.5000000  0.0000000 )
                  (  0.0000000  0.0000000  1.0000000 )


      isym =  6     inv. 180 deg rotation - cryst. axis [1,1,0]  

 cryst.   s( 6) = (     0         -1          0      )
                  (    -1          0          0      )
                  (     0          0          1      )

 cart.    s( 6) = (  0.5000000 -0.8660254  0.0000000 )
                  ( -0.8660254 -0.5000000  0.0000000 )
                  (  0.0000000  0.0000000  1.0000000 )


   Cartesian axes

     site n.     atom                  positions (alat units)
         1           Zn  tau(   1) = (   0.0000000   0.0000000   0.0000000  )
         2           O   tau(   2) = (  -0.0000000   0.5773503   0.2092296  )
         3           Zn  tau(   3) = (  -0.0000000   0.5773503   0.8233228  )
         4           O   tau(   4) = (   0.0000000   0.0000000   1.0325524  )
         5           Zn  tau(   5) = (   0.0000000   0.0000000   1.6466455  )
         6           O   tau(   6) = (  -0.0000000   0.5773503   1.8558752  )
         7           Zn  tau(   7) = (  -0.0000000   0.5773503   2.4699683  )
         8           O   tau(   8) = (   0.0000000   0.0000000   2.6791979  )

   Crystallographic axes

     site n.     atom                  positions (cryst. coord.)
         1           Zn  tau(   1) = (  0.0000000  0.0000000  0.0000000  )
         2           O   tau(   2) = (  0.3333333  0.6666667  0.0635321  )
         3           Zn  tau(   3) = (  0.3333333  0.6666667  0.2500000  )
         4           O   tau(   4) = (  0.0000000  0.0000000  0.3135321  )
         5           Zn  tau(   5) = (  0.0000000  0.0000000  0.5000000  )
         6           O   tau(   6) = (  0.3333333  0.6666667  0.5635321  )
         7           Zn  tau(   7) = (  0.3333333  0.6666667  0.7500000  )
         8           O   tau(   8) = (  0.0000000  0.0000000  0.8135321  )

     number of k points=    34
                       cart. coord. in units 2pi/alat
        k(    1) = (   0.0000000   0.0000000   0.0000000), wk =   0.0092593
        k(    2) = (   0.0000000   0.0000000   0.0506079), wk =   0.0185185
        k(    3) = (   0.0000000   0.0000000   0.1012159), wk =   0.0185185
        k(    4) = (   0.0000000   0.0000000  -0.1518238), wk =   0.0092593
        k(    5) = (   0.0000000   0.1924501   0.0000000), wk =   0.0555556
        k(    6) = (   0.0000000   0.1924501   0.0506079), wk =   0.0555556
        k(    7) = (   0.0000000   0.1924501   0.1012159), wk =   0.0555556
        k(    8) = (   0.0000000   0.1924501  -0.1518238), wk =   0.0555556
        k(    9) = (   0.0000000   0.3849002   0.0000000), wk =   0.0555556
        k(   10) = (   0.0000000   0.3849002   0.0506079), wk =   0.0555556
        k(   11) = (   0.0000000   0.3849002   0.1012159), wk =   0.0555556
        k(   12) = (   0.0000000   0.3849002  -0.1518238), wk =   0.0555556
        k(   13) = (   0.0000000  -0.5773503   0.0000000), wk =   0.0277778
        k(   14) = (   0.0000000  -0.5773503   0.0506079), wk =   0.0555556
        k(   15) = (   0.0000000  -0.5773503   0.1012159), wk =   0.0555556
        k(   16) = (   0.0000000  -0.5773503  -0.1518238), wk =   0.0277778
        k(   17) = (   0.1666667   0.2886751   0.0000000), wk =   0.0555556
        k(   18) = (   0.1666667   0.2886751   0.0506079), wk =   0.1111111
        k(   19) = (   0.1666667   0.2886751   0.1012159), wk =   0.1111111
        k(   20) = (   0.1666667   0.2886751  -0.1518238), wk =   0.0555556
        k(   21) = (   0.1666667   0.4811252   0.0000000), wk =   0.1111111
        k(   22) = (   0.1666667   0.4811252   0.0506079), wk =   0.1111111
        k(   23) = (   0.1666667   0.4811252   0.1012159), wk =   0.1111111
        k(   24) = (   0.1666667   0.4811252  -0.1518238), wk =   0.1111111
        k(   25) = (   0.3333333   0.5773503   0.0000000), wk =   0.0185185
        k(   26) = (   0.3333333   0.5773503   0.0506079), wk =   0.0370370
        k(   27) = (   0.3333333   0.5773503   0.1012159), wk =   0.0370370
        k(   28) = (   0.3333333   0.5773503  -0.1518238), wk =   0.0185185
        k(   29) = (   0.0000000  -0.1924501   0.0506079), wk =   0.0555556
        k(   30) = (   0.0000000  -0.1924501   0.1012159), wk =   0.0555556
        k(   31) = (   0.0000000  -0.3849002   0.0506079), wk =   0.0555556
        k(   32) = (   0.0000000  -0.3849002   0.1012159), wk =   0.0555556
        k(   33) = (  -0.1666667  -0.4811252   0.0506079), wk =   0.1111111
        k(   34) = (  -0.1666667  -0.4811252   0.1012159), wk =   0.1111111

                       cryst. coord.
        k(    1) = (   0.0000000   0.0000000   0.0000000), wk =   0.0092593
        k(    2) = (   0.0000000   0.0000000   0.1666667), wk =   0.0185185
        k(    3) = (   0.0000000   0.0000000   0.3333333), wk =   0.0185185
        k(    4) = (   0.0000000   0.0000000  -0.5000000), wk =   0.0092593
        k(    5) = (   0.0000000   0.1666667   0.0000000), wk =   0.0555556
        k(    6) = (   0.0000000   0.1666667   0.1666667), wk =   0.0555556
        k(    7) = (   0.0000000   0.1666667   0.3333333), wk =   0.0555556
        k(    8) = (   0.0000000   0.1666667  -0.5000000), wk =   0.0555556
        k(    9) = (   0.0000000   0.3333333   0.0000000), wk =   0.0555556
        k(   10) = (   0.0000000   0.3333333   0.1666667), wk =   0.0555556
        k(   11) = (   0.0000000   0.3333333   0.3333333), wk =   0.0555556
        k(   12) = (   0.0000000   0.3333333  -0.5000000), wk =   0.0555556
        k(   13) = (   0.0000000  -0.5000000   0.0000000), wk =   0.0277778
        k(   14) = (   0.0000000  -0.5000000   0.1666667), wk =   0.0555556
        k(   15) = (   0.0000000  -0.5000000   0.3333333), wk =   0.0555556
        k(   16) = (   0.0000000  -0.5000000  -0.5000000), wk =   0.0277778
        k(   17) = (   0.1666667   0.1666667   0.0000000), wk =   0.0555556
        k(   18) = (   0.1666667   0.1666667   0.1666667), wk =   0.1111111
        k(   19) = (   0.1666667   0.1666667   0.3333333), wk =   0.1111111
        k(   20) = (   0.1666667   0.1666667  -0.5000000), wk =   0.0555556
        k(   21) = (   0.1666667   0.3333333   0.0000000), wk =   0.1111111
        k(   22) = (   0.1666667   0.3333333   0.1666667), wk =   0.1111111
        k(   23) = (   0.1666667   0.3333333   0.3333333), wk =   0.1111111
        k(   24) = (   0.1666667   0.3333333  -0.5000000), wk =   0.1111111
        k(   25) = (   0.3333333   0.3333333   0.0000000), wk =   0.0185185
        k(   26) = (   0.3333333   0.3333333   0.1666667), wk =   0.0370370
        k(   27) = (   0.3333333   0.3333333   0.3333333), wk =   0.0370370
        k(   28) = (   0.3333333   0.3333333  -0.5000000), wk =   0.0185185
        k(   29) = (   0.0000000  -0.1666667   0.1666667), wk =   0.0555556
        k(   30) = (   0.0000000  -0.1666667   0.3333333), wk =   0.0555556
        k(   31) = (   0.0000000  -0.3333333   0.1666667), wk =   0.0555556
        k(   32) = (   0.0000000  -0.3333333   0.3333333), wk =   0.0555556
        k(   33) = (  -0.1666667  -0.3333333   0.1666667), wk =   0.1111111
        k(   34) = (  -0.1666667  -0.3333333   0.3333333), wk =   0.1111111

     Dense  grid:   108113 G-vectors     FFT dimensions: (  45,  45, 144)

     Smooth grid:    38275 G-vectors     FFT dimensions: (  30,  30, 100)

     Dynamical RAM for                 wfc:       0.66 MB

     Dynamical RAM for     wfc (w. buffer):      11.83 MB

     Dynamical RAM for           str. fact:       0.82 MB

     Dynamical RAM for           local pot:       0.00 MB

     Dynamical RAM for          nlocal pot:       1.90 MB

     Dynamical RAM for                qrad:       3.21 MB

     Dynamical RAM for          rho,v,vnew:       2.91 MB

     Dynamical RAM for               rhoin:       0.97 MB

     Dynamical RAM for            rho*nmix:       6.60 MB

     Dynamical RAM for           G-vectors:       1.62 MB

     Dynamical RAM for          h,s,v(r/c):       0.24 MB

     Dynamical RAM for          <psi|beta>:       0.06 MB

     Dynamical RAM for                 psi:       1.31 MB

     Dynamical RAM for                hpsi:       1.31 MB

     Dynamical RAM for                spsi:       1.31 MB

     Dynamical RAM for      wfcinit/wfcrot:       1.96 MB

     Dynamical RAM for           addusdens:      39.39 MB

     Dynamical RAM for          addusforce:      40.64 MB

     Estimated static dynamical RAM per process >      27.27 MB

     Estimated max dynamical RAM per process >      74.51 MB

     Estimated total dynamical RAM >     569.67 MB

     Check: negative core charge=   -0.000002

     Initial potential from superposition of free atoms

     starting charge      71.9851, renormalised to      72.0000
     Starting wfcs are   52 randomized atomic wfcs

     total cpu time spent up to now is        4.8 secs

     Self-consistent Calculation

     iteration #  1     ecut=    50.00 Ry     beta= 0.30
     Davidson diagonalization with overlap

---- Real-time Memory Report at c_bands before calling an iterative solver
            89 MiB given to the printing process from OS
             0 MiB allocation reported by mallinfo(arena+hblkhd)
         55766 MiB available memory on the node where the printing process lives
------------------
     ethr =  1.00E-02,  avg # of iterations =  1.4

     total cpu time spent up to now is       10.0 secs

     total energy              =    -722.81334828 Ry
     estimated scf accuracy    <       1.56787774 Ry

     iteration #  2     ecut=    50.00 Ry     beta= 0.30
     Davidson diagonalization with overlap

---- Real-time Memory Report at c_bands before calling an iterative solver
           110 MiB given to the printing process from OS
             0 MiB allocation reported by mallinfo(arena+hblkhd)
         55623 MiB available memory on the node where the printing process lives
------------------
     ethr =  2.18E-03,  avg # of iterations =  2.4

     total cpu time spent up to now is       16.3 secs

     total energy              =    -723.05189589 Ry
     estimated scf accuracy    <       0.17676737 Ry

     iteration #  3     ecut=    50.00 Ry     beta= 0.30
     Davidson diagonalization with overlap

---- Real-time Memory Report at c_bands before calling an iterative solver
           112 MiB given to the printing process from OS
             0 MiB allocation reported by mallinfo(arena+hblkhd)
         55645 MiB available memory on the node where the printing process lives
------------------
     ethr =  2.46E-04,  avg # of iterations =  6.5

     total cpu time spent up to now is       25.9 secs

     total energy              =    -723.06467632 Ry
     estimated scf accuracy    <       0.23175598 Ry

     iteration #  4     ecut=    50.00 Ry     beta= 0.30
     Davidson diagonalization with overlap

---- Real-time Memory Report at c_bands before calling an iterative solver
           112 MiB given to the printing process from OS
             0 MiB allocation reported by mallinfo(arena+hblkhd)
         55646 MiB available memory on the node where the printing process lives
------------------
     ethr =  2.46E-04,  avg # of iterations = 10.0

     total cpu time spent up to now is       40.7 secs

     total energy              =    -723.27608472 Ry
     estimated scf accuracy    <       1.07886374 Ry

     iteration #  5     ecut=    50.00 Ry     beta= 0.30
     Davidson diagonalization with overlap

---- Real-time Memory Report at c_bands before calling an iterative solver
           112 MiB given to the printing process from OS
             0 MiB allocation reported by mallinfo(arena+hblkhd)
         55656 MiB available memory on the node where the printing process lives
------------------
     ethr =  2.46E-04,  avg # of iterations =  2.0

     total cpu time spent up to now is       46.1 secs

     total energy              =    -722.84355545 Ry
     estimated scf accuracy    <       0.72113045 Ry

     iteration #  6     ecut=    50.00 Ry     beta= 0.30
     Davidson diagonalization with overlap

---- Real-time Memory Report at c_bands before calling an iterative solver
           113 MiB given to the printing process from OS
             0 MiB allocation reported by mallinfo(arena+hblkhd)
         55654 MiB available memory on the node where the printing process lives
------------------
     ethr =  2.46E-04,  avg # of iterations =  8.9

     total cpu time spent up to now is       57.5 secs

     total energy              =    -723.20551063 Ry
     estimated scf accuracy    <       0.50234315 Ry

     iteration #  7     ecut=    50.00 Ry     beta= 0.30
     Davidson diagonalization with overlap

---- Real-time Memory Report at c_bands before calling an iterative solver
           113 MiB given to the printing process from OS
             0 MiB allocation reported by mallinfo(arena+hblkhd)
         55648 MiB available memory on the node where the printing process lives
------------------
     ethr =  2.46E-04,  avg # of iterations =  2.0

     total cpu time spent up to now is       62.9 secs

     total energy              =    -723.18982452 Ry
     estimated scf accuracy    <       0.28763197 Ry

     iteration #  8     ecut=    50.00 Ry     beta= 0.30
     Davidson diagonalization with overlap

---- Real-time Memory Report at c_bands before calling an iterative solver
           113 MiB given to the printing process from OS
             0 MiB allocation reported by mallinfo(arena+hblkhd)
         55621 MiB available memory on the node where the printing process lives
------------------
     ethr =  2.46E-04,  avg # of iterations =  2.0

     total cpu time spent up to now is       68.6 secs

     total energy              =    -723.20062719 Ry
     estimated scf accuracy    <       0.17209484 Ry

     iteration #  9     ecut=    50.00 Ry     beta= 0.30
     Davidson diagonalization with overlap

---- Real-time Memory Report at c_bands before calling an iterative solver
           113 MiB given to the printing process from OS
             0 MiB allocation reported by mallinfo(arena+hblkhd)
         55648 MiB available memory on the node where the printing process lives
------------------
     ethr =  2.39E-04,  avg # of iterations =  1.0

     total cpu time spent up to now is       73.4 secs

     total energy              =    -723.20544132 Ry
     estimated scf accuracy    <       0.15609192 Ry

     iteration # 10     ecut=    50.00 Ry     beta= 0.30
     Davidson diagonalization with overlap

---- Real-time Memory Report at c_bands before calling an iterative solver
           114 MiB given to the printing process from OS
             0 MiB allocation reported by mallinfo(arena+hblkhd)
         55637 MiB available memory on the node where the printing process lives
------------------
     ethr =  2.17E-04,  avg # of iterations =  1.1

     total cpu time spent up to now is       78.3 secs

     total energy              =    -723.18988264 Ry
     estimated scf accuracy    <       0.13767752 Ry

     iteration # 11     ecut=    50.00 Ry     beta= 0.30
     Davidson diagonalization with overlap

---- Real-time Memory Report at c_bands before calling an iterative solver
           114 MiB given to the printing process from OS
             0 MiB allocation reported by mallinfo(arena+hblkhd)
         55627 MiB available memory on the node where the printing process lives
------------------
     ethr =  1.91E-04,  avg # of iterations =  1.4

     total cpu time spent up to now is       83.4 secs

     total energy              =    -723.19029512 Ry
     estimated scf accuracy    <       0.08738934 Ry

     iteration # 12     ecut=    50.00 Ry     beta= 0.30
     Davidson diagonalization with overlap

---- Real-time Memory Report at c_bands before calling an iterative solver
           114 MiB given to the printing process from OS
             0 MiB allocation reported by mallinfo(arena+hblkhd)
         55632 MiB available memory on the node where the printing process lives
------------------
     ethr =  1.21E-04,  avg # of iterations =  1.1

     total cpu time spent up to now is       88.3 secs

     total energy              =    -723.18727737 Ry
     estimated scf accuracy    <       0.07883775 Ry

     iteration # 13     ecut=    50.00 Ry     beta= 0.30
     Davidson diagonalization with overlap

---- Real-time Memory Report at c_bands before calling an iterative solver
           114 MiB given to the printing process from OS
             0 MiB allocation reported by mallinfo(arena+hblkhd)
         55628 MiB available memory on the node where the printing process lives
------------------
     ethr =  1.09E-04,  avg # of iterations =  1.0

     total cpu time spent up to now is       93.2 secs

     total energy              =    -723.15502487 Ry
     estimated scf accuracy    <       0.06042515 Ry

     iteration # 14     ecut=    50.00 Ry     beta= 0.30
     Davidson diagonalization with overlap

---- Real-time Memory Report at c_bands before calling an iterative solver
           114 MiB given to the printing process from OS
             0 MiB allocation reported by mallinfo(arena+hblkhd)
         55629 MiB available memory on the node where the printing process lives
------------------
     ethr =  8.39E-05,  avg # of iterations =  7.0

     total cpu time spent up to now is      102.9 secs

     total energy              =    -723.20607447 Ry
     estimated scf accuracy    <       0.03170234 Ry

     iteration # 15     ecut=    50.00 Ry     beta= 0.30
     Davidson diagonalization with overlap

---- Real-time Memory Report at c_bands before calling an iterative solver
           114 MiB given to the printing process from OS
             0 MiB allocation reported by mallinfo(arena+hblkhd)
         55641 MiB available memory on the node where the printing process lives
------------------
     ethr =  4.40E-05,  avg # of iterations =  3.0

     total cpu time spent up to now is      108.6 secs

     total energy              =    -723.19818872 Ry
     estimated scf accuracy    <       0.06470684 Ry

     iteration # 16     ecut=    50.00 Ry     beta= 0.30
     Davidson diagonalization with overlap

---- Real-time Memory Report at c_bands before calling an iterative solver
           114 MiB given to the printing process from OS
             0 MiB allocation reported by mallinfo(arena+hblkhd)
         55644 MiB available memory on the node where the printing process lives
------------------
     ethr =  4.40E-05,  avg # of iterations =  1.3

     total cpu time spent up to now is      113.7 secs

     total energy              =    -723.18880012 Ry
     estimated scf accuracy    <       0.04860505 Ry

     iteration # 17     ecut=    50.00 Ry     beta= 0.30
     Davidson diagonalization with overlap

---- Real-time Memory Report at c_bands before calling an iterative solver
           114 MiB given to the printing process from OS
             0 MiB allocation reported by mallinfo(arena+hblkhd)
         55632 MiB available memory on the node where the printing process lives
------------------
     ethr =  4.40E-05,  avg # of iterations =  1.2

     total cpu time spent up to now is      118.7 secs

     total energy              =    -723.18641892 Ry
     estimated scf accuracy    <       0.02800932 Ry

     iteration # 18     ecut=    50.00 Ry     beta= 0.30
     Davidson diagonalization with overlap

---- Real-time Memory Report at c_bands before calling an iterative solver
           114 MiB given to the printing process from OS
             0 MiB allocation reported by mallinfo(arena+hblkhd)
         55643 MiB available memory on the node where the printing process lives
------------------
     ethr =  3.89E-05,  avg # of iterations =  1.9

     total cpu time spent up to now is      124.0 secs

     total energy              =    -723.17942308 Ry
     estimated scf accuracy    <       0.01579209 Ry

     iteration # 19     ecut=    50.00 Ry     beta= 0.30
     Davidson diagonalization with overlap

---- Real-time Memory Report at c_bands before calling an iterative solver
           114 MiB given to the printing process from OS
             0 MiB allocation reported by mallinfo(arena+hblkhd)
         55653 MiB available memory on the node where the printing process lives
------------------
     ethr =  2.19E-05,  avg # of iterations =  5.5

     total cpu time spent up to now is      132.2 secs

     total energy              =    -723.18891439 Ry
     estimated scf accuracy    <       0.00541755 Ry

     iteration # 20     ecut=    50.00 Ry     beta= 0.30
     Davidson diagonalization with overlap

---- Real-time Memory Report at c_bands before calling an iterative solver
           114 MiB given to the printing process from OS
             0 MiB allocation reported by mallinfo(arena+hblkhd)
         55637 MiB available memory on the node where the printing process lives
------------------
     ethr =  7.52E-06,  avg # of iterations =  1.9

     total cpu time spent up to now is      137.5 secs

     total energy              =    -723.18972514 Ry
     estimated scf accuracy    <       0.00711928 Ry

     iteration # 21     ecut=    50.00 Ry     beta= 0.30
     Davidson diagonalization with overlap

---- Real-time Memory Report at c_bands before calling an iterative solver
           114 MiB given to the printing process from OS
             0 MiB allocation reported by mallinfo(arena+hblkhd)
         55630 MiB available memory on the node where the printing process lives
------------------
     ethr =  7.52E-06,  avg # of iterations =  1.7

     total cpu time spent up to now is      142.7 secs

     total energy              =    -723.19054554 Ry
     estimated scf accuracy    <       0.00984947 Ry

     iteration # 22     ecut=    50.00 Ry     beta= 0.30
     Davidson diagonalization with overlap

---- Real-time Memory Report at c_bands before calling an iterative solver
           114 MiB given to the printing process from OS
             0 MiB allocation reported by mallinfo(arena+hblkhd)
         55621 MiB available memory on the node where the printing process lives
------------------
     ethr =  7.52E-06,  avg # of iterations =  1.8

     total cpu time spent up to now is      147.9 secs

     total energy              =    -723.18809221 Ry
     estimated scf accuracy    <       0.01247523 Ry

     iteration # 23     ecut=    50.00 Ry     beta= 0.30
     Davidson diagonalization with overlap

---- Real-time Memory Report at c_bands before calling an iterative solver
           114 MiB given to the printing process from OS
             0 MiB allocation reported by mallinfo(arena+hblkhd)
         55646 MiB available memory on the node where the printing process lives
------------------
     ethr =  7.52E-06,  avg # of iterations =  1.1

     total cpu time spent up to now is      152.9 secs

     total energy              =    -723.18913952 Ry
     estimated scf accuracy    <       0.00813317 Ry

     iteration # 24     ecut=    50.00 Ry     beta= 0.30
     Davidson diagonalization with overlap

---- Real-time Memory Report at c_bands before calling an iterative solver
           114 MiB given to the printing process from OS
             0 MiB allocation reported by mallinfo(arena+hblkhd)
         55637 MiB available memory on the node where the printing process lives
------------------
     ethr =  7.52E-06,  avg # of iterations =  1.0

     total cpu time spent up to now is      157.8 secs

     total energy              =    -723.18866530 Ry
     estimated scf accuracy    <       0.00975844 Ry

     iteration # 25     ecut=    50.00 Ry     beta= 0.30
     Davidson diagonalization with overlap

---- Real-time Memory Report at c_bands before calling an iterative solver
           114 MiB given to the printing process from OS
             0 MiB allocation reported by mallinfo(arena+hblkhd)
         55640 MiB available memory on the node where the printing process lives
------------------
     ethr =  7.52E-06,  avg # of iterations =  1.0

     total cpu time spent up to now is      162.8 secs

     total energy              =    -723.18715767 Ry
     estimated scf accuracy    <       0.00883893 Ry

     iteration # 26     ecut=    50.00 Ry     beta= 0.30
     Davidson diagonalization with overlap

---- Real-time Memory Report at c_bands before calling an iterative solver
           114 MiB given to the printing process from OS
             0 MiB allocation reported by mallinfo(arena+hblkhd)
         55641 MiB available memory on the node where the printing process lives
------------------
     ethr =  7.52E-06,  avg # of iterations =  1.4

     total cpu time spent up to now is      167.8 secs

     total energy              =    -723.18585412 Ry
     estimated scf accuracy    <       0.00497639 Ry

     iteration # 27     ecut=    50.00 Ry     beta= 0.30
     Davidson diagonalization with overlap

---- Real-time Memory Report at c_bands before calling an iterative solver
           114 MiB given to the printing process from OS
             0 MiB allocation reported by mallinfo(arena+hblkhd)
         55629 MiB available memory on the node where the printing process lives
------------------
     ethr =  6.91E-06,  avg # of iterations =  2.2

     total cpu time spent up to now is      173.7 secs

     total energy              =    -723.18610956 Ry
     estimated scf accuracy    <       0.00054915 Ry

     iteration # 28     ecut=    50.00 Ry     beta= 0.30
     Davidson diagonalization with overlap

---- Real-time Memory Report at c_bands before calling an iterative solver
           114 MiB given to the printing process from OS
             0 MiB allocation reported by mallinfo(arena+hblkhd)
         55647 MiB available memory on the node where the printing process lives
------------------
     c_bands:  1 eigenvalues not converged
     ethr =  7.63E-07,  avg # of iterations = 11.4

     total cpu time spent up to now is      188.4 secs

     total energy              =    -723.18524014 Ry
     estimated scf accuracy    <       0.00700668 Ry

     iteration # 29     ecut=    50.00 Ry     beta= 0.30
     Davidson diagonalization with overlap

---- Real-time Memory Report at c_bands before calling an iterative solver
           114 MiB given to the printing process from OS
             0 MiB allocation reported by mallinfo(arena+hblkhd)
         55645 MiB available memory on the node where the printing process lives
------------------
     ethr =  7.63E-07,  avg # of iterations = 10.4

     total cpu time spent up to now is      202.6 secs

     total energy              =    -723.18683247 Ry
     estimated scf accuracy    <       0.00020164 Ry

     iteration # 30     ecut=    50.00 Ry     beta= 0.30
     Davidson diagonalization with overlap

---- Real-time Memory Report at c_bands before calling an iterative solver
           114 MiB given to the printing process from OS
             0 MiB allocation reported by mallinfo(arena+hblkhd)
         55639 MiB available memory on the node where the printing process lives
------------------
     ethr =  2.80E-07,  avg # of iterations =  1.7

     total cpu time spent up to now is      207.8 secs

     total energy              =    -723.18675541 Ry
     estimated scf accuracy    <       0.00010313 Ry

     iteration # 31     ecut=    50.00 Ry     beta= 0.30
     Davidson diagonalization with overlap

---- Real-time Memory Report at c_bands before calling an iterative solver
           114 MiB given to the printing process from OS
             0 MiB allocation reported by mallinfo(arena+hblkhd)
         55633 MiB available memory on the node where the printing process lives
------------------
     ethr =  1.43E-07,  avg # of iterations =  8.6

     total cpu time spent up to now is      219.9 secs

     total energy              =    -723.18672266 Ry
     estimated scf accuracy    <       0.00052249 Ry

     iteration # 32     ecut=    50.00 Ry     beta= 0.30
     Davidson diagonalization with overlap

---- Real-time Memory Report at c_bands before calling an iterative solver
           114 MiB given to the printing process from OS
             0 MiB allocation reported by mallinfo(arena+hblkhd)
         55639 MiB available memory on the node where the printing process lives
------------------
     ethr =  1.43E-07,  avg # of iterations =  6.7

     total cpu time spent up to now is      229.8 secs

     total energy              =    -723.18683374 Ry
     estimated scf accuracy    <       0.00000510 Ry

     iteration # 33     ecut=    50.00 Ry     beta= 0.30
     Davidson diagonalization with overlap

---- Real-time Memory Report at c_bands before calling an iterative solver
           114 MiB given to the printing process from OS
             0 MiB allocation reported by mallinfo(arena+hblkhd)
         55647 MiB available memory on the node where the printing process lives
------------------
     ethr =  7.09E-09,  avg # of iterations =  5.6

     total cpu time spent up to now is      237.0 secs

     total energy              =    -723.18683287 Ry
     estimated scf accuracy    <       0.00000666 Ry

     iteration # 34     ecut=    50.00 Ry     beta= 0.30
     Davidson diagonalization with overlap

---- Real-time Memory Report at c_bands before calling an iterative solver
           114 MiB given to the printing process from OS
             0 MiB allocation reported by mallinfo(arena+hblkhd)
         55637 MiB available memory on the node where the printing process lives
------------------
     ethr =  7.09E-09,  avg # of iterations =  2.5

     total cpu time spent up to now is      242.4 secs

     total energy              =    -723.18683128 Ry
     estimated scf accuracy    <       0.00000238 Ry

     iteration # 35     ecut=    50.00 Ry     beta= 0.30
     Davidson diagonalization with overlap

---- Real-time Memory Report at c_bands before calling an iterative solver
           114 MiB given to the printing process from OS
             0 MiB allocation reported by mallinfo(arena+hblkhd)
         55812 MiB available memory on the node where the printing process lives
------------------
     ethr =  3.31E-09,  avg # of iterations =  9.4

     total cpu time spent up to now is      255.2 secs

     total energy              =    -723.18683219 Ry
     estimated scf accuracy    <       0.00001284 Ry

     iteration # 36     ecut=    50.00 Ry     beta= 0.30
     Davidson diagonalization with overlap

---- Real-time Memory Report at c_bands before calling an iterative solver
           114 MiB given to the printing process from OS
             0 MiB allocation reported by mallinfo(arena+hblkhd)
         55835 MiB available memory on the node where the printing process lives
------------------
     ethr =  3.31E-09,  avg # of iterations =  5.7

     total cpu time spent up to now is      263.6 secs

     total energy              =    -723.18683338 Ry
     estimated scf accuracy    <       0.00000072 Ry

     iteration # 37     ecut=    50.00 Ry     beta= 0.30
     Davidson diagonalization with overlap

---- Real-time Memory Report at c_bands before calling an iterative solver
           114 MiB given to the printing process from OS
             0 MiB allocation reported by mallinfo(arena+hblkhd)
         55629 MiB available memory on the node where the printing process lives
------------------
     ethr =  9.98E-10,  avg # of iterations =  4.2

     total cpu time spent up to now is      269.9 secs

     total energy              =    -723.18683339 Ry
     estimated scf accuracy    <       0.00000020 Ry

     iteration # 38     ecut=    50.00 Ry     beta= 0.30
     Davidson diagonalization with overlap

---- Real-time Memory Report at c_bands before calling an iterative solver
           114 MiB given to the printing process from OS
             0 MiB allocation reported by mallinfo(arena+hblkhd)
         55641 MiB available memory on the node where the printing process lives
------------------
     ethr =  2.74E-10,  avg # of iterations =  7.2

     total cpu time spent up to now is      279.7 secs

     total energy              =    -723.18683354 Ry
     estimated scf accuracy    <       0.00000008 Ry

     iteration # 39     ecut=    50.00 Ry     beta= 0.30
     Davidson diagonalization with overlap

---- Real-time Memory Report at c_bands before calling an iterative solver
           114 MiB given to the printing process from OS
             0 MiB allocation reported by mallinfo(arena+hblkhd)
         55651 MiB available memory on the node where the printing process lives
------------------
     ethr =  1.09E-10,  avg # of iterations =  1.7

     total cpu time spent up to now is      284.8 secs

     total energy              =    -723.18683351 Ry
     estimated scf accuracy    <       0.00000004 Ry

     iteration # 40     ecut=    50.00 Ry     beta= 0.30
     Davidson diagonalization with overlap

---- Real-time Memory Report at c_bands before calling an iterative solver
           114 MiB given to the printing process from OS
             0 MiB allocation reported by mallinfo(arena+hblkhd)
         55642 MiB available memory on the node where the printing process lives
------------------
     ethr =  6.00E-11,  avg # of iterations =  6.6

     total cpu time spent up to now is      294.7 secs

     total energy              =    -723.18683353 Ry
     estimated scf accuracy    <       0.00000007 Ry

     iteration # 41     ecut=    50.00 Ry     beta= 0.30
     Davidson diagonalization with overlap

---- Real-time Memory Report at c_bands before calling an iterative solver
           114 MiB given to the printing process from OS
             0 MiB allocation reported by mallinfo(arena+hblkhd)
         55662 MiB available memory on the node where the printing process lives
------------------
     ethr =  6.00E-11,  avg # of iterations =  1.3

     total cpu time spent up to now is      299.7 secs

     total energy              =    -723.18683352 Ry
     estimated scf accuracy    <       0.00000003 Ry

     iteration # 42     ecut=    50.00 Ry     beta= 0.30
     Davidson diagonalization with overlap

---- Real-time Memory Report at c_bands before calling an iterative solver
           114 MiB given to the printing process from OS
             0 MiB allocation reported by mallinfo(arena+hblkhd)
         55645 MiB available memory on the node where the printing process lives
------------------
     ethr =  4.25E-11,  avg # of iterations =  5.7

     total cpu time spent up to now is      308.3 secs

     total energy              =    -723.18683354 Ry
     estimated scf accuracy    <       0.00000001 Ry

     iteration # 43     ecut=    50.00 Ry     beta= 0.30
     Davidson diagonalization with overlap

---- Real-time Memory Report at c_bands before calling an iterative solver
           114 MiB given to the printing process from OS
             0 MiB allocation reported by mallinfo(arena+hblkhd)
         55650 MiB available memory on the node where the printing process lives
------------------
     ethr =  1.72E-11,  avg # of iterations =  1.9

     total cpu time spent up to now is      313.5 secs

     total energy              =    -723.18683353 Ry
     estimated scf accuracy    <       0.00000002 Ry

     iteration # 44     ecut=    50.00 Ry     beta= 0.30
     Davidson diagonalization with overlap

---- Real-time Memory Report at c_bands before calling an iterative solver
           114 MiB given to the printing process from OS
             0 MiB allocation reported by mallinfo(arena+hblkhd)
         55640 MiB available memory on the node where the printing process lives
------------------
     ethr =  1.72E-11,  avg # of iterations =  1.1

     total cpu time spent up to now is      318.4 secs

     End of self-consistent calculation

          k = 0.0000 0.0000 0.0000 (  4843 PWs)   bands (ev):

   -12.2440 -12.0377 -12.0377 -11.8237  -0.6257  -0.6257  -0.6123  -0.5824
    -0.5824  -0.5306  -0.5306  -0.5306  -0.5306  -0.4518  -0.4518  -0.0418
     0.0386   0.0386   0.1082   0.1082   0.1082   0.1082   0.1579   0.1579
     0.5134   2.2093   2.2093   3.8091   3.8091   4.0915   4.0915   4.0915
     4.0915   4.2943   4.3681   4.3681

     occupation numbers 
     1.0000   1.0000   1.0000   1.0000   1.0000   1.0000   1.0000   1.0000
     1.0000   1.0000   1.0000   1.0000   1.0000   1.0000   1.0000   1.0000
     1.0000   1.0000   1.0000   1.0000   1.0000   1.0000   1.0000   1.0000
     1.0000   1.0000   1.0000   1.0000   1.0000   1.0000   1.0000   1.0000
     1.0000   1.0000   1.0000   1.0000

          k = 0.0000 0.0000 0.0506 (  4825 PWs)   bands (ev):

   -12.2371 -12.0919 -11.9831 -11.8312  -0.6453  -0.6158  -0.5813  -0.5810
    -0.5810  -0.5463  -0.5463  -0.5130  -0.5130  -0.4550  -0.4550  -0.1216
     0.0414   0.0414   0.0917   0.0917   0.1232   0.1232   0.1568   0.1568
     0.6281   1.8535   2.5714   3.8188   3.8188   4.0189   4.0189   4.0572
     4.1636   4.1636   4.3588   4.3588

     occupation numbers 
     1.0000   1.0000   1.0000   1.0000   1.0000   1.0000   1.0000   1.0000
     1.0000   1.0000   1.0000   1.0000   1.0000   1.0000   1.0000   1.0000
     1.0000   1.0000   1.0000   1.0000   1.0000   1.0000   1.0000   1.0000
     1.0000   1.0000   1.0000   1.0000   1.0000   1.0000   1.0000   1.0000
     1.0000   1.0000   1.0000   1.0000

          k = 0.0000 0.0000 0.1012 (  4830 PWs)   bands (ev):

   -12.2168 -12.1418 -11.9317 -11.8529  -0.6470  -0.6257  -0.5769  -0.5769
    -0.5596  -0.5596  -0.5076  -0.4949  -0.4949  -0.4640  -0.4640  -0.2668
     0.0490   0.0490   0.0755   0.0755   0.1358   0.1358   0.1528   0.1528
     0.8764   1.5075   2.9385   3.6874   3.8473   3.8473   3.9510   3.9510
     4.2305   4.2305   4.3314   4.3314

     occupation numbers 
     1.0000   1.0000   1.0000   1.0000   1.0000   1.0000   1.0000   1.0000
     1.0000   1.0000   1.0000   1.0000   1.0000   1.0000   1.0000   1.0000
     1.0000   1.0000   1.0000   1.0000   1.0000   1.0000   1.0000   1.0000
     1.0000   1.0000   1.0000   1.0000   1.0000   1.0000   1.0000   1.0000
     1.0000   1.0000   1.0000   1.0000

          k = 0.0000 0.0000-0.1518 (  4812 PWs)   bands (ev):

   -12.1844 -12.1844 -11.8872 -11.8872  -0.6379  -0.6379  -0.5697  -0.5697
    -0.5697  -0.5697  -0.4779  -0.4779  -0.4779  -0.4779  -0.4016  -0.4016
     0.0608   0.0608   0.0608   0.0608   0.1458   0.1458   0.1458   0.1458
     1.1780   1.1781   3.3108   3.3108   3.8924   3.8924   3.8924   3.8924
     4.2877   4.2877   4.2877   4.2877

     occupation numbers 
     1.0000   1.0000   1.0000   1.0000   1.0000   1.0000   1.0000   1.0000
     1.0000   1.0000   1.0000   1.0000   1.0000   1.0000   1.0000   1.0000
     1.0000   1.0000   1.0000   1.0000   1.0000   1.0000   1.0000   1.0000
     1.0000   1.0000   1.0000   1.0000   1.0000   1.0000   1.0000   1.0000
     1.0000   1.0000   1.0000   1.0000

          k = 0.0000 0.1925 0.0000 (  4807 PWs)   bands (ev):

   -12.1519 -11.9689 -11.9689 -11.7817  -0.6483  -0.6483  -0.6293  -0.5563
    -0.5325  -0.4703  -0.4703  -0.4643  -0.4643  -0.4300  -0.3717  -0.0467
     0.0060   0.0396   0.1071   0.1071   0.1092   0.1092   0.1634   0.2746
     0.6475   2.1422   2.1422   2.9839   3.2966   3.5626   3.5953   3.5954
     3.9039   3.9039   4.1607   4.2378

     occupation numbers 
     1.0000   1.0000   1.0000   1.0000   1.0000   1.0000   1.0000   1.0000
     1.0000   1.0000   1.0000   1.0000   1.0000   1.0000   1.0000   1.0000
     1.0000   1.0000   1.0000   1.0000   1.0000   1.0000   1.0000   1.0000
     1.0000   1.0000   1.0000   1.0000   1.0000   1.0000   1.0000   1.0000
     1.0000   1.0000   1.0000   1.0000

          k = 0.0000 0.1925 0.0506 (  4801 PWs)   bands (ev):

   -12.1457 -12.0166 -11.9208 -11.7882  -0.6671  -0.6340  -0.6116  -0.5548
    -0.5305  -0.4870  -0.4840  -0.4440  -0.4429  -0.4345  -0.3753  -0.0972
     0.0114   0.0422   0.0858   0.0907   0.1229   0.1317   0.1617   0.2381
     0.7622   1.8646   2.4000   2.9816   3.2716   3.4589   3.5744   3.7389
     3.8164   3.9909   4.1422   4.2265

     occupation numbers 
     1.0000   1.0000   1.0000   1.0000   1.0000   1.0000   1.0000   1.0000
     1.0000   1.0000   1.0000   1.0000   1.0000   1.0000   1.0000   1.0000
     1.0000   1.0000   1.0000   1.0000   1.0000   1.0000   1.0000   1.0000
     1.0000   1.0000   1.0000   1.0000   1.0000   1.0000   1.0000   1.0000
     1.0000   1.0000   1.0000   1.0000

          k = 0.0000 0.1925 0.1012 (  4790 PWs)   bands (ev):

   -12.1276 -12.0609 -11.8758 -11.8070  -0.6690  -0.6458  -0.5695  -0.5515
    -0.5247  -0.5012  -0.4896  -0.4480  -0.4214  -0.4012  -0.3856  -0.2108
     0.0237   0.0494   0.0626   0.0747   0.1369   0.1529   0.1567   0.1986
     1.0010   1.5742   2.6314   2.9458   3.2349   3.3418   3.6089   3.7343
     3.8766   4.0716   4.0867   4.1934

     occupation numbers 
     1.0000   1.0000   1.0000   1.0000   1.0000   1.0000   1.0000   1.0000
     1.0000   1.0000   1.0000   1.0000   1.0000   1.0000   1.0000   1.0000
     1.0000   1.0000   1.0000   1.0000   1.0000   1.0000   1.0000   1.0000
     1.0000   1.0000   1.0000   1.0000   1.0000   1.0000   1.0000   1.0000
     1.0000   1.0000   1.0000   1.0000

          k = 0.0000 0.1925-0.1518 (  4780 PWs)   bands (ev):

   -12.0987 -12.0987 -11.8369 -11.8369  -0.6596  -0.6596  -0.5513  -0.5513
    -0.5148  -0.5148  -0.4702  -0.4701  -0.4016  -0.4016  -0.3241  -0.3241
     0.0413   0.0413   0.0607   0.0607   0.1483   0.1483   0.1737   0.1737
     1.2812   1.2812   2.8235   2.8235   3.2589   3.2589   3.6635   3.6635
     3.9960   3.9960   4.1406   4.1406

     occupation numbers 
     1.0000   1.0000   1.0000   1.0000   1.0000   1.0000   1.0000   1.0000
     1.0000   1.0000   1.0000   1.0000   1.0000   1.0000   1.0000   1.0000
     1.0000   1.0000   1.0000   1.0000   1.0000   1.0000   1.0000   1.0000
     1.0000   1.0000   1.0000   1.0000   1.0000   1.0000   1.0000   1.0000
     1.0000   1.0000   1.0000   1.0000

          k = 0.0000 0.3849 0.0000 (  4799 PWs)   bands (ev):

   -11.9484 -11.8277 -11.8277 -11.7097  -0.6625  -0.6625  -0.6489  -0.4888
    -0.4588  -0.3361  -0.3361  -0.2985  -0.2985  -0.2627  -0.1917  -0.0951
     0.0353   0.0888   0.1268   0.1268   0.1370   0.1370   0.1745   0.3232
     1.1081   1.5743   1.5743   1.7271   2.3763   3.0721   3.2640   3.2640
     3.5237   3.5237   3.7451   3.9590

     occupation numbers 
     1.0000   1.0000   1.0000   1.0000   1.0000   1.0000   1.0000   1.0000
     1.0000   1.0000   1.0000   1.0000   1.0000   1.0000   1.0000   1.0000
     1.0000   1.0000   1.0000   1.0000   1.0000   1.0000   1.0000   1.0000
     1.0000   1.0000   1.0000   1.0000   1.0000   1.0000   1.0000   1.0000
     1.0000   1.0000   1.0000   1.0000

          k = 0.0000 0.3849 0.0506 (  4781 PWs)   bands (ev):

   -11.9442 -11.8587 -11.7969 -11.7137  -0.6805  -0.6528  -0.6287  -0.4946
    -0.4549  -0.3698  -0.3023  -0.3009  -0.2836  -0.2655  -0.1968  -0.1091
     0.0327   0.0901   0.1058   0.1165   0.1377   0.1691   0.1726   0.3067
     1.1365   1.4746   1.6731   1.7549   2.3790   3.0163   3.0880   3.4090
     3.4738   3.6373   3.7482   3.9443

     occupation numbers 
     1.0000   1.0000   1.0000   1.0000   1.0000   1.0000   1.0000   1.0000
     1.0000   1.0000   1.0000   1.0000   1.0000   1.0000   1.0000   1.0000
     1.0000   1.0000   1.0000   1.0000   1.0000   1.0000   1.0000   1.0000
     1.0000   1.0000   1.0000   1.0000   1.0000   1.0000   1.0000   1.0000
     1.0000   1.0000   1.0000   1.0000

          k = 0.0000 0.3849 0.1012 (  4778 PWs)   bands (ev):

   -11.9321 -11.8877 -11.7683 -11.7253  -0.6832  -0.6630  -0.5852  -0.5124
    -0.4435  -0.3999  -0.2966  -0.2736  -0.2666  -0.2554  -0.2121  -0.1525
     0.0355   0.0764   0.0937   0.1072   0.1486   0.1670   0.2015   0.2716
     1.2043   1.3785   1.7605   1.8069   2.4161   2.7616   3.1342   3.3010
     3.6257   3.7424   3.7462   3.9011

     occupation numbers 
     1.0000   1.0000   1.0000   1.0000   1.0000   1.0000   1.0000   1.0000
     1.0000   1.0000   1.0000   1.0000   1.0000   1.0000   1.0000   1.0000
     1.0000   1.0000   1.0000   1.0000   1.0000   1.0000   1.0000   1.0000
     1.0000   1.0000   1.0000   1.0000   1.0000   1.0000   1.0000   1.0000
     1.0000   1.0000   1.0000   1.0000

          k = 0.0000 0.3849-0.1518 (  4790 PWs)   bands (ev):

   -11.9128 -11.9128 -11.7440 -11.7439  -0.6753  -0.6753  -0.5434  -0.5434
    -0.4249  -0.4249  -0.2853  -0.2853  -0.2361  -0.2361  -0.2095  -0.2095
     0.0514   0.0514   0.0995   0.0995   0.1587   0.1587   0.2352   0.2352
     1.2878   1.2878   1.8147   1.8147   2.5443   2.5443   3.2071   3.2071
     3.7132   3.7132   3.8323   3.8323

     occupation numbers 
     1.0000   1.0000   1.0000   1.0000   1.0000   1.0000   1.0000   1.0000
     1.0000   1.0000   1.0000   1.0000   1.0000   1.0000   1.0000   1.0000
     1.0000   1.0000   1.0000   1.0000   1.0000   1.0000   1.0000   1.0000
     1.0000   1.0000   1.0000   1.0000   1.0000   1.0000   1.0000   1.0000
     1.0000   1.0000   1.0000   1.0000

          k = 0.0000-0.5774 0.0000 (  4776 PWs)   bands (ev):

   -11.8228 -11.7553 -11.7553 -11.6939  -0.6514  -0.6514  -0.6241  -0.4385
    -0.3705  -0.2804  -0.2804  -0.2280  -0.1567  -0.1567  -0.0936  -0.0254
     0.1286   0.1455   0.1561   0.1561   0.1853   0.2161   0.2161   0.2365
     0.9367   1.0481   1.0481   1.5030   2.1537   2.8177   3.2830   3.2830
     3.3278   3.3278   3.3636   3.8117

     occupation numbers 
     1.0000   1.0000   1.0000   1.0000   1.0000   1.0000   1.0000   1.0000
     1.0000   1.0000   1.0000   1.0000   1.0000   1.0000   1.0000   1.0000
     1.0000   1.0000   1.0000   1.0000   1.0000   1.0000   1.0000   1.0000
     1.0000   1.0000   1.0000   1.0000   1.0000   1.0000   1.0000   1.0000
     1.0000   1.0000   1.0000   1.0000

          k = 0.0000-0.5774 0.0506 (  4772 PWs)   bands (ev):

   -11.8204 -11.7722 -11.7387 -11.6959  -0.6667  -0.6286  -0.6173  -0.4335
    -0.3897  -0.3240  -0.2346  -0.2265  -0.1811  -0.1267  -0.1002  -0.0264
     0.1310   0.1458   0.1527   0.1606   0.1834   0.2012   0.2263   0.2365
     0.9284   0.9823   1.1301   1.4781   2.2138   2.8359   3.0843   3.1995
     3.3851   3.4198   3.4544   3.7954

     occupation numbers 
     1.0000   1.0000   1.0000   1.0000   1.0000   1.0000   1.0000   1.0000
     1.0000   1.0000   1.0000   1.0000   1.0000   1.0000   1.0000   1.0000
     1.0000   1.0000   1.0000   1.0000   1.0000   1.0000   1.0000   1.0000
     1.0000   1.0000   1.0000   1.0000   1.0000   1.0000   1.0000   1.0000
     1.0000   1.0000   1.0000   1.0000

          k = 0.0000-0.5774 0.1012 (  4762 PWs)   bands (ev):

   -11.8134 -11.7883 -11.7238 -11.7017  -0.6660  -0.6404  -0.5658  -0.4392
    -0.4188  -0.3629  -0.2218  -0.1998  -0.1901  -0.1197  -0.0933  -0.0363
     0.1410   0.1466   0.1501   0.1661   0.1786   0.1817   0.2324   0.2365
     0.9149   0.9369   1.2235   1.4117   2.3753   2.8466   2.8888   3.0780
     3.4353   3.4834   3.5714   3.7475

     occupation numbers 
     1.0000   1.0000   1.0000   1.0000   1.0000   1.0000   1.0000   1.0000
     1.0000   1.0000   1.0000   1.0000   1.0000   1.0000   1.0000   1.0000
     1.0000   1.0000   1.0000   1.0000   1.0000   1.0000   1.0000   1.0000
     1.0000   1.0000   1.0000   1.0000   1.0000   1.0000   1.0000   1.0000
     1.0000   1.0000   1.0000   1.0000

          k = 0.0000-0.5774-0.1518 (  4764 PWs)   bands (ev):

   -11.8024 -11.8024 -11.7112 -11.7112  -0.6550  -0.6550  -0.5029  -0.5029
    -0.3949  -0.3949  -0.2133  -0.2133  -0.1505  -0.1505  -0.0607  -0.0607
     0.1481   0.1481   0.1599   0.1599   0.1723   0.1723   0.2355   0.2355
     0.9147   0.9147   1.3212   1.3212   2.5990   2.5990   2.9718   2.9718
     3.4802   3.4802   3.6712   3.6712

     occupation numbers 
     1.0000   1.0000   1.0000   1.0000   1.0000   1.0000   1.0000   1.0000
     1.0000   1.0000   1.0000   1.0000   1.0000   1.0000   1.0000   1.0000
     1.0000   1.0000   1.0000   1.0000   1.0000   1.0000   1.0000   1.0000
     1.0000   1.0000   1.0000   1.0000   1.0000   1.0000   1.0000   1.0000
     1.0000   1.0000   1.0000   1.0000

          k = 0.1667 0.2887 0.0000 (  4805 PWs)   bands (ev):

   -12.0033 -11.8636 -11.8636 -11.7250  -0.6287  -0.6287  -0.5872  -0.5393
    -0.4755  -0.4163  -0.4163  -0.3608  -0.3415  -0.3415  -0.2300  -0.0288
    -0.0226   0.0579   0.1128   0.1128   0.1356   0.1356   0.1705   0.3216
     0.9961   1.8288   1.8288   2.2890   2.3906   3.1014   3.3135   3.3135
     3.4812   3.4812   3.8977   3.8985

     occupation numbers 
     1.0000   1.0000   1.0000   1.0000   1.0000   1.0000   1.0000   1.0000
     1.0000   1.0000   1.0000   1.0000   1.0000   1.0000   1.0000   1.0000
     1.0000   1.0000   1.0000   1.0000   1.0000   1.0000   1.0000   1.0000
     1.0000   1.0000   1.0000   1.0000   1.0000   1.0000   1.0000   1.0000
     1.0000   1.0000   1.0000   1.0000

          k = 0.1667 0.2887 0.0506 (  4793 PWs)   bands (ev):

   -11.9985 -11.8997 -11.8276 -11.7297  -0.6434  -0.5990  -0.5934  -0.5387
    -0.4736  -0.4335  -0.4017  -0.3640  -0.3451  -0.3202  -0.2346  -0.0665
    -0.0164   0.0658   0.0898   0.1078   0.1363   0.1622   0.1687   0.3002
     1.0588   1.6920   1.9539   2.2751   2.4227   3.1050   3.1061   3.3180
     3.5698   3.5738   3.8829   3.8953

     occupation numbers 
     1.0000   1.0000   1.0000   1.0000   1.0000   1.0000   1.0000   1.0000
     1.0000   1.0000   1.0000   1.0000   1.0000   1.0000   1.0000   1.0000
     1.0000   1.0000   1.0000   1.0000   1.0000   1.0000   1.0000   1.0000
     1.0000   1.0000   1.0000   1.0000   1.0000   1.0000   1.0000   1.0000
     1.0000   1.0000   1.0000   1.0000

          k = 0.1667 0.2887 0.1012 (  4794 PWs)   bands (ev):

   -11.9845 -11.9334 -11.7942 -11.7435  -0.6417  -0.6093  -0.5657  -0.5386
    -0.4682  -0.4483  -0.3946  -0.3731  -0.3133  -0.2941  -0.2480  -0.1522
     0.0011   0.0576   0.0772   0.0977   0.1460   0.1635   0.1934   0.2611
     1.2052   1.5413   2.0663   2.2325   2.5185   2.8784   3.1223   3.2331
     3.6732   3.7243   3.8374   3.8786

     occupation numbers 
     1.0000   1.0000   1.0000   1.0000   1.0000   1.0000   1.0000   1.0000
     1.0000   1.0000   1.0000   1.0000   1.0000   1.0000   1.0000   1.0000
     1.0000   1.0000   1.0000   1.0000   1.0000   1.0000   1.0000   1.0000
     1.0000   1.0000   1.0000   1.0000   1.0000   1.0000   1.0000   1.0000
     1.0000   1.0000   1.0000   1.0000

          k = 0.1667 0.2887-0.1518 (  4812 PWs)   bands (ev):

   -11.9623 -11.9623 -11.7655 -11.7655  -0.6281  -0.6281  -0.5449  -0.5449
    -0.4599  -0.4599  -0.3852  -0.3852  -0.2688  -0.2688  -0.2448  -0.2448
     0.0268   0.0268   0.0874   0.0874   0.1556   0.1556   0.2256   0.2256
     1.3761   1.3761   2.1613   2.1613   2.6746   2.6746   3.1642   3.1642
     3.7654   3.7654   3.8267   3.8267

     occupation numbers 
     1.0000   1.0000   1.0000   1.0000   1.0000   1.0000   1.0000   1.0000
     1.0000   1.0000   1.0000   1.0000   1.0000   1.0000   1.0000   1.0000
     1.0000   1.0000   1.0000   1.0000   1.0000   1.0000   1.0000   1.0000
     1.0000   1.0000   1.0000   1.0000   1.0000   1.0000   1.0000   1.0000
     1.0000   1.0000   1.0000   1.0000

          k = 0.1667 0.4811 0.0000 (  4774 PWs)   bands (ev):

   -11.8266 -11.7562 -11.7562 -11.6918  -0.5885  -0.5758  -0.5758  -0.4296
    -0.3199  -0.3162  -0.3162  -0.1972  -0.1972  -0.1920  -0.1030  -0.0722
     0.0459   0.0846   0.1180   0.1180   0.2027   0.2442   0.2442   0.3359
     1.1157   1.2474   1.2474   1.5650   2.1894   2.4770   2.8849   2.8849
     3.3863   3.3863   3.3880   3.5386

     occupation numbers 
     1.0000   1.0000   1.0000   1.0000   1.0000   1.0000   1.0000   1.0000
     1.0000   1.0000   1.0000   1.0000   1.0000   1.0000   1.0000   1.0000
     1.0000   1.0000   1.0000   1.0000   1.0000   1.0000   1.0000   1.0000
     1.0000   1.0000   1.0000   1.0000   1.0000   1.0000   1.0000   1.0000
     1.0000   1.0000   1.0000   1.0000

          k = 0.1667 0.4811 0.0506 (  4773 PWs)   bands (ev):

   -11.8241 -11.7739 -11.7389 -11.6939  -0.5900  -0.5875  -0.5458  -0.4343
    -0.3564  -0.3293  -0.2688  -0.2027  -0.1952  -0.1855  -0.1110  -0.0802
     0.0415   0.0955   0.1045   0.1254   0.2027   0.2270   0.2646   0.3326
     1.1081   1.1833   1.3215   1.5590   2.2218   2.5112   2.7275   3.0271
     3.2309   3.4012   3.4974   3.5250

     occupation numbers 
     1.0000   1.0000   1.0000   1.0000   1.0000   1.0000   1.0000   1.0000
     1.0000   1.0000   1.0000   1.0000   1.0000   1.0000   1.0000   1.0000
     1.0000   1.0000   1.0000   1.0000   1.0000   1.0000   1.0000   1.0000
     1.0000   1.0000   1.0000   1.0000   1.0000   1.0000   1.0000   1.0000
     1.0000   1.0000   1.0000   1.0000

          k = 0.1667 0.4811 0.1012 (  4780 PWs)   bands (ev):

   -11.8169 -11.7907 -11.7232 -11.7000  -0.5916  -0.5864  -0.5050  -0.4469
    -0.3811  -0.3543  -0.2285  -0.2037  -0.1924  -0.1692  -0.1307  -0.1071
     0.0465   0.0856   0.1112   0.1267   0.2037   0.2145   0.2861   0.3224
     1.0983   1.1342   1.3997   1.5303   2.3099   2.5739   2.6162   2.9802
     3.2177   3.4012   3.5130   3.5451

     occupation numbers 
     1.0000   1.0000   1.0000   1.0000   1.0000   1.0000   1.0000   1.0000
     1.0000   1.0000   1.0000   1.0000   1.0000   1.0000   1.0000   1.0000
     1.0000   1.0000   1.0000   1.0000   1.0000   1.0000   1.0000   1.0000
     1.0000   1.0000   1.0000   1.0000   1.0000   1.0000   1.0000   1.0000
     1.0000   1.0000   1.0000   1.0000

          k = 0.1667 0.4811-0.1518 (  4774 PWs)   bands (ev):

   -11.8054 -11.8054 -11.7100 -11.7100  -0.5880  -0.5879  -0.4683  -0.4683
    -0.3798  -0.3798  -0.2136  -0.2136  -0.1562  -0.1562  -0.1453  -0.1453
     0.0642   0.0642   0.1221   0.1221   0.2071   0.2071   0.3063   0.3063
     1.1050   1.1050   1.4735   1.4736   2.4323   2.4323   2.7848   2.7848
     3.3272   3.3272   3.5385   3.5385

     occupation numbers 
     1.0000   1.0000   1.0000   1.0000   1.0000   1.0000   1.0000   1.0000
     1.0000   1.0000   1.0000   1.0000   1.0000   1.0000   1.0000   1.0000
     1.0000   1.0000   1.0000   1.0000   1.0000   1.0000   1.0000   1.0000
     1.0000   1.0000   1.0000   1.0000   1.0000   1.0000   1.0000   1.0000
     1.0000   1.0000   1.0000   1.0000

          k = 0.3333 0.5774 0.0000 (  4764 PWs)   bands (ev):

   -11.7245 -11.7245 -11.7207 -11.7207  -0.5994  -0.4558  -0.4558  -0.3866
    -0.3866  -0.2941  -0.2941  -0.0535  -0.0474  -0.0474  -0.0108  -0.0108
     0.0369   0.0487   0.0487   0.0731   0.2602   0.2602   0.3463   0.3463
     1.1726   1.1726   1.3602   1.3602   1.5497   2.3615   2.3615   2.8901
     2.8901   3.1246   3.4277   3.4277

     occupation numbers 
     1.0000   1.0000   1.0000   1.0000   1.0000   1.0000   1.0000   1.0000
     1.0000   1.0000   1.0000   1.0000   1.0000   1.0000   1.0000   1.0000
     1.0000   1.0000   1.0000   1.0000   1.0000   1.0000   1.0000   1.0000
     1.0000   1.0000   1.0000   1.0000   1.0000   1.0000   1.0000   1.0000
     1.0000   1.0000   1.0000   1.0000

          k = 0.3333 0.5774 0.0506 (  4779 PWs)   bands (ev):

   -11.7242 -11.7242 -11.7210 -11.7209  -0.5933  -0.4493  -0.4456  -0.4456
    -0.3166  -0.3056  -0.3056  -0.0674  -0.0459  -0.0459  -0.0149  -0.0149
     0.0348   0.0428   0.0551   0.0723   0.2678   0.2678   0.3417   0.3417
     1.1822   1.1822   1.3434   1.3434   1.5812   2.1637   2.5570   2.9297
     2.9297   3.0979   3.3941   3.3941

     occupation numbers 
     1.0000   1.0000   1.0000   1.0000   1.0000   1.0000   1.0000   1.0000
     1.0000   1.0000   1.0000   1.0000   1.0000   1.0000   1.0000   1.0000
     1.0000   1.0000   1.0000   1.0000   1.0000   1.0000   1.0000   1.0000
     1.0000   1.0000   1.0000   1.0000   1.0000   1.0000   1.0000   1.0000
     1.0000   1.0000   1.0000   1.0000

          k = 0.3333 0.5774 0.1012 (  4746 PWs)   bands (ev):

   -11.7235 -11.7235 -11.7216 -11.7216  -0.5746  -0.5024  -0.4171  -0.4171
    -0.3360  -0.3360  -0.2424  -0.1083  -0.0411  -0.0411  -0.0236  -0.0236
     0.0329   0.0375   0.0610   0.0700   0.2867   0.2867   0.3286   0.3286
     1.2100   1.2100   1.3018   1.3018   1.6706   1.9749   2.7394   3.0200
     3.0343   3.0343   3.3010   3.3010

     occupation numbers 
     1.0000   1.0000   1.0000   1.0000   1.0000   1.0000   1.0000   1.0000
     1.0000   1.0000   1.0000   1.0000   1.0000   1.0000   1.0000   1.0000
     1.0000   1.0000   1.0000   1.0000   1.0000   1.0000   1.0000   1.0000
     1.0000   1.0000   1.0000   1.0000   1.0000   1.0000   1.0000   1.0000
     1.0000   1.0000   1.0000   1.0000

          k = 0.3333 0.5774-0.1518 (  4746 PWs)   bands (ev):

   -11.7226 -11.7226 -11.7226 -11.7226  -0.5442  -0.5442  -0.3772  -0.3772
    -0.3772  -0.3772  -0.1702  -0.1702  -0.0334  -0.0334  -0.0334  -0.0334
     0.0338   0.0338   0.0662   0.0662   0.3089   0.3089   0.3089   0.3089
     1.2525   1.2525   1.2525   1.2525   1.8063   1.8063   2.8974   2.8974
     3.1704   3.1704   3.1704   3.1704

     occupation numbers 
     1.0000   1.0000   1.0000   1.0000   1.0000   1.0000   1.0000   1.0000
     1.0000   1.0000   1.0000   1.0000   1.0000   1.0000   1.0000   1.0000
     1.0000   1.0000   1.0000   1.0000   1.0000   1.0000   1.0000   1.0000
     1.0000   1.0000   1.0000   1.0000   1.0000   1.0000   1.0000   1.0000
     1.0000   1.0000   1.0000   1.0000

          k = 0.0000-0.1925 0.0506 (  4801 PWs)   bands (ev):

   -12.1457 -12.0166 -11.9208 -11.7882  -0.6671  -0.6340  -0.6116  -0.5548
    -0.5305  -0.4870  -0.4840  -0.4440  -0.4429  -0.4345  -0.3753  -0.0972
     0.0114   0.0422   0.0858   0.0907   0.1229   0.1317   0.1617   0.2381
     0.7622   1.8646   2.4000   2.9816   3.2716   3.4589   3.5744   3.7389
     3.8164   3.9909   4.1422   4.2265

     occupation numbers 
     1.0000   1.0000   1.0000   1.0000   1.0000   1.0000   1.0000   1.0000
     1.0000   1.0000   1.0000   1.0000   1.0000   1.0000   1.0000   1.0000
     1.0000   1.0000   1.0000   1.0000   1.0000   1.0000   1.0000   1.0000
     1.0000   1.0000   1.0000   1.0000   1.0000   1.0000   1.0000   1.0000
     1.0000   1.0000   1.0000   1.0000

          k = 0.0000-0.1925 0.1012 (  4790 PWs)   bands (ev):

   -12.1276 -12.0609 -11.8758 -11.8070  -0.6690  -0.6458  -0.5695  -0.5515
    -0.5247  -0.5012  -0.4896  -0.4480  -0.4214  -0.4012  -0.3856  -0.2108
     0.0237   0.0494   0.0626   0.0747   0.1369   0.1529   0.1567   0.1986
     1.0010   1.5742   2.6314   2.9458   3.2349   3.3418   3.6089   3.7343
     3.8766   4.0716   4.0867   4.1934

     occupation numbers 
     1.0000   1.0000   1.0000   1.0000   1.0000   1.0000   1.0000   1.0000
     1.0000   1.0000   1.0000   1.0000   1.0000   1.0000   1.0000   1.0000
     1.0000   1.0000   1.0000   1.0000   1.0000   1.0000   1.0000   1.0000
     1.0000   1.0000   1.0000   1.0000   1.0000   1.0000   1.0000   1.0000
     1.0000   1.0000   1.0000   1.0000

          k = 0.0000-0.3849 0.0506 (  4781 PWs)   bands (ev):

   -11.9442 -11.8587 -11.7969 -11.7137  -0.6805  -0.6528  -0.6287  -0.4946
    -0.4549  -0.3698  -0.3023  -0.3009  -0.2836  -0.2655  -0.1968  -0.1091
     0.0327   0.0901   0.1058   0.1165   0.1377   0.1691   0.1726   0.3067
     1.1365   1.4746   1.6731   1.7549   2.3790   3.0163   3.0880   3.4090
     3.4738   3.6373   3.7482   3.9443

     occupation numbers 
     1.0000   1.0000   1.0000   1.0000   1.0000   1.0000   1.0000   1.0000
     1.0000   1.0000   1.0000   1.0000   1.0000   1.0000   1.0000   1.0000
     1.0000   1.0000   1.0000   1.0000   1.0000   1.0000   1.0000   1.0000
     1.0000   1.0000   1.0000   1.0000   1.0000   1.0000   1.0000   1.0000
     1.0000   1.0000   1.0000   1.0000

          k = 0.0000-0.3849 0.1012 (  4778 PWs)   bands (ev):

   -11.9321 -11.8877 -11.7683 -11.7253  -0.6832  -0.6630  -0.5852  -0.5124
    -0.4435  -0.3999  -0.2966  -0.2736  -0.2666  -0.2554  -0.2121  -0.1525
     0.0355   0.0764   0.0937   0.1072   0.1486   0.1670   0.2015   0.2716
     1.2043   1.3785   1.7605   1.8069   2.4161   2.7616   3.1342   3.3010
     3.6257   3.7424   3.7462   3.9011

     occupation numbers 
     1.0000   1.0000   1.0000   1.0000   1.0000   1.0000   1.0000   1.0000
     1.0000   1.0000   1.0000   1.0000   1.0000   1.0000   1.0000   1.0000
     1.0000   1.0000   1.0000   1.0000   1.0000   1.0000   1.0000   1.0000
     1.0000   1.0000   1.0000   1.0000   1.0000   1.0000   1.0000   1.0000
     1.0000   1.0000   1.0000   1.0000

          k =-0.1667-0.4811 0.0506 (  4773 PWs)   bands (ev):

   -11.8241 -11.7739 -11.7389 -11.6939  -0.5900  -0.5875  -0.5458  -0.4343
    -0.3564  -0.3293  -0.2688  -0.2027  -0.1952  -0.1855  -0.1110  -0.0802
     0.0415   0.0955   0.1045   0.1254   0.2027   0.2270   0.2646   0.3326
     1.1081   1.1833   1.3215   1.5590   2.2218   2.5112   2.7275   3.0271
     3.2309   3.4012   3.4974   3.5250

     occupation numbers 
     1.0000   1.0000   1.0000   1.0000   1.0000   1.0000   1.0000   1.0000
     1.0000   1.0000   1.0000   1.0000   1.0000   1.0000   1.0000   1.0000
     1.0000   1.0000   1.0000   1.0000   1.0000   1.0000   1.0000   1.0000
     1.0000   1.0000   1.0000   1.0000   1.0000   1.0000   1.0000   1.0000
     1.0000   1.0000   1.0000   1.0000

          k =-0.1667-0.4811 0.1012 (  4780 PWs)   bands (ev):

   -11.8169 -11.7907 -11.7232 -11.7000  -0.5916  -0.5864  -0.5050  -0.4469
    -0.3811  -0.3543  -0.2285  -0.2037  -0.1924  -0.1692  -0.1307  -0.1071
     0.0465   0.0856   0.1112   0.1267   0.2037   0.2145   0.2861   0.3224
     1.0983   1.1342   1.3997   1.5303   2.3099   2.5739   2.6162   2.9802
     3.2177   3.4012   3.5130   3.5451

     occupation numbers 
     1.0000   1.0000   1.0000   1.0000   1.0000   1.0000   1.0000   1.0000
     1.0000   1.0000   1.0000   1.0000   1.0000   1.0000   1.0000   1.0000
     1.0000   1.0000   1.0000   1.0000   1.0000   1.0000   1.0000   1.0000
     1.0000   1.0000   1.0000   1.0000   1.0000   1.0000   1.0000   1.0000
     1.0000   1.0000   1.0000   1.0000

     highest occupied level (ev):     4.3681

!    total energy              =    -723.18683353 Ry
     estimated scf accuracy    <          9.2E-09 Ry

     The total energy is the sum of the following terms:
     one-electron contribution =    -352.36505945 Ry
     hartree contribution      =     252.24207538 Ry
     xc contribution           =    -218.37526060 Ry
     ewald contribution        =    -404.68858887 Ry

     convergence has been achieved in  44 iterations

     Forces acting on atoms (cartesian axes, Ry/au):

     atom    1 type  1   force =     0.00000000    0.00000000    0.00312648
     atom    2 type  2   force =     0.00000000    0.00000000   -0.00312812
     atom    3 type  1   force =     0.00000000    0.00000000    0.00312228
     atom    4 type  2   force =     0.00000000    0.00000000   -0.00312622
     atom    5 type  1   force =     0.00000000   -0.00000000    0.00312139
     atom    6 type  2   force =     0.00000000    0.00000000   -0.00312331
     atom    7 type  1   force =     0.00000000    0.00000000    0.00313477
     atom    8 type  2   force =     0.00000000    0.00000000   -0.00312728
     The non-local contrib.  to forces
     atom    1 type  1   force =     0.00000000    0.00000000   -0.01749911
     atom    2 type  2   force =     0.00000000    0.00000000   -0.02502194
     atom    3 type  1   force =     0.00000000   -0.00000000   -0.01750280
     atom    4 type  2   force =     0.00000000    0.00000000   -0.02502046
     atom    5 type  1   force =     0.00000000    0.00000000   -0.01750334
     atom    6 type  2   force =     0.00000000    0.00000000   -0.02502233
     atom    7 type  1   force =     0.00000000    0.00000000   -0.01749125
     atom    8 type  2   force =     0.00000000   -0.00000000   -0.02502547
     The ionic contribution  to forces
     atom    1 type  1   force =    -0.00000000    0.00000000   -0.21630383
     atom    2 type  2   force =     0.00000000   -0.00000000    0.21630383
     atom    3 type  1   force =     0.00000000   -0.00000000   -0.21630383
     atom    4 type  2   force =    -0.00000000    0.00000000    0.21630383
     atom    5 type  1   force =    -0.00000000    0.00000000   -0.21630383
     atom    6 type  2   force =     0.00000000   -0.00000000    0.21630383
     atom    7 type  1   force =     0.00000000   -0.00000000   -0.21630383
     atom    8 type  2   force =    -0.00000000    0.00000000    0.21630383
     The local contribution  to forces
     atom    1 type  1   force =     0.00000000    0.00000000    0.23617982
     atom    2 type  2   force =     0.00000001   -0.00000001   -0.19464721
     atom    3 type  1   force =     0.00000005   -0.00000003    0.23618811
     atom    4 type  2   force =    -0.00000000    0.00000000   -0.19464348
     atom    5 type  1   force =     0.00000000    0.00000000    0.23619137
     atom    6 type  2   force =     0.00000001   -0.00000001   -0.19463828
     atom    7 type  1   force =     0.00000005   -0.00000003    0.23616321
     atom    8 type  2   force =    -0.00000000    0.00000000   -0.19464925
     The core correction contribution to forces
     atom    1 type  1   force =    -0.00000000    0.00000000    0.00074700
     atom    2 type  2   force =    -0.00000000    0.00000000    0.00023674
     atom    3 type  1   force =     0.00000001   -0.00000000    0.00074690
     atom    4 type  2   force =     0.00000000   -0.00000000    0.00023672
     atom    5 type  1   force =    -0.00000000    0.00000000    0.00074671
     atom    6 type  2   force =    -0.00000000    0.00000000    0.00023677
     atom    7 type  1   force =     0.00000001   -0.00000000    0.00074707
     atom    8 type  2   force =     0.00000000   -0.00000000    0.00023679
     The Hubbard contrib.    to forces
     atom    1 type  1   force =     0.00000000    0.00000000    0.00000000
     atom    2 type  2   force =     0.00000000    0.00000000    0.00000000
     atom    3 type  1   force =     0.00000000    0.00000000    0.00000000
     atom    4 type  2   force =     0.00000000    0.00000000    0.00000000
     atom    5 type  1   force =     0.00000000    0.00000000    0.00000000
     atom    6 type  2   force =     0.00000000    0.00000000    0.00000000
     atom    7 type  1   force =     0.00000000    0.00000000    0.00000000
     atom    8 type  2   force =     0.00000000    0.00000000    0.00000000
     The SCF correction term to forces
     atom    1 type  1   force =     0.00000000   -0.00000000    0.00000363
     atom    2 type  2   force =     0.00000000   -0.00000000    0.00000150
     atom    3 type  1   force =    -0.00000000    0.00000000   -0.00000507
     atom    4 type  2   force =     0.00000000    0.00000000   -0.00000179
     atom    5 type  1   force =     0.00000000   -0.00000000   -0.00000849
     atom    6 type  2   force =     0.00000000   -0.00000000   -0.00000225
     atom    7 type  1   force =    -0.00000000    0.00000000    0.00002059
     atom    8 type  2   force =     0.00000000   -0.00000000    0.00000786

     Total force =     0.008842     Total SCF correction =     0.000025

     init_run     :      4.16s CPU      4.35s WALL (       1 calls)
     electrons    :    298.65s CPU    313.56s WALL (       1 calls)
     forces       :      1.45s CPU      1.51s WALL (       1 calls)

     Called by init_run:
     wfcinit      :      2.40s CPU      2.51s WALL (       1 calls)
     wfcinit:atom :      0.03s CPU      0.03s WALL (      17 calls)
     wfcinit:wfcr :      2.21s CPU      2.32s WALL (      17 calls)
     potinit      :      0.63s CPU      0.64s WALL (       1 calls)
     hinit0       :      0.93s CPU      0.94s WALL (       1 calls)

     Called by electrons:
     c_bands      :    250.85s CPU    260.20s WALL (      44 calls)
     sum_band     :     38.44s CPU     42.04s WALL (      44 calls)
     v_of_rho     :      3.63s CPU      3.76s WALL (      45 calls)
     v_h          :      0.21s CPU      0.22s WALL (      45 calls)
     v_xc         :      3.50s CPU      3.62s WALL (      46 calls)
     newd         :      4.99s CPU      6.81s WALL (      45 calls)
     mix_rho      :      0.61s CPU      0.64s WALL (      44 calls)

     Called by c_bands:
     init_us_2    :      2.28s CPU      2.30s WALL (    1530 calls)
     init_us_2:cp :      2.27s CPU      2.30s WALL (    1530 calls)
     cegterg      :    229.15s CPU    238.45s WALL (     748 calls)

     Called by sum_band:
     sum_band:wei :      0.01s CPU      0.01s WALL (      44 calls)
     sum_band:loo :     31.42s CPU     33.03s WALL (      44 calls)
     sum_band:buf :      0.16s CPU      0.17s WALL (     748 calls)
     sum_band:ini :      1.11s CPU      1.12s WALL (     748 calls)
     sum_band:cal :      3.92s CPU      4.00s WALL (     748 calls)
     sum_band:bec :      0.08s CPU      0.08s WALL (     748 calls)
     addusdens    :      5.50s CPU      7.40s WALL (      44 calls)
                                        0.00s GPU  (      44 calls)
     addusd:skk   :      0.05s CPU      0.05s WALL (      88 calls)
                                        0.00s GPU  (      88 calls)

     Called by *egterg:
     cdiaghg      :     15.76s CPU     15.79s WALL (    3759 calls)
     cegterg:over :     11.28s CPU     11.51s WALL (    3011 calls)
     cegterg:upda :      7.18s CPU      7.20s WALL (    3011 calls)
     cegterg:last :     14.84s CPU     14.86s WALL (    1858 calls)
     h_psi        :    164.00s CPU    172.97s WALL (    3776 calls)
     s_psi        :     12.92s CPU     12.94s WALL (    3776 calls)
     g_psi        :      0.68s CPU      0.68s WALL (    3011 calls)

     Called by h_psi:
     h_psi:calbec :     12.08s CPU     12.45s WALL (    3776 calls)
     vloc_psi     :    138.15s CPU    146.70s WALL (    3776 calls)
     add_vuspsi   :     13.29s CPU     13.33s WALL (    3776 calls)

     General routines
     calbec       :     16.33s CPU     16.79s WALL (    4592 calls)
     fft          :      2.22s CPU      2.42s WALL (     594 calls)
     ffts         :      0.26s CPU      0.26s WALL (      89 calls)
     fftw         :    136.05s CPU    144.44s WALL (  183666 calls)
     interpolate  :      0.38s CPU      0.40s WALL (      45 calls)

     Parallel routines

     PWSCF        :   5m 4.79s CPU   5m19.97s WALL


   This run was terminated on:  16:18:26  13Jul2025            

=------------------------------------------------------------------------------=
   JOB DONE.
=------------------------------------------------------------------------------=
Note: The following floating-point exceptions are signalling: IEEE_INVALID_FLAG
Note: The following floating-point exceptions are signalling: IEEE_INVALID_FLAG
