Authorization required, but no authorization protocol specified

Authorization required, but no authorization protocol specified

Authorization required, but no authorization protocol specified

Authorization required, but no authorization protocol specified

Authorization required, but no authorization protocol specified

Authorization required, but no authorization protocol specified

Authorization required, but no authorization protocol specified

Authorization required, but no authorization protocol specified

Authorization required, but no authorization protocol specified

Authorization required, but no authorization protocol specified


     Program PWSCF v.7.2 starts on 13Jul2025 at 12: 7: 7 

     This program is part of the open-source Quantum ESPRESSO suite
     for quantum simulation of materials; please cite
         "P. Giannozzi et al., J. Phys.:Condens. Matter 21 395502 (2009);
         "P. Giannozzi et al., J. Phys.:Condens. Matter 29 465901 (2017);
         "P. Giannozzi et al., J. Chem. Phys. 152 154105 (2020);
          URL http://www.quantum-espresso.org", 
     in publications or presentations arising from this work. More details at
     http://www.quantum-espresso.org/quote

     Parallel version (MPI), running on     8 processors

     MPI processes distributed on     1 nodes
     56387 MiB available memory on the printing compute node when the environment starts

     Reading input from /home/jvc/QEspresso7.2/ZnO_database/scripts/cell112.in/ZnO-3.07-1.78-112.in
Warning: card &CELL ignored
Warning: card / ignored
Warning: card &FCP ignored
Warning: card / ignored
Warning: card &RISM ignored
Warning: card / ignored

     Current dimensions of program PWSCF are:
     Max number of different atomic species (ntypx) = 10
     Max number of k-points (npk) =  40000
     Max angular momentum in pseudopotentials (lmaxx) =  4
     file Zn.upf: wavefunction(s)  3D renormalized
     Found identity + (  0.0000  0.0000 -0.5000) symmetry
     This is a supercell, fractional translations are disabled
     Message from routine setup:
     using ibrav=0 with symmetry is DISCOURAGED, use correct ibrav instead

     K-points division:     npool     =       2
     R & G space division:  proc/nbgrp/npool/nimage =       4
     Subspace diagonalization in iterative solution of the eigenvalue problem:
     a serial algorithm will be used


     Parallelization info
     --------------------
     sticks:   dense  smooth     PW     G-vecs:    dense   smooth      PW
     Min         232     115     36                20345     7177    1210
     Max         233     116     39                20350     7186    1212
     Sum         931     463    151                81389    28731    4845

     Using Slab Decomposition



     bravais-lattice index     =            0
     lattice parameter (alat)  =       5.8081  a.u.
     unit-cell volume          =     602.6437 (a.u.)^3
     number of atoms/cell      =            8
     number of atomic types    =            2
     number of electrons       =        72.00
     number of Kohn-Sham states=           36
     kinetic-energy cutoff     =      50.0000  Ry
     charge density cutoff     =     400.0000  Ry
     scf convergence threshold =      1.0E-08
     mixing beta               =       0.3000
     number of iterations used =            8  plain     mixing
     Exchange-correlation= PBE
                           (   1   4   3   4   0   0   0)

     celldm(1)=   5.808123  celldm(2)=   0.000000  celldm(3)=   0.000000
     celldm(4)=   0.000000  celldm(5)=   0.000000  celldm(6)=   0.000000

     crystal axes: (cart. coord. in units of alat)
               a(1) = (   1.000000   0.000000   0.000000 )  
               a(2) = (  -0.500000   0.866025   0.000000 )  
               a(3) = (   0.000000   0.000000   3.551588 )  

     reciprocal axes: (cart. coord. in units 2 pi/alat)
               b(1) = (  1.000000  0.577350 -0.000000 )  
               b(2) = (  0.000000  1.154701  0.000000 )  
               b(3) = (  0.000000 -0.000000  0.281564 )  


     PseudoPot. # 1 for Zn read from file:
     /home/jvc/QEspresso7.2/ZnO_database/pseudos/Zn.upf
     MD5 check sum: 7f56cabf9682ed8c977c2f7d0c5985c5
     Pseudo is Ultrasoft + core correction, Zval = 12.0
     Generated using &quot;atomic&quot; code by A. Dal Corso  v.6.2.2
     Using radial grid of 1201 points,  6 beta functions with: 
                l(1) =   0
                l(2) =   0
                l(3) =   1
                l(4) =   1
                l(5) =   2
                l(6) =   2
     Q(r) pseudized with 0 coefficients 


     PseudoPot. # 2 for O  read from file:
     /home/jvc/QEspresso7.2/ZnO_database/pseudos/O.upf
     MD5 check sum: 91400c9766925bcf19f520983a725ff0
     Pseudo is Ultrasoft + core correction, Zval =  6.0
     Generated using &quot;atomic&quot; code by A. Dal Corso  v.6.3MaX
     Using radial grid of 1095 points,  4 beta functions with: 
                l(1) =   0
                l(2) =   0
                l(3) =   1
                l(4) =   1
     Q(r) pseudized with 0 coefficients 


     atomic species   valence    mass     pseudopotential
        Zn            12.00    65.38000     Zn( 1.00)
        O              6.00    15.99900     O ( 1.00)

      6 Sym. Ops. (no inversion) found


                                    s                        frac. trans.

      isym =  1     identity                                     

 cryst.   s( 1) = (     1          0          0      )
                  (     0          1          0      )
                  (     0          0          1      )

 cart.    s( 1) = (  1.0000000  0.0000000  0.0000000 )
                  (  0.0000000  1.0000000  0.0000000 )
                  (  0.0000000  0.0000000  1.0000000 )


      isym =  2     120 deg rotation - cryst. axis [0,0,1]       

 cryst.   s( 2) = (     0          1          0      )
                  (    -1         -1          0      )
                  (     0          0          1      )

 cart.    s( 2) = ( -0.5000000 -0.8660254  0.0000000 )
                  (  0.8660254 -0.5000000  0.0000000 )
                  (  0.0000000  0.0000000  1.0000000 )


      isym =  3     120 deg rotation - cryst. axis [0,0,-1]      

 cryst.   s( 3) = (    -1         -1          0      )
                  (     1          0          0      )
                  (     0          0          1      )

 cart.    s( 3) = ( -0.5000000  0.8660254  0.0000000 )
                  ( -0.8660254 -0.5000000  0.0000000 )
                  (  0.0000000  0.0000000  1.0000000 )


      isym =  4     inv. 180 deg rotation - cart. axis [1,0,0]   

 cryst.   s( 4) = (    -1          0          0      )
                  (     1          1          0      )
                  (     0          0          1      )

 cart.    s( 4) = ( -1.0000000  0.0000000  0.0000000 )
                  (  0.0000000  1.0000000  0.0000000 )
                  (  0.0000000  0.0000000  1.0000000 )


      isym =  5     inv. 180 deg rotation - cryst. axis [0,1,0]  

 cryst.   s( 5) = (     1          1          0      )
                  (     0         -1          0      )
                  (     0          0          1      )

 cart.    s( 5) = (  0.5000000  0.8660254  0.0000000 )
                  (  0.8660254 -0.5000000  0.0000000 )
                  (  0.0000000  0.0000000  1.0000000 )


      isym =  6     inv. 180 deg rotation - cryst. axis [1,1,0]  

 cryst.   s( 6) = (     0         -1          0      )
                  (    -1          0          0      )
                  (     0          0          1      )

 cart.    s( 6) = (  0.5000000 -0.8660254  0.0000000 )
                  ( -0.8660254 -0.5000000  0.0000000 )
                  (  0.0000000  0.0000000  1.0000000 )


   Cartesian axes

     site n.     atom                  positions (alat units)
         1           Zn  tau(   1) = (   0.0000000   0.0000000   0.0000000  )
         2           O   tau(   2) = (  -0.0000000   0.5773503   0.2562391  )
         3           Zn  tau(   3) = (  -0.0000000   0.5773503   0.8878971  )
         4           O   tau(   4) = (   0.0000000   0.0000000   1.1441362  )
         5           Zn  tau(   5) = (   0.0000000   0.0000000   1.7757942  )
         6           O   tau(   6) = (  -0.0000000   0.5773503   2.0320333  )
         7           Zn  tau(   7) = (  -0.0000000   0.5773503   2.6636913  )
         8           O   tau(   8) = (   0.0000000   0.0000000   2.9199304  )

   Crystallographic axes

     site n.     atom                  positions (cryst. coord.)
         1           Zn  tau(   1) = (  0.0000000  0.0000000  0.0000000  )
         2           O   tau(   2) = (  0.3333333  0.6666667  0.0721477  )
         3           Zn  tau(   3) = (  0.3333333  0.6666667  0.2500000  )
         4           O   tau(   4) = (  0.0000000  0.0000000  0.3221477  )
         5           Zn  tau(   5) = (  0.0000000  0.0000000  0.5000000  )
         6           O   tau(   6) = (  0.3333333  0.6666667  0.5721477  )
         7           Zn  tau(   7) = (  0.3333333  0.6666667  0.7500000  )
         8           O   tau(   8) = (  0.0000000  0.0000000  0.8221477  )

     number of k points=    34
                       cart. coord. in units 2pi/alat
        k(    1) = (   0.0000000   0.0000000   0.0000000), wk =   0.0092593
        k(    2) = (   0.0000000   0.0000000   0.0469274), wk =   0.0185185
        k(    3) = (   0.0000000   0.0000000   0.0938547), wk =   0.0185185
        k(    4) = (   0.0000000   0.0000000  -0.1407821), wk =   0.0092593
        k(    5) = (   0.0000000   0.1924501   0.0000000), wk =   0.0555556
        k(    6) = (   0.0000000   0.1924501   0.0469274), wk =   0.0555556
        k(    7) = (   0.0000000   0.1924501   0.0938547), wk =   0.0555556
        k(    8) = (   0.0000000   0.1924501  -0.1407821), wk =   0.0555556
        k(    9) = (   0.0000000   0.3849002   0.0000000), wk =   0.0555556
        k(   10) = (   0.0000000   0.3849002   0.0469274), wk =   0.0555556
        k(   11) = (   0.0000000   0.3849002   0.0938547), wk =   0.0555556
        k(   12) = (   0.0000000   0.3849002  -0.1407821), wk =   0.0555556
        k(   13) = (   0.0000000  -0.5773503   0.0000000), wk =   0.0277778
        k(   14) = (   0.0000000  -0.5773503   0.0469274), wk =   0.0555556
        k(   15) = (   0.0000000  -0.5773503   0.0938547), wk =   0.0555556
        k(   16) = (   0.0000000  -0.5773503  -0.1407821), wk =   0.0277778
        k(   17) = (   0.1666667   0.2886751   0.0000000), wk =   0.0555556
        k(   18) = (   0.1666667   0.2886751   0.0469274), wk =   0.1111111
        k(   19) = (   0.1666667   0.2886751   0.0938547), wk =   0.1111111
        k(   20) = (   0.1666667   0.2886751  -0.1407821), wk =   0.0555556
        k(   21) = (   0.1666667   0.4811252   0.0000000), wk =   0.1111111
        k(   22) = (   0.1666667   0.4811252   0.0469274), wk =   0.1111111
        k(   23) = (   0.1666667   0.4811252   0.0938547), wk =   0.1111111
        k(   24) = (   0.1666667   0.4811252  -0.1407821), wk =   0.1111111
        k(   25) = (   0.3333333   0.5773503   0.0000000), wk =   0.0185185
        k(   26) = (   0.3333333   0.5773503   0.0469274), wk =   0.0370370
        k(   27) = (   0.3333333   0.5773503   0.0938547), wk =   0.0370370
        k(   28) = (   0.3333333   0.5773503  -0.1407821), wk =   0.0185185
        k(   29) = (   0.0000000  -0.1924501   0.0469274), wk =   0.0555556
        k(   30) = (   0.0000000  -0.1924501   0.0938547), wk =   0.0555556
        k(   31) = (   0.0000000  -0.3849002   0.0469274), wk =   0.0555556
        k(   32) = (   0.0000000  -0.3849002   0.0938547), wk =   0.0555556
        k(   33) = (  -0.1666667  -0.4811252   0.0469274), wk =   0.1111111
        k(   34) = (  -0.1666667  -0.4811252   0.0938547), wk =   0.1111111

                       cryst. coord.
        k(    1) = (   0.0000000   0.0000000   0.0000000), wk =   0.0092593
        k(    2) = (   0.0000000   0.0000000   0.1666667), wk =   0.0185185
        k(    3) = (   0.0000000   0.0000000   0.3333333), wk =   0.0185185
        k(    4) = (   0.0000000   0.0000000  -0.5000000), wk =   0.0092593
        k(    5) = (   0.0000000   0.1666667   0.0000000), wk =   0.0555556
        k(    6) = (   0.0000000   0.1666667   0.1666667), wk =   0.0555556
        k(    7) = (   0.0000000   0.1666667   0.3333333), wk =   0.0555556
        k(    8) = (   0.0000000   0.1666667  -0.5000000), wk =   0.0555556
        k(    9) = (   0.0000000   0.3333333   0.0000000), wk =   0.0555556
        k(   10) = (   0.0000000   0.3333333   0.1666667), wk =   0.0555556
        k(   11) = (   0.0000000   0.3333333   0.3333333), wk =   0.0555556
        k(   12) = (   0.0000000   0.3333333  -0.5000000), wk =   0.0555556
        k(   13) = (   0.0000000  -0.5000000   0.0000000), wk =   0.0277778
        k(   14) = (   0.0000000  -0.5000000   0.1666667), wk =   0.0555556
        k(   15) = (   0.0000000  -0.5000000   0.3333333), wk =   0.0555556
        k(   16) = (   0.0000000  -0.5000000  -0.5000000), wk =   0.0277778
        k(   17) = (   0.1666667   0.1666667   0.0000000), wk =   0.0555556
        k(   18) = (   0.1666667   0.1666667   0.1666667), wk =   0.1111111
        k(   19) = (   0.1666667   0.1666667   0.3333333), wk =   0.1111111
        k(   20) = (   0.1666667   0.1666667  -0.5000000), wk =   0.0555556
        k(   21) = (   0.1666667   0.3333333   0.0000000), wk =   0.1111111
        k(   22) = (   0.1666667   0.3333333   0.1666667), wk =   0.1111111
        k(   23) = (   0.1666667   0.3333333   0.3333333), wk =   0.1111111
        k(   24) = (   0.1666667   0.3333333  -0.5000000), wk =   0.1111111
        k(   25) = (   0.3333333   0.3333333   0.0000000), wk =   0.0185185
        k(   26) = (   0.3333333   0.3333333   0.1666667), wk =   0.0370370
        k(   27) = (   0.3333333   0.3333333   0.3333333), wk =   0.0370370
        k(   28) = (   0.3333333   0.3333333  -0.5000000), wk =   0.0185185
        k(   29) = (   0.0000000  -0.1666667   0.1666667), wk =   0.0555556
        k(   30) = (   0.0000000  -0.1666667   0.3333333), wk =   0.0555556
        k(   31) = (   0.0000000  -0.3333333   0.1666667), wk =   0.0555556
        k(   32) = (   0.0000000  -0.3333333   0.3333333), wk =   0.0555556
        k(   33) = (  -0.1666667  -0.3333333   0.1666667), wk =   0.1111111
        k(   34) = (  -0.1666667  -0.3333333   0.3333333), wk =   0.1111111

     Dense  grid:    81389 G-vectors     FFT dimensions: (  40,  40, 135)

     Smooth grid:    28731 G-vectors     FFT dimensions: (  27,  27,  96)

     Dynamical RAM for                 wfc:       0.49 MB

     Dynamical RAM for     wfc (w. buffer):       8.89 MB

     Dynamical RAM for           str. fact:       0.62 MB

     Dynamical RAM for           local pot:       0.00 MB

     Dynamical RAM for          nlocal pot:       1.43 MB

     Dynamical RAM for                qrad:       3.21 MB

     Dynamical RAM for          rho,v,vnew:       2.18 MB

     Dynamical RAM for               rhoin:       0.73 MB

     Dynamical RAM for            rho*nmix:       4.97 MB

     Dynamical RAM for           G-vectors:       1.22 MB

     Dynamical RAM for          h,s,v(r/c):       0.24 MB

     Dynamical RAM for          <psi|beta>:       0.06 MB

     Dynamical RAM for                 psi:       0.99 MB

     Dynamical RAM for                hpsi:       0.99 MB

     Dynamical RAM for                spsi:       0.99 MB

     Dynamical RAM for      wfcinit/wfcrot:       1.49 MB

     Dynamical RAM for           addusdens:      29.65 MB

     Dynamical RAM for          addusforce:      30.60 MB

     Estimated static dynamical RAM per process >      21.28 MB

     Estimated max dynamical RAM per process >      56.85 MB

     Estimated total dynamical RAM >     434.89 MB

     Check: negative core charge=   -0.000002

     Initial potential from superposition of free atoms

     starting charge      71.9851, renormalised to      72.0000
     Starting wfcs are   52 randomized atomic wfcs

     total cpu time spent up to now is        4.3 secs

     Self-consistent Calculation

     iteration #  1     ecut=    50.00 Ry     beta= 0.30
     Davidson diagonalization with overlap

---- Real-time Memory Report at c_bands before calling an iterative solver
            74 MiB given to the printing process from OS
             0 MiB allocation reported by mallinfo(arena+hblkhd)
         55947 MiB available memory on the node where the printing process lives
------------------
     ethr =  1.00E-02,  avg # of iterations =  1.9

     total cpu time spent up to now is        8.5 secs

     total energy              =    -722.93207668 Ry
     estimated scf accuracy    <       1.35217819 Ry

     iteration #  2     ecut=    50.00 Ry     beta= 0.30
     Davidson diagonalization with overlap

---- Real-time Memory Report at c_bands before calling an iterative solver
            89 MiB given to the printing process from OS
             0 MiB allocation reported by mallinfo(arena+hblkhd)
         56260 MiB available memory on the node where the printing process lives
------------------
     ethr =  1.88E-03,  avg # of iterations =  2.0

     total cpu time spent up to now is       13.7 secs

     total energy              =    -723.09108964 Ry
     estimated scf accuracy    <       0.20519316 Ry

     iteration #  3     ecut=    50.00 Ry     beta= 0.30
     Davidson diagonalization with overlap

---- Real-time Memory Report at c_bands before calling an iterative solver
            89 MiB given to the printing process from OS
             0 MiB allocation reported by mallinfo(arena+hblkhd)
         55983 MiB available memory on the node where the printing process lives
------------------
     ethr =  2.85E-04,  avg # of iterations =  6.9

     total cpu time spent up to now is       22.8 secs

     total energy              =    -723.16764194 Ry
     estimated scf accuracy    <       0.13661904 Ry

     iteration #  4     ecut=    50.00 Ry     beta= 0.30
     Davidson diagonalization with overlap

---- Real-time Memory Report at c_bands before calling an iterative solver
            90 MiB given to the printing process from OS
             0 MiB allocation reported by mallinfo(arena+hblkhd)
         56009 MiB available memory on the node where the printing process lives
------------------
     ethr =  1.90E-04,  avg # of iterations =  7.3

     total cpu time spent up to now is       32.9 secs

     total energy              =    -723.26948279 Ry
     estimated scf accuracy    <       0.28504573 Ry

     iteration #  5     ecut=    50.00 Ry     beta= 0.30
     Davidson diagonalization with overlap

---- Real-time Memory Report at c_bands before calling an iterative solver
            90 MiB given to the printing process from OS
             0 MiB allocation reported by mallinfo(arena+hblkhd)
         55844 MiB available memory on the node where the printing process lives
------------------
     ethr =  1.90E-04,  avg # of iterations =  1.0

     total cpu time spent up to now is       36.9 secs

     total energy              =    -723.15522006 Ry
     estimated scf accuracy    <       0.19830722 Ry

     iteration #  6     ecut=    50.00 Ry     beta= 0.30
     Davidson diagonalization with overlap

---- Real-time Memory Report at c_bands before calling an iterative solver
            90 MiB given to the printing process from OS
             0 MiB allocation reported by mallinfo(arena+hblkhd)
         55853 MiB available memory on the node where the printing process lives
------------------
     ethr =  1.90E-04,  avg # of iterations =  5.5

     total cpu time spent up to now is       45.0 secs

     total energy              =    -723.23544800 Ry
     estimated scf accuracy    <       0.03488969 Ry

     iteration #  7     ecut=    50.00 Ry     beta= 0.30
     Davidson diagonalization with overlap

---- Real-time Memory Report at c_bands before calling an iterative solver
            90 MiB given to the printing process from OS
             0 MiB allocation reported by mallinfo(arena+hblkhd)
         55864 MiB available memory on the node where the printing process lives
------------------
     ethr =  4.85E-05,  avg # of iterations =  2.4

     total cpu time spent up to now is       49.7 secs

     total energy              =    -723.23602349 Ry
     estimated scf accuracy    <       0.02912666 Ry

     iteration #  8     ecut=    50.00 Ry     beta= 0.30
     Davidson diagonalization with overlap

---- Real-time Memory Report at c_bands before calling an iterative solver
            91 MiB given to the printing process from OS
             0 MiB allocation reported by mallinfo(arena+hblkhd)
         55865 MiB available memory on the node where the printing process lives
------------------
     ethr =  4.05E-05,  avg # of iterations =  1.1

     total cpu time spent up to now is       53.7 secs

     total energy              =    -723.23639655 Ry
     estimated scf accuracy    <       0.02478240 Ry

     iteration #  9     ecut=    50.00 Ry     beta= 0.30
     Davidson diagonalization with overlap

---- Real-time Memory Report at c_bands before calling an iterative solver
            91 MiB given to the printing process from OS
             0 MiB allocation reported by mallinfo(arena+hblkhd)
         55866 MiB available memory on the node where the printing process lives
------------------
     ethr =  3.44E-05,  avg # of iterations =  1.1

     total cpu time spent up to now is       57.8 secs

     total energy              =    -723.23580767 Ry
     estimated scf accuracy    <       0.02493480 Ry

     iteration # 10     ecut=    50.00 Ry     beta= 0.30
     Davidson diagonalization with overlap

---- Real-time Memory Report at c_bands before calling an iterative solver
            91 MiB given to the printing process from OS
             0 MiB allocation reported by mallinfo(arena+hblkhd)
         55867 MiB available memory on the node where the printing process lives
------------------
     ethr =  3.44E-05,  avg # of iterations =  1.0

     total cpu time spent up to now is       61.8 secs

     total energy              =    -723.23320158 Ry
     estimated scf accuracy    <       0.02292615 Ry

     iteration # 11     ecut=    50.00 Ry     beta= 0.30
     Davidson diagonalization with overlap

---- Real-time Memory Report at c_bands before calling an iterative solver
            91 MiB given to the printing process from OS
             0 MiB allocation reported by mallinfo(arena+hblkhd)
         55868 MiB available memory on the node where the printing process lives
------------------
     ethr =  3.18E-05,  avg # of iterations =  1.0

     total cpu time spent up to now is       65.8 secs

     total energy              =    -723.23181377 Ry
     estimated scf accuracy    <       0.01624269 Ry

     iteration # 12     ecut=    50.00 Ry     beta= 0.30
     Davidson diagonalization with overlap

---- Real-time Memory Report at c_bands before calling an iterative solver
            91 MiB given to the printing process from OS
             0 MiB allocation reported by mallinfo(arena+hblkhd)
         55869 MiB available memory on the node where the printing process lives
------------------
     ethr =  2.26E-05,  avg # of iterations =  1.0

     total cpu time spent up to now is       69.8 secs

     total energy              =    -723.23463234 Ry
     estimated scf accuracy    <       0.01145493 Ry

     iteration # 13     ecut=    50.00 Ry     beta= 0.30
     Davidson diagonalization with overlap

---- Real-time Memory Report at c_bands before calling an iterative solver
            91 MiB given to the printing process from OS
             0 MiB allocation reported by mallinfo(arena+hblkhd)
         55869 MiB available memory on the node where the printing process lives
------------------
     ethr =  1.59E-05,  avg # of iterations =  1.0

     total cpu time spent up to now is       73.8 secs

     total energy              =    -723.24323295 Ry
     estimated scf accuracy    <       0.01582370 Ry

     iteration # 14     ecut=    50.00 Ry     beta= 0.30
     Davidson diagonalization with overlap

---- Real-time Memory Report at c_bands before calling an iterative solver
            91 MiB given to the printing process from OS
             0 MiB allocation reported by mallinfo(arena+hblkhd)
         55871 MiB available memory on the node where the printing process lives
------------------
     ethr =  1.59E-05,  avg # of iterations =  2.4

     total cpu time spent up to now is       78.7 secs

     total energy              =    -723.24330432 Ry
     estimated scf accuracy    <       0.03544547 Ry

     iteration # 15     ecut=    50.00 Ry     beta= 0.30
     Davidson diagonalization with overlap

---- Real-time Memory Report at c_bands before calling an iterative solver
            91 MiB given to the printing process from OS
             0 MiB allocation reported by mallinfo(arena+hblkhd)
         55871 MiB available memory on the node where the printing process lives
------------------
     ethr =  1.59E-05,  avg # of iterations =  1.2

     total cpu time spent up to now is       82.8 secs

     total energy              =    -723.22332227 Ry
     estimated scf accuracy    <       0.03849624 Ry

     iteration # 16     ecut=    50.00 Ry     beta= 0.30
     Davidson diagonalization with overlap

---- Real-time Memory Report at c_bands before calling an iterative solver
            91 MiB given to the printing process from OS
             0 MiB allocation reported by mallinfo(arena+hblkhd)
         55873 MiB available memory on the node where the printing process lives
------------------
     ethr =  1.59E-05,  avg # of iterations =  5.3

     total cpu time spent up to now is       90.6 secs

     total energy              =    -723.22997688 Ry
     estimated scf accuracy    <       0.00027120 Ry

     iteration # 17     ecut=    50.00 Ry     beta= 0.30
     Davidson diagonalization with overlap

---- Real-time Memory Report at c_bands before calling an iterative solver
            91 MiB given to the printing process from OS
             0 MiB allocation reported by mallinfo(arena+hblkhd)
         55872 MiB available memory on the node where the printing process lives
------------------
     c_bands:  1 eigenvalues not converged
     ethr =  3.77E-07,  avg # of iterations = 10.8

     total cpu time spent up to now is      104.8 secs

     total energy              =    -723.23029602 Ry
     estimated scf accuracy    <       0.00571296 Ry

     iteration # 18     ecut=    50.00 Ry     beta= 0.30
     Davidson diagonalization with overlap

---- Real-time Memory Report at c_bands before calling an iterative solver
            91 MiB given to the printing process from OS
             0 MiB allocation reported by mallinfo(arena+hblkhd)
         55875 MiB available memory on the node where the printing process lives
------------------
     ethr =  3.77E-07,  avg # of iterations =  6.8

     total cpu time spent up to now is      114.6 secs

     total energy              =    -723.23069729 Ry
     estimated scf accuracy    <       0.00165230 Ry

     iteration # 19     ecut=    50.00 Ry     beta= 0.30
     Davidson diagonalization with overlap

---- Real-time Memory Report at c_bands before calling an iterative solver
            91 MiB given to the printing process from OS
             0 MiB allocation reported by mallinfo(arena+hblkhd)
         55876 MiB available memory on the node where the printing process lives
------------------
     ethr =  3.77E-07,  avg # of iterations =  1.0

     total cpu time spent up to now is      118.6 secs

     total energy              =    -723.23013712 Ry
     estimated scf accuracy    <       0.00193574 Ry

     iteration # 20     ecut=    50.00 Ry     beta= 0.30
     Davidson diagonalization with overlap

---- Real-time Memory Report at c_bands before calling an iterative solver
            91 MiB given to the printing process from OS
             0 MiB allocation reported by mallinfo(arena+hblkhd)
         55871 MiB available memory on the node where the printing process lives
------------------
     ethr =  3.77E-07,  avg # of iterations =  4.7

     total cpu time spent up to now is      125.3 secs

     total energy              =    -723.23039837 Ry
     estimated scf accuracy    <       0.00050133 Ry

     iteration # 21     ecut=    50.00 Ry     beta= 0.30
     Davidson diagonalization with overlap

---- Real-time Memory Report at c_bands before calling an iterative solver
            91 MiB given to the printing process from OS
             0 MiB allocation reported by mallinfo(arena+hblkhd)
         55876 MiB available memory on the node where the printing process lives
------------------
     ethr =  3.77E-07,  avg # of iterations =  1.1

     total cpu time spent up to now is      129.3 secs

     total energy              =    -723.23037737 Ry
     estimated scf accuracy    <       0.00081974 Ry

     iteration # 22     ecut=    50.00 Ry     beta= 0.30
     Davidson diagonalization with overlap

---- Real-time Memory Report at c_bands before calling an iterative solver
            91 MiB given to the printing process from OS
             0 MiB allocation reported by mallinfo(arena+hblkhd)
         55877 MiB available memory on the node where the printing process lives
------------------
     ethr =  3.77E-07,  avg # of iterations =  1.0

     total cpu time spent up to now is      133.3 secs

     total energy              =    -723.23005097 Ry
     estimated scf accuracy    <       0.00079067 Ry

     iteration # 23     ecut=    50.00 Ry     beta= 0.30
     Davidson diagonalization with overlap

---- Real-time Memory Report at c_bands before calling an iterative solver
            91 MiB given to the printing process from OS
             0 MiB allocation reported by mallinfo(arena+hblkhd)
         55877 MiB available memory on the node where the printing process lives
------------------
     ethr =  3.77E-07,  avg # of iterations =  4.7

     total cpu time spent up to now is      139.3 secs

     total energy              =    -723.23010230 Ry
     estimated scf accuracy    <       0.00012680 Ry

     iteration # 24     ecut=    50.00 Ry     beta= 0.30
     Davidson diagonalization with overlap

---- Real-time Memory Report at c_bands before calling an iterative solver
            91 MiB given to the printing process from OS
             0 MiB allocation reported by mallinfo(arena+hblkhd)
         55878 MiB available memory on the node where the printing process lives
------------------
     ethr =  1.76E-07,  avg # of iterations =  4.8

     total cpu time spent up to now is      145.6 secs

     total energy              =    -723.23016329 Ry
     estimated scf accuracy    <       0.00001272 Ry

     iteration # 25     ecut=    50.00 Ry     beta= 0.30
     Davidson diagonalization with overlap

---- Real-time Memory Report at c_bands before calling an iterative solver
            91 MiB given to the printing process from OS
             0 MiB allocation reported by mallinfo(arena+hblkhd)
         55878 MiB available memory on the node where the printing process lives
------------------
     ethr =  1.77E-08,  avg # of iterations =  5.5

     total cpu time spent up to now is      153.7 secs

     total energy              =    -723.23018455 Ry
     estimated scf accuracy    <       0.00008417 Ry

     iteration # 26     ecut=    50.00 Ry     beta= 0.30
     Davidson diagonalization with overlap

---- Real-time Memory Report at c_bands before calling an iterative solver
            91 MiB given to the printing process from OS
             0 MiB allocation reported by mallinfo(arena+hblkhd)
         55879 MiB available memory on the node where the printing process lives
------------------
     ethr =  1.77E-08,  avg # of iterations =  2.7

     total cpu time spent up to now is      158.5 secs

     total energy              =    -723.23017913 Ry
     estimated scf accuracy    <       0.00011876 Ry

     iteration # 27     ecut=    50.00 Ry     beta= 0.30
     Davidson diagonalization with overlap

---- Real-time Memory Report at c_bands before calling an iterative solver
            91 MiB given to the printing process from OS
             0 MiB allocation reported by mallinfo(arena+hblkhd)
         55880 MiB available memory on the node where the printing process lives
------------------
     ethr =  1.77E-08,  avg # of iterations =  1.1

     total cpu time spent up to now is      162.6 secs

     total energy              =    -723.23015640 Ry
     estimated scf accuracy    <       0.00011285 Ry

     iteration # 28     ecut=    50.00 Ry     beta= 0.30
     Davidson diagonalization with overlap

---- Real-time Memory Report at c_bands before calling an iterative solver
            91 MiB given to the printing process from OS
             0 MiB allocation reported by mallinfo(arena+hblkhd)
         55880 MiB available memory on the node where the printing process lives
------------------
     ethr =  1.77E-08,  avg # of iterations =  2.1

     total cpu time spent up to now is      167.2 secs

     total energy              =    -723.23014293 Ry
     estimated scf accuracy    <       0.00007025 Ry

     iteration # 29     ecut=    50.00 Ry     beta= 0.30
     Davidson diagonalization with overlap

---- Real-time Memory Report at c_bands before calling an iterative solver
            91 MiB given to the printing process from OS
             0 MiB allocation reported by mallinfo(arena+hblkhd)
         55881 MiB available memory on the node where the printing process lives
------------------
     ethr =  1.77E-08,  avg # of iterations =  5.3

     total cpu time spent up to now is      174.7 secs

     total energy              =    -723.23015124 Ry
     estimated scf accuracy    <       0.00001428 Ry

     iteration # 30     ecut=    50.00 Ry     beta= 0.30
     Davidson diagonalization with overlap

---- Real-time Memory Report at c_bands before calling an iterative solver
            91 MiB given to the printing process from OS
             0 MiB allocation reported by mallinfo(arena+hblkhd)
         55881 MiB available memory on the node where the printing process lives
------------------
     ethr =  1.77E-08,  avg # of iterations =  1.1

     total cpu time spent up to now is      178.7 secs

     total energy              =    -723.23015149 Ry
     estimated scf accuracy    <       0.00001698 Ry

     iteration # 31     ecut=    50.00 Ry     beta= 0.30
     Davidson diagonalization with overlap

---- Real-time Memory Report at c_bands before calling an iterative solver
            91 MiB given to the printing process from OS
             0 MiB allocation reported by mallinfo(arena+hblkhd)
         55881 MiB available memory on the node where the printing process lives
------------------
     ethr =  1.77E-08,  avg # of iterations =  1.0

     total cpu time spent up to now is      182.7 secs

     total energy              =    -723.23014711 Ry
     estimated scf accuracy    <       0.00001699 Ry

     iteration # 32     ecut=    50.00 Ry     beta= 0.30
     Davidson diagonalization with overlap

---- Real-time Memory Report at c_bands before calling an iterative solver
            91 MiB given to the printing process from OS
             0 MiB allocation reported by mallinfo(arena+hblkhd)
         55882 MiB available memory on the node where the printing process lives
------------------
     ethr =  1.77E-08,  avg # of iterations =  1.2

     total cpu time spent up to now is      186.7 secs

     total energy              =    -723.23014060 Ry
     estimated scf accuracy    <       0.00000853 Ry

     iteration # 33     ecut=    50.00 Ry     beta= 0.30
     Davidson diagonalization with overlap

---- Real-time Memory Report at c_bands before calling an iterative solver
            91 MiB given to the printing process from OS
             0 MiB allocation reported by mallinfo(arena+hblkhd)
         55882 MiB available memory on the node where the printing process lives
------------------
     ethr =  1.18E-08,  avg # of iterations =  8.0

     total cpu time spent up to now is      197.2 secs

     total energy              =    -723.23014723 Ry
     estimated scf accuracy    <       0.00002883 Ry

     iteration # 34     ecut=    50.00 Ry     beta= 0.30
     Davidson diagonalization with overlap

---- Real-time Memory Report at c_bands before calling an iterative solver
            91 MiB given to the printing process from OS
             0 MiB allocation reported by mallinfo(arena+hblkhd)
         55883 MiB available memory on the node where the printing process lives
------------------
     ethr =  1.18E-08,  avg # of iterations =  2.0

     total cpu time spent up to now is      201.7 secs

     total energy              =    -723.23014423 Ry
     estimated scf accuracy    <       0.00001374 Ry

     iteration # 35     ecut=    50.00 Ry     beta= 0.30
     Davidson diagonalization with overlap

---- Real-time Memory Report at c_bands before calling an iterative solver
            91 MiB given to the printing process from OS
             0 MiB allocation reported by mallinfo(arena+hblkhd)
         55883 MiB available memory on the node where the printing process lives
------------------
     ethr =  1.18E-08,  avg # of iterations =  4.4

     total cpu time spent up to now is      207.7 secs

     total energy              =    -723.23014646 Ry
     estimated scf accuracy    <       0.00000110 Ry

     iteration # 36     ecut=    50.00 Ry     beta= 0.30
     Davidson diagonalization with overlap

---- Real-time Memory Report at c_bands before calling an iterative solver
            91 MiB given to the printing process from OS
             0 MiB allocation reported by mallinfo(arena+hblkhd)
         55883 MiB available memory on the node where the printing process lives
------------------
     ethr =  1.52E-09,  avg # of iterations =  6.0

     total cpu time spent up to now is      215.3 secs

     End of self-consistent calculation

          k = 0.0000 0.0000 0.0000 (  3635 PWs)   bands (ev):

   -10.3209  -9.9857  -9.9857  -9.6235   1.7328   1.7486   1.7486   2.0123
     2.3538   2.3538   2.4646   2.4646   2.4646   2.4646   2.6085   2.6085
     3.6008   3.6008   3.7102   3.7102   3.7102   3.7102   3.7994   3.7994
     3.9876   5.6277   5.6277   7.4680   7.4680   7.8891   7.8891   7.8892
     7.8892   8.0101   8.3043   8.3043

     occupation numbers 
     1.0000   1.0000   1.0000   1.0000   1.0000   1.0000   1.0000   1.0000
     1.0000   1.0000   1.0000   1.0000   1.0000   1.0000   1.0000   1.0000
     1.0000   1.0000   1.0000   1.0000   1.0000   1.0000   1.0000   1.0000
     1.0000   1.0000   1.0000   1.0000   1.0000   1.0000   1.0000   1.0000
     1.0000   1.0000   1.0000   1.0000

          k = 0.0000 0.0000 0.0469 (  3653 PWs)   bands (ev):

   -10.3099 -10.0749  -9.8947  -9.6364   1.7119   1.7254   1.7997   2.0006
     2.3570   2.3570   2.4331   2.4331   2.4982   2.4982   2.6029   2.6029
     3.6045   3.6045   3.6835   3.6835   3.7356   3.7356   3.7968   3.7968
     4.0482   5.2081   6.0672   7.4825   7.4825   7.7808   7.7808   7.8063
     7.9970   7.9970   8.2901   8.2901

     occupation numbers 
     1.0000   1.0000   1.0000   1.0000   1.0000   1.0000   1.0000   1.0000
     1.0000   1.0000   1.0000   1.0000   1.0000   1.0000   1.0000   1.0000
     1.0000   1.0000   1.0000   1.0000   1.0000   1.0000   1.0000   1.0000
     1.0000   1.0000   1.0000   1.0000   1.0000   1.0000   1.0000   1.0000
     1.0000   1.0000   1.0000   1.0000

          k = 0.0000 0.0000 0.0939 (  3646 PWs)   bands (ev):

   -10.2774 -10.1564  -9.8083  -9.6738   1.6940   1.7087   1.8590   1.9670
     2.3672   2.3672   2.4056   2.4056   2.5317   2.5317   2.5869   2.5869
     3.6162   3.6162   3.6573   3.6573   3.7579   3.7579   3.7890   3.7890
     4.2207   4.8221   6.5167   7.4086   7.5249   7.5249   7.6795   7.6795
     8.0973   8.0973   8.2489   8.2489

     occupation numbers 
     1.0000   1.0000   1.0000   1.0000   1.0000   1.0000   1.0000   1.0000
     1.0000   1.0000   1.0000   1.0000   1.0000   1.0000   1.0000   1.0000
     1.0000   1.0000   1.0000   1.0000   1.0000   1.0000   1.0000   1.0000
     1.0000   1.0000   1.0000   1.0000   1.0000   1.0000   1.0000   1.0000
     1.0000   1.0000   1.0000   1.0000

          k = 0.0000 0.0000-0.1408 (  3658 PWs)   bands (ev):

   -10.2253 -10.2252  -9.7327  -9.7326   1.6946   1.6947   1.9174   1.9175
     2.3833   2.3833   2.3834   2.3834   2.5622   2.5622   2.5623   2.5623
     3.6342   3.6342   3.6343   3.6343   3.7758   3.7758   3.7758   3.7758
     4.4860   4.4860   6.9674   6.9675   7.5921   7.5921   7.5922   7.5922
     8.1831   8.1831   8.1832   8.1832

     occupation numbers 
     1.0000   1.0000   1.0000   1.0000   1.0000   1.0000   1.0000   1.0000
     1.0000   1.0000   1.0000   1.0000   1.0000   1.0000   1.0000   1.0000
     1.0000   1.0000   1.0000   1.0000   1.0000   1.0000   1.0000   1.0000
     1.0000   1.0000   1.0000   1.0000   1.0000   1.0000   1.0000   1.0000
     1.0000   1.0000   1.0000   1.0000

          k = 0.0000 0.1925 0.0000 (  3615 PWs)   bands (ev):

   -10.1379  -9.8393  -9.8393  -9.5227   1.7967   1.7967   1.9917   2.1185
     2.2319   2.4179   2.4499   2.4499   2.5592   2.5592   2.5739   2.7353
     3.5173   3.6056   3.6812   3.6812   3.7085   3.7086   3.8009   3.8052
     3.9826   5.6612   5.6612   6.4814   7.0845   7.0845   7.1427   7.1632
     7.6499   7.6499   7.8627   8.1423

     occupation numbers 
     1.0000   1.0000   1.0000   1.0000   1.0000   1.0000   1.0000   1.0000
     1.0000   1.0000   1.0000   1.0000   1.0000   1.0000   1.0000   1.0000
     1.0000   1.0000   1.0000   1.0000   1.0000   1.0000   1.0000   1.0000
     1.0000   1.0000   1.0000   1.0000   1.0000   1.0000   1.0000   1.0000
     1.0000   1.0000   1.0000   1.0000

          k = 0.0000 0.1925 0.0469 (  3624 PWs)   bands (ev):

   -10.1280  -9.9182  -9.7591  -9.5338   1.7915   1.8275   1.9705   2.0880
     2.2489   2.4084   2.4223   2.4893   2.5197   2.5742   2.6009   2.7286
     3.5243   3.6093   3.6424   3.6824   3.7183   3.7341   3.8019   3.8028
     4.0469   5.2689   6.0347   6.4951   6.9439   7.1192   7.1603   7.2418
     7.5205   7.7783   7.8219   8.1257

     occupation numbers 
     1.0000   1.0000   1.0000   1.0000   1.0000   1.0000   1.0000   1.0000
     1.0000   1.0000   1.0000   1.0000   1.0000   1.0000   1.0000   1.0000
     1.0000   1.0000   1.0000   1.0000   1.0000   1.0000   1.0000   1.0000
     1.0000   1.0000   1.0000   1.0000   1.0000   1.0000   1.0000   1.0000
     1.0000   1.0000   1.0000   1.0000

          k = 0.0000 0.1925 0.0939 (  3620 PWs)   bands (ev):

   -10.0989  -9.9907  -9.6833  -9.5662   1.8142   1.8796   1.9194   2.0209
     2.2843   2.3665   2.4352   2.4848   2.5246   2.5690   2.6420   2.7092
     3.5433   3.6048   3.6199   3.6578   3.7515   3.7576   3.7926   3.7966
     4.2386   4.8829   6.3560   6.5294   6.8392   6.9954   7.2120   7.3989
     7.4061   7.7141   7.8972   8.0768

     occupation numbers 
     1.0000   1.0000   1.0000   1.0000   1.0000   1.0000   1.0000   1.0000
     1.0000   1.0000   1.0000   1.0000   1.0000   1.0000   1.0000   1.0000
     1.0000   1.0000   1.0000   1.0000   1.0000   1.0000   1.0000   1.0000
     1.0000   1.0000   1.0000   1.0000   1.0000   1.0000   1.0000   1.0000
     1.0000   1.0000   1.0000   1.0000

          k = 0.0000 0.1925-0.1408 (  3610 PWs)   bands (ev):

   -10.0522 -10.0521  -9.6174  -9.6173   1.8607   1.8608   1.9467   1.9467
     2.3247   2.3248   2.4563   2.4564   2.5523   2.5523   2.6794   2.6794
     3.5709   3.5710   3.6365   3.6366   3.7776   3.7777   3.7784   3.7785
     4.5293   4.5293   6.5348   6.5349   6.8468   6.8469   7.2935   7.2936
     7.5680   7.5681   7.9989   7.9990

     occupation numbers 
     1.0000   1.0000   1.0000   1.0000   1.0000   1.0000   1.0000   1.0000
     1.0000   1.0000   1.0000   1.0000   1.0000   1.0000   1.0000   1.0000
     1.0000   1.0000   1.0000   1.0000   1.0000   1.0000   1.0000   1.0000
     1.0000   1.0000   1.0000   1.0000   1.0000   1.0000   1.0000   1.0000
     1.0000   1.0000   1.0000   1.0000

          k = 0.0000 0.3849 0.0000 (  3611 PWs)   bands (ev):

    -9.7294  -9.5316  -9.5316  -9.3337   1.7636   1.7636   1.8204   2.2029
     2.4924   2.6243   2.6277   2.6277   2.7290   2.7290   2.7710   3.0270
     3.5211   3.6852   3.6852   3.7167   3.7662   3.7663   3.8202   3.8296
     4.1571   4.8496   5.1117   5.1117   6.0363   6.4189   6.4189   6.4595
     7.1449   7.1449   7.2421   7.7838

     occupation numbers 
     1.0000   1.0000   1.0000   1.0000   1.0000   1.0000   1.0000   1.0000
     1.0000   1.0000   1.0000   1.0000   1.0000   1.0000   1.0000   1.0000
     1.0000   1.0000   1.0000   1.0000   1.0000   1.0000   1.0000   1.0000
     1.0000   1.0000   1.0000   1.0000   1.0000   1.0000   1.0000   1.0000
     1.0000   1.0000   1.0000   1.0000

          k = 0.0000 0.3849 0.0469 (  3595 PWs)   bands (ev):

    -9.7226  -9.5828  -9.4803  -9.3404   1.7408   1.8120   1.8167   2.1782
     2.4998   2.5992   2.6068   2.6599   2.6630   2.7644   2.7991   3.0156
     3.5214   3.6374   3.7184   3.7340   3.7528   3.7806   3.8272   3.8367
     4.2144   4.8780   4.9763   5.2007   6.0151   6.1398   6.4844   6.7017
     6.9742   7.2327   7.3127   7.7624

     occupation numbers 
     1.0000   1.0000   1.0000   1.0000   1.0000   1.0000   1.0000   1.0000
     1.0000   1.0000   1.0000   1.0000   1.0000   1.0000   1.0000   1.0000
     1.0000   1.0000   1.0000   1.0000   1.0000   1.0000   1.0000   1.0000
     1.0000   1.0000   1.0000   1.0000   1.0000   1.0000   1.0000   1.0000
     1.0000   1.0000   1.0000   1.0000

          k = 0.0000 0.3849 0.0939 (  3598 PWs)   bands (ev):

    -9.7029  -9.6306  -9.4325  -9.3601   1.7435   1.7900   1.8993   2.1056
     2.5216   2.5778   2.5787   2.6047   2.6924   2.7471   2.8685   2.9825
     3.5316   3.5933   3.7231   3.7407   3.7803   3.7950   3.8196   3.8430
     4.3831   4.8078   4.9609   5.1965   5.9536   5.9630   6.5564   6.8117
     6.9369   7.1935   7.4672   7.6993

     occupation numbers 
     1.0000   1.0000   1.0000   1.0000   1.0000   1.0000   1.0000   1.0000
     1.0000   1.0000   1.0000   1.0000   1.0000   1.0000   1.0000   1.0000
     1.0000   1.0000   1.0000   1.0000   1.0000   1.0000   1.0000   1.0000
     1.0000   1.0000   1.0000   1.0000   1.0000   1.0000   1.0000   1.0000
     1.0000   1.0000   1.0000   1.0000

          k = 0.0000 0.3849-0.1408 (  3598 PWs)   bands (ev):

    -9.6716  -9.6715  -9.3916  -9.3915   1.7635   1.7636   2.0026   2.0026
     2.5569   2.5570   2.5686   2.5687   2.7223   2.7224   2.9315   2.9316
     3.5566   3.5567   3.7306   3.7307   3.8083   3.8084   3.8198   3.8198
     4.6036   4.6037   5.0865   5.0865   5.9174   5.9175   6.6687   6.6688
     7.1009   7.1010   7.5987   7.5988

     occupation numbers 
     1.0000   1.0000   1.0000   1.0000   1.0000   1.0000   1.0000   1.0000
     1.0000   1.0000   1.0000   1.0000   1.0000   1.0000   1.0000   1.0000
     1.0000   1.0000   1.0000   1.0000   1.0000   1.0000   1.0000   1.0000
     1.0000   1.0000   1.0000   1.0000   1.0000   1.0000   1.0000   1.0000
     1.0000   1.0000   1.0000   1.0000

          k = 0.0000-0.5774 0.0000 (  3586 PWs)   bands (ev):

    -9.4776  -9.3693  -9.3693  -9.2699   1.7407   1.7407   1.9032   2.0390
     2.5010   2.5748   2.7394   2.7394   2.7953   2.7953   2.9739   3.1894
     3.5277   3.8364   3.8452   3.8452   3.8696   3.8739   3.8739   3.9880
     4.2411   4.4123   4.4123   4.8275   5.2435   6.0729   6.4198   6.4198
     6.5813   6.8688   6.8688   7.5841

     occupation numbers 
     1.0000   1.0000   1.0000   1.0000   1.0000   1.0000   1.0000   1.0000
     1.0000   1.0000   1.0000   1.0000   1.0000   1.0000   1.0000   1.0000
     1.0000   1.0000   1.0000   1.0000   1.0000   1.0000   1.0000   1.0000
     1.0000   1.0000   1.0000   1.0000   1.0000   1.0000   1.0000   1.0000
     1.0000   1.0000   1.0000   1.0000

          k = 0.0000-0.5774 0.0469 (  3586 PWs)   bands (ev):

    -9.4738  -9.3966  -9.3427  -9.2731   1.7434   1.7655   1.8903   2.0172
     2.5100   2.5821   2.6995   2.7117   2.7823   2.8848   2.9592   3.1735
     3.5482   3.8138   3.8367   3.8423   3.8487   3.8680   3.9195   3.9866
     4.2472   4.3573   4.4831   4.8044   5.2965   6.1029   6.1921   6.5840
     6.6012   6.6750   7.0578   7.5602

     occupation numbers 
     1.0000   1.0000   1.0000   1.0000   1.0000   1.0000   1.0000   1.0000
     1.0000   1.0000   1.0000   1.0000   1.0000   1.0000   1.0000   1.0000
     1.0000   1.0000   1.0000   1.0000   1.0000   1.0000   1.0000   1.0000
     1.0000   1.0000   1.0000   1.0000   1.0000   1.0000   1.0000   1.0000
     1.0000   1.0000   1.0000   1.0000

          k = 0.0000-0.5774 0.0939 (  3562 PWs)   bands (ev):

    -9.4626  -9.4225  -9.3184  -9.2827   1.7697   1.8167   1.8558   1.9601
     2.5367   2.6019   2.6394   2.6630   2.8282   2.9225   2.9753   3.1280
     3.6006   3.7436   3.8375   3.8403   3.8533   3.8638   3.9510   3.9814
     4.2630   4.3164   4.5674   4.7423   5.4467   5.9301   6.1892   6.4884
     6.6464   6.6696   7.2310   7.4900

     occupation numbers 
     1.0000   1.0000   1.0000   1.0000   1.0000   1.0000   1.0000   1.0000
     1.0000   1.0000   1.0000   1.0000   1.0000   1.0000   1.0000   1.0000
     1.0000   1.0000   1.0000   1.0000   1.0000   1.0000   1.0000   1.0000
     1.0000   1.0000   1.0000   1.0000   1.0000   1.0000   1.0000   1.0000
     1.0000   1.0000   1.0000   1.0000

          k = 0.0000-0.5774-0.1408 (  3560 PWs)   bands (ev):

    -9.4451  -9.4450  -9.2981  -9.2980   1.8111   1.8112   1.8865   1.8865
     2.5802   2.5803   2.6299   2.6300   2.8761   2.8761   3.0591   3.0592
     3.6696   3.6696   3.8387   3.8388   3.8584   3.8585   3.9705   3.9706
     4.2860   4.2860   4.6578   4.6579   5.6692   5.6692   6.3219   6.3220
     6.6818   6.6819   7.3779   7.3780

     occupation numbers 
     1.0000   1.0000   1.0000   1.0000   1.0000   1.0000   1.0000   1.0000
     1.0000   1.0000   1.0000   1.0000   1.0000   1.0000   1.0000   1.0000
     1.0000   1.0000   1.0000   1.0000   1.0000   1.0000   1.0000   1.0000
     1.0000   1.0000   1.0000   1.0000   1.0000   1.0000   1.0000   1.0000
     1.0000   1.0000   1.0000   1.0000

          k = 0.1667 0.2887 0.0000 (  3613 PWs)   bands (ev):

    -9.8403  -9.6113  -9.6113  -9.3776   1.8264   1.8264   2.0037   2.1667
     2.3160   2.5071   2.5071   2.6205   2.7011   2.7011   2.7662   2.9081
     3.4478   3.5931   3.6646   3.6646   3.7554   3.7554   3.8187   3.8552
     4.1059   5.4403   5.4403   5.5765   5.9170   6.5039   6.5039   6.6374
     7.0636   7.0637   7.5033   7.7050

     occupation numbers 
     1.0000   1.0000   1.0000   1.0000   1.0000   1.0000   1.0000   1.0000
     1.0000   1.0000   1.0000   1.0000   1.0000   1.0000   1.0000   1.0000
     1.0000   1.0000   1.0000   1.0000   1.0000   1.0000   1.0000   1.0000
     1.0000   1.0000   1.0000   1.0000   1.0000   1.0000   1.0000   1.0000
     1.0000   1.0000   1.0000   1.0000

          k = 0.1667 0.2887 0.0469 (  3607 PWs)   bands (ev):

    -9.8325  -9.6710  -9.5512  -9.3856   1.8253   1.8588   1.9862   2.1483
     2.3293   2.4779   2.5212   2.5949   2.6828   2.7404   2.7553   2.8993
     3.4553   3.6106   3.6202   3.7094   3.7492   3.7699   3.8160   3.8584
     4.1630   5.2046   5.6017   5.6281   5.9170   6.2276   6.6345   6.7633
     6.9379   7.2216   7.4807   7.6822

     occupation numbers 
     1.0000   1.0000   1.0000   1.0000   1.0000   1.0000   1.0000   1.0000
     1.0000   1.0000   1.0000   1.0000   1.0000   1.0000   1.0000   1.0000
     1.0000   1.0000   1.0000   1.0000   1.0000   1.0000   1.0000   1.0000
     1.0000   1.0000   1.0000   1.0000   1.0000   1.0000   1.0000   1.0000
     1.0000   1.0000   1.0000   1.0000

          k = 0.1667 0.2887 0.0939 (  3607 PWs)   bands (ev):

    -9.8099  -9.7264  -9.4950  -9.4091   1.8505   1.9220   1.9438   2.0916
     2.3612   2.4407   2.5204   2.5484   2.6896   2.7340   2.7883   2.8740
     3.4777   3.5586   3.6623   3.7100   3.7822   3.7845   3.8089   3.8510
     4.3459   4.9235   5.6777   5.7698   5.9065   5.9891   6.6381   6.7534
     7.0771   7.3754   7.4072   7.6155

     occupation numbers 
     1.0000   1.0000   1.0000   1.0000   1.0000   1.0000   1.0000   1.0000
     1.0000   1.0000   1.0000   1.0000   1.0000   1.0000   1.0000   1.0000
     1.0000   1.0000   1.0000   1.0000   1.0000   1.0000   1.0000   1.0000
     1.0000   1.0000   1.0000   1.0000   1.0000   1.0000   1.0000   1.0000
     1.0000   1.0000   1.0000   1.0000

          k = 0.1667 0.2887-0.1408 (  3618 PWs)   bands (ev):

    -9.7738  -9.7737  -9.4465  -9.4464   1.8936   1.8937   2.0070   2.0070
     2.4005   2.4005   2.5230   2.5230   2.7103   2.7104   2.8352   2.8353
     3.5130   3.5131   3.6911   3.6912   3.7978   3.7979   3.8229   3.8229
     4.6211   4.6211   5.8056   5.8057   5.8626   5.8626   6.6741   6.6742
     7.2723   7.2724   7.5103   7.5105

     occupation numbers 
     1.0000   1.0000   1.0000   1.0000   1.0000   1.0000   1.0000   1.0000
     1.0000   1.0000   1.0000   1.0000   1.0000   1.0000   1.0000   1.0000
     1.0000   1.0000   1.0000   1.0000   1.0000   1.0000   1.0000   1.0000
     1.0000   1.0000   1.0000   1.0000   1.0000   1.0000   1.0000   1.0000
     1.0000   1.0000   1.0000   1.0000

          k = 0.1667 0.4811 0.0000 (  3583 PWs)   bands (ev):

    -9.4877  -9.3728  -9.3728  -9.2662   1.8938   1.8938   1.9836   2.2339
     2.4873   2.5518   2.5518   2.7516   2.8276   2.9124   2.9125   3.1518
     3.5143   3.6068   3.6838   3.6839   3.9131   3.9583   3.9583   4.1693
     4.2434   4.6556   4.6556   4.7795   5.4346   5.5606   6.1904   6.1904
     6.6190   6.6190   6.7180   7.2337

     occupation numbers 
     1.0000   1.0000   1.0000   1.0000   1.0000   1.0000   1.0000   1.0000
     1.0000   1.0000   1.0000   1.0000   1.0000   1.0000   1.0000   1.0000
     1.0000   1.0000   1.0000   1.0000   1.0000   1.0000   1.0000   1.0000
     1.0000   1.0000   1.0000   1.0000   1.0000   1.0000   1.0000   1.0000
     1.0000   1.0000   1.0000   1.0000

          k = 0.1667 0.4811 0.0469 (  3586 PWs)   bands (ev):

    -9.4837  -9.4018  -9.3444  -9.2696   1.8849   1.9314   1.9772   2.2103
     2.4877   2.5026   2.6064   2.7218   2.8450   2.8831   2.9487   3.1340
     3.5173   3.6308   3.6438   3.7137   3.9137   3.9401   3.9852   4.1627
     4.2424   4.5450   4.7629   4.8201   5.4302   5.6010   5.9914   6.2350
     6.5716   6.7295   6.7632   7.2062

     occupation numbers 
     1.0000   1.0000   1.0000   1.0000   1.0000   1.0000   1.0000   1.0000
     1.0000   1.0000   1.0000   1.0000   1.0000   1.0000   1.0000   1.0000
     1.0000   1.0000   1.0000   1.0000   1.0000   1.0000   1.0000   1.0000
     1.0000   1.0000   1.0000   1.0000   1.0000   1.0000   1.0000   1.0000
     1.0000   1.0000   1.0000   1.0000

          k = 0.1667 0.4811 0.0939 (  3587 PWs)   bands (ev):

    -9.4719  -9.4293  -9.3184  -9.2799   1.9001   1.9580   1.9950   2.1512
     2.4701   2.4770   2.6518   2.6902   2.8583   2.8645   2.9909   3.0908
     3.5328   3.6011   3.6771   3.7254   3.9158   3.9280   4.0233   4.1252
     4.2744   4.4386   4.8559   4.8939   5.4550   5.7098   5.7687   6.0672
     6.6767   6.7504   6.8928   7.1286

     occupation numbers 
     1.0000   1.0000   1.0000   1.0000   1.0000   1.0000   1.0000   1.0000
     1.0000   1.0000   1.0000   1.0000   1.0000   1.0000   1.0000   1.0000
     1.0000   1.0000   1.0000   1.0000   1.0000   1.0000   1.0000   1.0000
     1.0000   1.0000   1.0000   1.0000   1.0000   1.0000   1.0000   1.0000
     1.0000   1.0000   1.0000   1.0000

          k = 0.1667 0.4811-0.1408 (  3592 PWs)   bands (ev):

    -9.4534  -9.4532  -9.2965  -9.2964   1.9289   1.9290   2.0738   2.0738
     2.4627   2.4628   2.6761   2.6762   2.8594   2.8594   3.0392   3.0393
     3.5622   3.5622   3.7131   3.7132   3.9202   3.9203   4.0722   4.0722
     4.3447   4.3448   4.9115   4.9115   5.5711   5.5712   5.8720   5.8721
     6.7454   6.7455   7.0158   7.0160

     occupation numbers 
     1.0000   1.0000   1.0000   1.0000   1.0000   1.0000   1.0000   1.0000
     1.0000   1.0000   1.0000   1.0000   1.0000   1.0000   1.0000   1.0000
     1.0000   1.0000   1.0000   1.0000   1.0000   1.0000   1.0000   1.0000
     1.0000   1.0000   1.0000   1.0000   1.0000   1.0000   1.0000   1.0000
     1.0000   1.0000   1.0000   1.0000

          k = 0.3333 0.5774 0.0000 (  3594 PWs)   bands (ev):

    -9.2999  -9.2999  -9.2940  -9.2940   1.9988   2.2080   2.2080   2.2919
     2.2919   2.6367   2.6367   2.7921   3.0375   3.0375   3.2288   3.2288
     3.4777   3.5544   3.5545   3.6055   3.8562   3.8562   4.1795   4.1795
     4.3320   4.3321   4.5539   4.6578   4.6578   5.6084   5.6085   6.0996
     6.0996   6.5954   6.5954   6.6425

     occupation numbers 
     1.0000   1.0000   1.0000   1.0000   1.0000   1.0000   1.0000   1.0000
     1.0000   1.0000   1.0000   1.0000   1.0000   1.0000   1.0000   1.0000
     1.0000   1.0000   1.0000   1.0000   1.0000   1.0000   1.0000   1.0000
     1.0000   1.0000   1.0000   1.0000   1.0000   1.0000   1.0000   1.0000
     1.0000   1.0000   1.0000   1.0000

          k = 0.3333 0.5774 0.0469 (  3582 PWs)   bands (ev):

    -9.2995  -9.2995  -9.2944  -9.2944   2.0073   2.2052   2.2288   2.2288
     2.3900   2.5904   2.5904   2.7662   3.0677   3.0677   3.2235   3.2235
     3.4825   3.5396   3.5683   3.6040   3.8715   3.8715   4.1367   4.1367
     4.3737   4.3737   4.5949   4.6400   4.6400   5.3500   5.8670   6.1347
     6.1347   6.5634   6.5634   6.6048

     occupation numbers 
     1.0000   1.0000   1.0000   1.0000   1.0000   1.0000   1.0000   1.0000
     1.0000   1.0000   1.0000   1.0000   1.0000   1.0000   1.0000   1.0000
     1.0000   1.0000   1.0000   1.0000   1.0000   1.0000   1.0000   1.0000
     1.0000   1.0000   1.0000   1.0000   1.0000   1.0000   1.0000   1.0000
     1.0000   1.0000   1.0000   1.0000

          k = 0.3333 0.5774 0.0939 (  3585 PWs)   bands (ev):

    -9.2984  -9.2984  -9.2955  -9.2955   2.0326   2.1320   2.2884   2.2884
     2.4891   2.4891   2.4954   2.6969   3.1248   3.1248   3.2061   3.2061
     3.4943   3.5242   3.5807   3.5990   3.9154   3.9154   4.0592   4.0592
     4.4481   4.4481   4.5918   4.5918   4.7111   5.1049   6.1113   6.2285
     6.2285   6.4752   6.4752   6.4958

     occupation numbers 
     1.0000   1.0000   1.0000   1.0000   1.0000   1.0000   1.0000   1.0000
     1.0000   1.0000   1.0000   1.0000   1.0000   1.0000   1.0000   1.0000
     1.0000   1.0000   1.0000   1.0000   1.0000   1.0000   1.0000   1.0000
     1.0000   1.0000   1.0000   1.0000   1.0000   1.0000   1.0000   1.0000
     1.0000   1.0000   1.0000   1.0000

          k = 0.3333 0.5774-0.1408 (  3576 PWs)   bands (ev):

    -9.2971  -9.2970  -9.2969  -9.2969   2.0742   2.0743   2.3799   2.3799
     2.3800   2.3800   2.6013   2.6013   3.1737   3.1737   3.1738   3.1738
     3.5090   3.5091   3.5911   3.5912   3.9812   3.9812   3.9813   3.9813
     4.5243   4.5243   4.5244   4.5244   4.8867   4.8868   6.3262   6.3263
     6.3532   6.3532   6.3533   6.3533

     occupation numbers 
     1.0000   1.0000   1.0000   1.0000   1.0000   1.0000   1.0000   1.0000
     1.0000   1.0000   1.0000   1.0000   1.0000   1.0000   1.0000   1.0000
     1.0000   1.0000   1.0000   1.0000   1.0000   1.0000   1.0000   1.0000
     1.0000   1.0000   1.0000   1.0000   1.0000   1.0000   1.0000   1.0000
     1.0000   1.0000   1.0000   1.0000

          k = 0.0000-0.1925 0.0469 (  3624 PWs)   bands (ev):

   -10.1280  -9.9182  -9.7591  -9.5338   1.7915   1.8275   1.9705   2.0880
     2.2489   2.4084   2.4223   2.4893   2.5197   2.5742   2.6009   2.7286
     3.5243   3.6093   3.6424   3.6824   3.7183   3.7341   3.8019   3.8028
     4.0469   5.2689   6.0347   6.4951   6.9439   7.1192   7.1603   7.2418
     7.5205   7.7783   7.8219   8.1257

     occupation numbers 
     1.0000   1.0000   1.0000   1.0000   1.0000   1.0000   1.0000   1.0000
     1.0000   1.0000   1.0000   1.0000   1.0000   1.0000   1.0000   1.0000
     1.0000   1.0000   1.0000   1.0000   1.0000   1.0000   1.0000   1.0000
     1.0000   1.0000   1.0000   1.0000   1.0000   1.0000   1.0000   1.0000
     1.0000   1.0000   1.0000   1.0000

          k = 0.0000-0.1925 0.0939 (  3620 PWs)   bands (ev):

   -10.0989  -9.9907  -9.6833  -9.5662   1.8142   1.8796   1.9194   2.0209
     2.2843   2.3665   2.4352   2.4848   2.5246   2.5690   2.6420   2.7092
     3.5433   3.6048   3.6199   3.6578   3.7515   3.7576   3.7926   3.7966
     4.2386   4.8829   6.3560   6.5294   6.8392   6.9954   7.2120   7.3989
     7.4061   7.7141   7.8972   8.0768

     occupation numbers 
     1.0000   1.0000   1.0000   1.0000   1.0000   1.0000   1.0000   1.0000
     1.0000   1.0000   1.0000   1.0000   1.0000   1.0000   1.0000   1.0000
     1.0000   1.0000   1.0000   1.0000   1.0000   1.0000   1.0000   1.0000
     1.0000   1.0000   1.0000   1.0000   1.0000   1.0000   1.0000   1.0000
     1.0000   1.0000   1.0000   1.0000

          k = 0.0000-0.3849 0.0469 (  3595 PWs)   bands (ev):

    -9.7226  -9.5828  -9.4803  -9.3404   1.7408   1.8120   1.8167   2.1782
     2.4999   2.5992   2.6068   2.6599   2.6630   2.7644   2.7991   3.0156
     3.5214   3.6374   3.7184   3.7340   3.7528   3.7806   3.8272   3.8367
     4.2144   4.8780   4.9763   5.2007   6.0151   6.1398   6.4844   6.7017
     6.9742   7.2327   7.3127   7.7624

     occupation numbers 
     1.0000   1.0000   1.0000   1.0000   1.0000   1.0000   1.0000   1.0000
     1.0000   1.0000   1.0000   1.0000   1.0000   1.0000   1.0000   1.0000
     1.0000   1.0000   1.0000   1.0000   1.0000   1.0000   1.0000   1.0000
     1.0000   1.0000   1.0000   1.0000   1.0000   1.0000   1.0000   1.0000
     1.0000   1.0000   1.0000   1.0000

          k = 0.0000-0.3849 0.0939 (  3598 PWs)   bands (ev):

    -9.7029  -9.6306  -9.4325  -9.3601   1.7435   1.7900   1.8993   2.1056
     2.5216   2.5778   2.5787   2.6047   2.6924   2.7471   2.8685   2.9825
     3.5316   3.5933   3.7231   3.7407   3.7803   3.7950   3.8196   3.8429
     4.3831   4.8078   4.9609   5.1965   5.9536   5.9630   6.5564   6.8117
     6.9369   7.1935   7.4672   7.6993

     occupation numbers 
     1.0000   1.0000   1.0000   1.0000   1.0000   1.0000   1.0000   1.0000
     1.0000   1.0000   1.0000   1.0000   1.0000   1.0000   1.0000   1.0000
     1.0000   1.0000   1.0000   1.0000   1.0000   1.0000   1.0000   1.0000
     1.0000   1.0000   1.0000   1.0000   1.0000   1.0000   1.0000   1.0000
     1.0000   1.0000   1.0000   1.0000

          k =-0.1667-0.4811 0.0469 (  3586 PWs)   bands (ev):

    -9.4837  -9.4018  -9.3444  -9.2696   1.8849   1.9314   1.9772   2.2103
     2.4877   2.5026   2.6064   2.7218   2.8450   2.8831   2.9487   3.1340
     3.5173   3.6308   3.6438   3.7137   3.9137   3.9401   3.9852   4.1627
     4.2424   4.5450   4.7629   4.8201   5.4302   5.6010   5.9914   6.2350
     6.5716   6.7295   6.7632   7.2062

     occupation numbers 
     1.0000   1.0000   1.0000   1.0000   1.0000   1.0000   1.0000   1.0000
     1.0000   1.0000   1.0000   1.0000   1.0000   1.0000   1.0000   1.0000
     1.0000   1.0000   1.0000   1.0000   1.0000   1.0000   1.0000   1.0000
     1.0000   1.0000   1.0000   1.0000   1.0000   1.0000   1.0000   1.0000
     1.0000   1.0000   1.0000   1.0000

          k =-0.1667-0.4811 0.0939 (  3587 PWs)   bands (ev):

    -9.4719  -9.4293  -9.3184  -9.2799   1.9001   1.9580   1.9950   2.1512
     2.4701   2.4770   2.6518   2.6902   2.8583   2.8645   2.9909   3.0908
     3.5328   3.6011   3.6771   3.7254   3.9158   3.9280   4.0233   4.1252
     4.2744   4.4386   4.8559   4.8939   5.4550   5.7098   5.7687   6.0672
     6.6767   6.7504   6.8928   7.1286

     occupation numbers 
     1.0000   1.0000   1.0000   1.0000   1.0000   1.0000   1.0000   1.0000
     1.0000   1.0000   1.0000   1.0000   1.0000   1.0000   1.0000   1.0000
     1.0000   1.0000   1.0000   1.0000   1.0000   1.0000   1.0000   1.0000
     1.0000   1.0000   1.0000   1.0000   1.0000   1.0000   1.0000   1.0000
     1.0000   1.0000   1.0000   1.0000

     highest occupied level (ev):     8.3043

!    total energy              =    -723.23014724 Ry
     estimated scf accuracy    <          3.9E-09 Ry

     The total energy is the sum of the following terms:
     one-electron contribution =    -286.15494325 Ry
     hartree contribution      =     228.14713300 Ry
     xc contribution           =    -219.42634587 Ry
     ewald contribution        =    -445.79599112 Ry

     convergence has been achieved in  36 iterations

     Forces acting on atoms (cartesian axes, Ry/au):

     atom    1 type  1   force =     0.00000000    0.00000000   -0.00402318
     atom    2 type  2   force =     0.00000000    0.00000000    0.00400510
     atom    3 type  1   force =     0.00000000    0.00000000   -0.00405083
     atom    4 type  2   force =     0.00000000   -0.00000000    0.00400368
     atom    5 type  1   force =     0.00000000   -0.00000000   -0.00399250
     atom    6 type  2   force =     0.00000000    0.00000000    0.00400061
     atom    7 type  1   force =     0.00000000    0.00000000   -0.00393879
     atom    8 type  2   force =     0.00000000    0.00000000    0.00399590
     The non-local contrib.  to forces
     atom    1 type  1   force =    -0.00000000    0.00000000   -0.13477221
     atom    2 type  2   force =     0.00000000    0.00000000   -0.10632822
     atom    3 type  1   force =     0.00000000    0.00000000   -0.13478036
     atom    4 type  2   force =     0.00000000    0.00000000   -0.10633307
     atom    5 type  1   force =     0.00000000    0.00000000   -0.13475083
     atom    6 type  2   force =     0.00000000   -0.00000000   -0.10635103
     atom    7 type  1   force =     0.00000000    0.00000000   -0.13471830
     atom    8 type  2   force =     0.00000000    0.00000000   -0.10636940
     The ionic contribution  to forces
     atom    1 type  1   force =    -0.00000000    0.00000000   -1.21241917
     atom    2 type  2   force =     0.00000000   -0.00000000    1.21241917
     atom    3 type  1   force =     0.00000000   -0.00000000   -1.21241917
     atom    4 type  2   force =    -0.00000000    0.00000000    1.21241917
     atom    5 type  1   force =    -0.00000000    0.00000000   -1.21241917
     atom    6 type  2   force =     0.00000000   -0.00000000    1.21241917
     atom    7 type  1   force =     0.00000000   -0.00000000   -1.21241917
     atom    8 type  2   force =    -0.00000000    0.00000000    1.21241917
     The local contribution  to forces
     atom    1 type  1   force =     0.00000000   -0.00000000    1.33482947
     atom    2 type  2   force =     0.00000001   -0.00000001   -1.10282686
     atom    3 type  1   force =     0.00000004   -0.00000002    1.33486202
     atom    4 type  2   force =    -0.00000000    0.00000000   -1.10281958
     atom    5 type  1   force =    -0.00000000    0.00000000    1.33477011
     atom    6 type  2   force =     0.00000001   -0.00000001   -1.10285684
     atom    7 type  1   force =     0.00000004   -0.00000002    1.33469449
     atom    8 type  2   force =     0.00000000   -0.00000000   -1.10286920
     The core correction contribution to forces
     atom    1 type  1   force =     0.00000000    0.00000000    0.00838178
     atom    2 type  2   force =    -0.00000000    0.00000000    0.00078453
     atom    3 type  1   force =     0.00000001   -0.00000000    0.00838198
     atom    4 type  2   force =     0.00000000   -0.00000000    0.00078586
     atom    5 type  1   force =     0.00000000    0.00000000    0.00838406
     atom    6 type  2   force =    -0.00000000    0.00000000    0.00078475
     atom    7 type  1   force =     0.00000001   -0.00000000    0.00838326
     atom    8 type  2   force =     0.00000000   -0.00000000    0.00078377
     The Hubbard contrib.    to forces
     atom    1 type  1   force =     0.00000000    0.00000000    0.00000000
     atom    2 type  2   force =     0.00000000    0.00000000    0.00000000
     atom    3 type  1   force =     0.00000000    0.00000000    0.00000000
     atom    4 type  2   force =     0.00000000    0.00000000    0.00000000
     atom    5 type  1   force =     0.00000000    0.00000000    0.00000000
     atom    6 type  2   force =     0.00000000    0.00000000    0.00000000
     atom    7 type  1   force =     0.00000000    0.00000000    0.00000000
     atom    8 type  2   force =     0.00000000    0.00000000    0.00000000
     The SCF correction term to forces
     atom    1 type  1   force =     0.00000000   -0.00000000   -0.00004511
     atom    2 type  2   force =    -0.00000000    0.00000000   -0.00004558
     atom    3 type  1   force =    -0.00000000    0.00000000   -0.00009736
     atom    4 type  2   force =     0.00000000   -0.00000000   -0.00005076
     atom    5 type  1   force =     0.00000000   -0.00000000    0.00002127
     atom    6 type  2   force =    -0.00000000    0.00000000    0.00000251
     atom    7 type  1   force =    -0.00000000    0.00000000    0.00011886
     atom    8 type  2   force =     0.00000000   -0.00000000    0.00002950

     Total force =     0.011318     Total SCF correction =     0.000178

     init_run     :      3.69s CPU      3.86s WALL (       1 calls)
     electrons    :    202.57s CPU    211.02s WALL (       1 calls)
     forces       :      1.08s CPU      1.09s WALL (       1 calls)

     Called by init_run:
     wfcinit      :      2.05s CPU      2.16s WALL (       1 calls)
     wfcinit:atom :      0.02s CPU      0.02s WALL (      17 calls)
     wfcinit:wfcr :      1.91s CPU      2.01s WALL (      17 calls)
     potinit      :      0.69s CPU      0.70s WALL (       1 calls)
     hinit0       :      0.82s CPU      0.83s WALL (       1 calls)

     Called by electrons:
     c_bands      :    170.73s CPU    177.69s WALL (      36 calls)
     sum_band     :     26.04s CPU     27.40s WALL (      36 calls)
     v_of_rho     :      2.27s CPU      2.35s WALL (      37 calls)
     v_h          :      0.14s CPU      0.15s WALL (      37 calls)
     v_xc         :      2.19s CPU      2.26s WALL (      38 calls)
     newd         :      3.09s CPU      3.14s WALL (      37 calls)
     mix_rho      :      0.37s CPU      0.40s WALL (      36 calls)

     Called by c_bands:
     init_us_2    :      1.41s CPU      1.43s WALL (    1258 calls)
     init_us_2:cp :      1.40s CPU      1.43s WALL (    1258 calls)
     cegterg      :    153.61s CPU    160.51s WALL (     612 calls)

     Called by sum_band:
     sum_band:wei :      0.01s CPU      0.01s WALL (      36 calls)
     sum_band:loo :     21.74s CPU     22.94s WALL (      36 calls)
     sum_band:buf :      0.10s CPU      0.11s WALL (     612 calls)
     sum_band:ini :      0.68s CPU      0.69s WALL (     612 calls)
     sum_band:cal :      2.46s CPU      2.51s WALL (     612 calls)
     sum_band:bec :      0.07s CPU      0.07s WALL (     612 calls)
     addusdens    :      3.70s CPU      3.80s WALL (      36 calls)
                                        0.00s GPU  (      36 calls)
     addusd:skk   :      0.03s CPU      0.03s WALL (      72 calls)
                                        0.00s GPU  (      72 calls)

     Called by *egterg:
     cdiaghg      :     11.11s CPU     11.14s WALL (    2661 calls)
     cegterg:over :      6.66s CPU      6.83s WALL (    2049 calls)
     cegterg:upda :      4.13s CPU      4.14s WALL (    2049 calls)
     cegterg:last :      8.62s CPU      8.63s WALL (    1451 calls)
     h_psi        :    113.91s CPU    120.59s WALL (    2678 calls)
     s_psi        :      7.76s CPU      7.79s WALL (    2678 calls)
     g_psi        :      0.41s CPU      0.42s WALL (    2049 calls)

     Called by h_psi:
     h_psi:calbec :      7.37s CPU      7.64s WALL (    2678 calls)
     vloc_psi     :     98.34s CPU    104.71s WALL (    2678 calls)
     add_vuspsi   :      7.91s CPU      7.94s WALL (    2678 calls)

     General routines
     calbec       :     10.07s CPU     10.42s WALL (    3358 calls)
     fft          :      1.51s CPU      1.62s WALL (     490 calls)
     ffts         :      0.22s CPU      0.23s WALL (      73 calls)
     fftw         :     99.83s CPU    106.34s WALL (  148934 calls)
     interpolate  :      0.29s CPU      0.31s WALL (      37 calls)

     Parallel routines

     PWSCF        :   3m27.79s CPU   3m36.43s WALL


   This run was terminated on:  12:10:43  13Jul2025            

=------------------------------------------------------------------------------=
   JOB DONE.
=------------------------------------------------------------------------------=
Note: The following floating-point exceptions are signalling: IEEE_INVALID_FLAG
Note: The following floating-point exceptions are signalling: IEEE_INVALID_FLAG
