Authorization required, but no authorization protocol specified

Authorization required, but no authorization protocol specified

Authorization required, but no authorization protocol specified

Authorization required, but no authorization protocol specified

Authorization required, but no authorization protocol specified

Authorization required, but no authorization protocol specified

Authorization required, but no authorization protocol specified

Authorization required, but no authorization protocol specified

Authorization required, but no authorization protocol specified

Authorization required, but no authorization protocol specified


     Program PWSCF v.7.2 starts on 13Jul2025 at 15:21:54 

     This program is part of the open-source Quantum ESPRESSO suite
     for quantum simulation of materials; please cite
         "P. Giannozzi et al., J. Phys.:Condens. Matter 21 395502 (2009);
         "P. Giannozzi et al., J. Phys.:Condens. Matter 29 465901 (2017);
         "P. Giannozzi et al., J. Chem. Phys. 152 154105 (2020);
          URL http://www.quantum-espresso.org", 
     in publications or presentations arising from this work. More details at
     http://www.quantum-espresso.org/quote

     Parallel version (MPI), running on     8 processors

     MPI processes distributed on     1 nodes
     56210 MiB available memory on the printing compute node when the environment starts

     Reading input from /home/jvc/QEspresso7.2/ZnO_database/scripts/cell112.in/ZnO-3.40-1.65-112.in
Warning: card &CELL ignored
Warning: card / ignored
Warning: card &FCP ignored
Warning: card / ignored
Warning: card &RISM ignored
Warning: card / ignored

     Current dimensions of program PWSCF are:
     Max number of different atomic species (ntypx) = 10
     Max number of k-points (npk) =  40000
     Max angular momentum in pseudopotentials (lmaxx) =  4
     file Zn.upf: wavefunction(s)  3D renormalized
     Found identity + (  0.0000  0.0000 -0.5000) symmetry
     This is a supercell, fractional translations are disabled
     Message from routine setup:
     using ibrav=0 with symmetry is DISCOURAGED, use correct ibrav instead

     K-points division:     npool     =       2
     R & G space division:  proc/nbgrp/npool/nimage =       4
     Subspace diagonalization in iterative solution of the eigenvalue problem:
     a serial algorithm will be used


     Parallelization info
     --------------------
     sticks:   dense  smooth     PW     G-vecs:    dense   smooth      PW
     Min         286     142     40                25595     9034    1472
     Max         287     144     41                25601     9041    1487
     Sum        1147     571    163               102393    36149    5927

     Using Slab Decomposition



     bravais-lattice index     =            0
     lattice parameter (alat)  =       6.4260  a.u.
     unit-cell volume          =     756.8060 (a.u.)^3
     number of atoms/cell      =            8
     number of atomic types    =            2
     number of electrons       =        72.00
     number of Kohn-Sham states=           36
     kinetic-energy cutoff     =      50.0000  Ry
     charge density cutoff     =     400.0000  Ry
     scf convergence threshold =      1.0E-08
     mixing beta               =       0.3000
     number of iterations used =            8  plain     mixing
     Exchange-correlation= PBE
                           (   1   4   3   4   0   0   0)

     celldm(1)=   6.426008  celldm(2)=   0.000000  celldm(3)=   0.000000
     celldm(4)=   0.000000  celldm(5)=   0.000000  celldm(6)=   0.000000

     crystal axes: (cart. coord. in units of alat)
               a(1) = (   1.000000   0.000000   0.000000 )  
               a(2) = (  -0.500000   0.866025   0.000000 )  
               a(3) = (   0.000000   0.000000   3.293291 )  

     reciprocal axes: (cart. coord. in units 2 pi/alat)
               b(1) = (  1.000000  0.577350 -0.000000 )  
               b(2) = (  0.000000  1.154701  0.000000 )  
               b(3) = (  0.000000 -0.000000  0.303648 )  


     PseudoPot. # 1 for Zn read from file:
     /home/jvc/QEspresso7.2/ZnO_database/pseudos/Zn.upf
     MD5 check sum: 7f56cabf9682ed8c977c2f7d0c5985c5
     Pseudo is Ultrasoft + core correction, Zval = 12.0
     Generated using &quot;atomic&quot; code by A. Dal Corso  v.6.2.2
     Using radial grid of 1201 points,  6 beta functions with: 
                l(1) =   0
                l(2) =   0
                l(3) =   1
                l(4) =   1
                l(5) =   2
                l(6) =   2
     Q(r) pseudized with 0 coefficients 


     PseudoPot. # 2 for O  read from file:
     /home/jvc/QEspresso7.2/ZnO_database/pseudos/O.upf
     MD5 check sum: 91400c9766925bcf19f520983a725ff0
     Pseudo is Ultrasoft + core correction, Zval =  6.0
     Generated using &quot;atomic&quot; code by A. Dal Corso  v.6.3MaX
     Using radial grid of 1095 points,  4 beta functions with: 
                l(1) =   0
                l(2) =   0
                l(3) =   1
                l(4) =   1
     Q(r) pseudized with 0 coefficients 


     atomic species   valence    mass     pseudopotential
        Zn            12.00    65.38000     Zn( 1.00)
        O              6.00    15.99900     O ( 1.00)

      6 Sym. Ops. (no inversion) found


                                    s                        frac. trans.

      isym =  1     identity                                     

 cryst.   s( 1) = (     1          0          0      )
                  (     0          1          0      )
                  (     0          0          1      )

 cart.    s( 1) = (  1.0000000  0.0000000  0.0000000 )
                  (  0.0000000  1.0000000  0.0000000 )
                  (  0.0000000  0.0000000  1.0000000 )


      isym =  2     120 deg rotation - cryst. axis [0,0,1]       

 cryst.   s( 2) = (     0          1          0      )
                  (    -1         -1          0      )
                  (     0          0          1      )

 cart.    s( 2) = ( -0.5000000 -0.8660254  0.0000000 )
                  (  0.8660254 -0.5000000  0.0000000 )
                  (  0.0000000  0.0000000  1.0000000 )


      isym =  3     120 deg rotation - cryst. axis [0,0,-1]      

 cryst.   s( 3) = (    -1         -1          0      )
                  (     1          0          0      )
                  (     0          0          1      )

 cart.    s( 3) = ( -0.5000000  0.8660254  0.0000000 )
                  ( -0.8660254 -0.5000000  0.0000000 )
                  (  0.0000000  0.0000000  1.0000000 )


      isym =  4     inv. 180 deg rotation - cart. axis [1,0,0]   

 cryst.   s( 4) = (    -1          0          0      )
                  (     1          1          0      )
                  (     0          0          1      )

 cart.    s( 4) = ( -1.0000000  0.0000000  0.0000000 )
                  (  0.0000000  1.0000000  0.0000000 )
                  (  0.0000000  0.0000000  1.0000000 )


      isym =  5     inv. 180 deg rotation - cryst. axis [0,1,0]  

 cryst.   s( 5) = (     1          1          0      )
                  (     0         -1          0      )
                  (     0          0          1      )

 cart.    s( 5) = (  0.5000000  0.8660254  0.0000000 )
                  (  0.8660254 -0.5000000  0.0000000 )
                  (  0.0000000  0.0000000  1.0000000 )


      isym =  6     inv. 180 deg rotation - cryst. axis [1,1,0]  

 cryst.   s( 6) = (     0         -1          0      )
                  (    -1          0          0      )
                  (     0          0          1      )

 cart.    s( 6) = (  0.5000000 -0.8660254  0.0000000 )
                  ( -0.8660254 -0.5000000  0.0000000 )
                  (  0.0000000  0.0000000  1.0000000 )


   Cartesian axes

     site n.     atom                  positions (alat units)
         1           Zn  tau(   1) = (   0.0000000   0.0000000   0.0000000  )
         2           O   tau(   2) = (  -0.0000000   0.5773503   0.2092296  )
         3           Zn  tau(   3) = (  -0.0000000   0.5773503   0.8233228  )
         4           O   tau(   4) = (   0.0000000   0.0000000   1.0325524  )
         5           Zn  tau(   5) = (   0.0000000   0.0000000   1.6466455  )
         6           O   tau(   6) = (  -0.0000000   0.5773503   1.8558752  )
         7           Zn  tau(   7) = (  -0.0000000   0.5773503   2.4699683  )
         8           O   tau(   8) = (   0.0000000   0.0000000   2.6791979  )

   Crystallographic axes

     site n.     atom                  positions (cryst. coord.)
         1           Zn  tau(   1) = (  0.0000000  0.0000000  0.0000000  )
         2           O   tau(   2) = (  0.3333333  0.6666667  0.0635321  )
         3           Zn  tau(   3) = (  0.3333333  0.6666667  0.2500000  )
         4           O   tau(   4) = (  0.0000000  0.0000000  0.3135321  )
         5           Zn  tau(   5) = (  0.0000000  0.0000000  0.5000000  )
         6           O   tau(   6) = (  0.3333333  0.6666667  0.5635321  )
         7           Zn  tau(   7) = (  0.3333333  0.6666667  0.7500000  )
         8           O   tau(   8) = (  0.0000000  0.0000000  0.8135321  )

     number of k points=    34
                       cart. coord. in units 2pi/alat
        k(    1) = (   0.0000000   0.0000000   0.0000000), wk =   0.0092593
        k(    2) = (   0.0000000   0.0000000   0.0506079), wk =   0.0185185
        k(    3) = (   0.0000000   0.0000000   0.1012159), wk =   0.0185185
        k(    4) = (   0.0000000   0.0000000  -0.1518238), wk =   0.0092593
        k(    5) = (   0.0000000   0.1924501   0.0000000), wk =   0.0555556
        k(    6) = (   0.0000000   0.1924501   0.0506079), wk =   0.0555556
        k(    7) = (   0.0000000   0.1924501   0.1012159), wk =   0.0555556
        k(    8) = (   0.0000000   0.1924501  -0.1518238), wk =   0.0555556
        k(    9) = (   0.0000000   0.3849002   0.0000000), wk =   0.0555556
        k(   10) = (   0.0000000   0.3849002   0.0506079), wk =   0.0555556
        k(   11) = (   0.0000000   0.3849002   0.1012159), wk =   0.0555556
        k(   12) = (   0.0000000   0.3849002  -0.1518238), wk =   0.0555556
        k(   13) = (   0.0000000  -0.5773503   0.0000000), wk =   0.0277778
        k(   14) = (   0.0000000  -0.5773503   0.0506079), wk =   0.0555556
        k(   15) = (   0.0000000  -0.5773503   0.1012159), wk =   0.0555556
        k(   16) = (   0.0000000  -0.5773503  -0.1518238), wk =   0.0277778
        k(   17) = (   0.1666667   0.2886751   0.0000000), wk =   0.0555556
        k(   18) = (   0.1666667   0.2886751   0.0506079), wk =   0.1111111
        k(   19) = (   0.1666667   0.2886751   0.1012159), wk =   0.1111111
        k(   20) = (   0.1666667   0.2886751  -0.1518238), wk =   0.0555556
        k(   21) = (   0.1666667   0.4811252   0.0000000), wk =   0.1111111
        k(   22) = (   0.1666667   0.4811252   0.0506079), wk =   0.1111111
        k(   23) = (   0.1666667   0.4811252   0.1012159), wk =   0.1111111
        k(   24) = (   0.1666667   0.4811252  -0.1518238), wk =   0.1111111
        k(   25) = (   0.3333333   0.5773503   0.0000000), wk =   0.0185185
        k(   26) = (   0.3333333   0.5773503   0.0506079), wk =   0.0370370
        k(   27) = (   0.3333333   0.5773503   0.1012159), wk =   0.0370370
        k(   28) = (   0.3333333   0.5773503  -0.1518238), wk =   0.0185185
        k(   29) = (   0.0000000  -0.1924501   0.0506079), wk =   0.0555556
        k(   30) = (   0.0000000  -0.1924501   0.1012159), wk =   0.0555556
        k(   31) = (   0.0000000  -0.3849002   0.0506079), wk =   0.0555556
        k(   32) = (   0.0000000  -0.3849002   0.1012159), wk =   0.0555556
        k(   33) = (  -0.1666667  -0.4811252   0.0506079), wk =   0.1111111
        k(   34) = (  -0.1666667  -0.4811252   0.1012159), wk =   0.1111111

                       cryst. coord.
        k(    1) = (   0.0000000   0.0000000   0.0000000), wk =   0.0092593
        k(    2) = (   0.0000000   0.0000000   0.1666667), wk =   0.0185185
        k(    3) = (   0.0000000   0.0000000   0.3333333), wk =   0.0185185
        k(    4) = (   0.0000000   0.0000000  -0.5000000), wk =   0.0092593
        k(    5) = (   0.0000000   0.1666667   0.0000000), wk =   0.0555556
        k(    6) = (   0.0000000   0.1666667   0.1666667), wk =   0.0555556
        k(    7) = (   0.0000000   0.1666667   0.3333333), wk =   0.0555556
        k(    8) = (   0.0000000   0.1666667  -0.5000000), wk =   0.0555556
        k(    9) = (   0.0000000   0.3333333   0.0000000), wk =   0.0555556
        k(   10) = (   0.0000000   0.3333333   0.1666667), wk =   0.0555556
        k(   11) = (   0.0000000   0.3333333   0.3333333), wk =   0.0555556
        k(   12) = (   0.0000000   0.3333333  -0.5000000), wk =   0.0555556
        k(   13) = (   0.0000000  -0.5000000   0.0000000), wk =   0.0277778
        k(   14) = (   0.0000000  -0.5000000   0.1666667), wk =   0.0555556
        k(   15) = (   0.0000000  -0.5000000   0.3333333), wk =   0.0555556
        k(   16) = (   0.0000000  -0.5000000  -0.5000000), wk =   0.0277778
        k(   17) = (   0.1666667   0.1666667   0.0000000), wk =   0.0555556
        k(   18) = (   0.1666667   0.1666667   0.1666667), wk =   0.1111111
        k(   19) = (   0.1666667   0.1666667   0.3333333), wk =   0.1111111
        k(   20) = (   0.1666667   0.1666667  -0.5000000), wk =   0.0555556
        k(   21) = (   0.1666667   0.3333333   0.0000000), wk =   0.1111111
        k(   22) = (   0.1666667   0.3333333   0.1666667), wk =   0.1111111
        k(   23) = (   0.1666667   0.3333333   0.3333333), wk =   0.1111111
        k(   24) = (   0.1666667   0.3333333  -0.5000000), wk =   0.1111111
        k(   25) = (   0.3333333   0.3333333   0.0000000), wk =   0.0185185
        k(   26) = (   0.3333333   0.3333333   0.1666667), wk =   0.0370370
        k(   27) = (   0.3333333   0.3333333   0.3333333), wk =   0.0370370
        k(   28) = (   0.3333333   0.3333333  -0.5000000), wk =   0.0185185
        k(   29) = (   0.0000000  -0.1666667   0.1666667), wk =   0.0555556
        k(   30) = (   0.0000000  -0.1666667   0.3333333), wk =   0.0555556
        k(   31) = (   0.0000000  -0.3333333   0.1666667), wk =   0.0555556
        k(   32) = (   0.0000000  -0.3333333   0.3333333), wk =   0.0555556
        k(   33) = (  -0.1666667  -0.3333333   0.1666667), wk =   0.1111111
        k(   34) = (  -0.1666667  -0.3333333   0.3333333), wk =   0.1111111

     Dense  grid:   102393 G-vectors     FFT dimensions: (  45,  45, 135)

     Smooth grid:    36149 G-vectors     FFT dimensions: (  30,  30,  96)

     Dynamical RAM for                 wfc:       0.62 MB

     Dynamical RAM for     wfc (w. buffer):      11.16 MB

     Dynamical RAM for           str. fact:       0.78 MB

     Dynamical RAM for           local pot:       0.00 MB

     Dynamical RAM for          nlocal pot:       1.79 MB

     Dynamical RAM for                qrad:       3.21 MB

     Dynamical RAM for          rho,v,vnew:       2.75 MB

     Dynamical RAM for               rhoin:       0.92 MB

     Dynamical RAM for            rho*nmix:       6.25 MB

     Dynamical RAM for           G-vectors:       1.53 MB

     Dynamical RAM for          h,s,v(r/c):       0.24 MB

     Dynamical RAM for          <psi|beta>:       0.06 MB

     Dynamical RAM for                 psi:       1.24 MB

     Dynamical RAM for                hpsi:       1.24 MB

     Dynamical RAM for                spsi:       1.24 MB

     Dynamical RAM for      wfcinit/wfcrot:       1.85 MB

     Dynamical RAM for           addusdens:      37.30 MB

     Dynamical RAM for          addusforce:      38.48 MB

     Estimated static dynamical RAM per process >      25.94 MB

     Estimated max dynamical RAM per process >      70.67 MB

     Estimated total dynamical RAM >     540.39 MB

     Check: negative core charge=   -0.000002

     Initial potential from superposition of free atoms

     starting charge      71.9851, renormalised to      72.0000
     Starting wfcs are   52 randomized atomic wfcs

     total cpu time spent up to now is        4.7 secs

     Self-consistent Calculation

     iteration #  1     ecut=    50.00 Ry     beta= 0.30
     Davidson diagonalization with overlap

---- Real-time Memory Report at c_bands before calling an iterative solver
            83 MiB given to the printing process from OS
             0 MiB allocation reported by mallinfo(arena+hblkhd)
         55864 MiB available memory on the node where the printing process lives
------------------
     ethr =  1.00E-02,  avg # of iterations =  1.6

     total cpu time spent up to now is        9.7 secs

     total energy              =    -722.87529240 Ry
     estimated scf accuracy    <       1.50360537 Ry

     iteration #  2     ecut=    50.00 Ry     beta= 0.30
     Davidson diagonalization with overlap

---- Real-time Memory Report at c_bands before calling an iterative solver
           107 MiB given to the printing process from OS
             0 MiB allocation reported by mallinfo(arena+hblkhd)
         55716 MiB available memory on the node where the printing process lives
------------------
     ethr =  2.09E-03,  avg # of iterations =  2.3

     total cpu time spent up to now is       15.7 secs

     total energy              =    -723.11084108 Ry
     estimated scf accuracy    <       0.16711113 Ry

     iteration #  3     ecut=    50.00 Ry     beta= 0.30
     Davidson diagonalization with overlap

---- Real-time Memory Report at c_bands before calling an iterative solver
           109 MiB given to the printing process from OS
             0 MiB allocation reported by mallinfo(arena+hblkhd)
         55728 MiB available memory on the node where the printing process lives
------------------
     ethr =  2.32E-04,  avg # of iterations =  6.9

     total cpu time spent up to now is       25.4 secs

     total energy              =    -723.14551971 Ry
     estimated scf accuracy    <       0.16921733 Ry

     iteration #  4     ecut=    50.00 Ry     beta= 0.30
     Davidson diagonalization with overlap

---- Real-time Memory Report at c_bands before calling an iterative solver
           109 MiB given to the printing process from OS
             0 MiB allocation reported by mallinfo(arena+hblkhd)
         55732 MiB available memory on the node where the printing process lives
------------------
     ethr =  2.32E-04,  avg # of iterations =  9.7

     total cpu time spent up to now is       39.1 secs

     total energy              =    -723.28947458 Ry
     estimated scf accuracy    <       0.89317565 Ry

     iteration #  5     ecut=    50.00 Ry     beta= 0.30
     Davidson diagonalization with overlap

---- Real-time Memory Report at c_bands before calling an iterative solver
           109 MiB given to the printing process from OS
             0 MiB allocation reported by mallinfo(arena+hblkhd)
         55721 MiB available memory on the node where the printing process lives
------------------
     ethr =  2.32E-04,  avg # of iterations =  2.0

     total cpu time spent up to now is       44.3 secs

     total energy              =    -723.20471582 Ry
     estimated scf accuracy    <       0.56372944 Ry

     iteration #  6     ecut=    50.00 Ry     beta= 0.30
     Davidson diagonalization with overlap

---- Real-time Memory Report at c_bands before calling an iterative solver
           110 MiB given to the printing process from OS
             0 MiB allocation reported by mallinfo(arena+hblkhd)
         55734 MiB available memory on the node where the printing process lives
------------------
     ethr =  2.32E-04,  avg # of iterations =  3.3

     total cpu time spent up to now is       49.8 secs

     total energy              =    -723.12408309 Ry
     estimated scf accuracy    <       0.21021795 Ry

     iteration #  7     ecut=    50.00 Ry     beta= 0.30
     Davidson diagonalization with overlap

---- Real-time Memory Report at c_bands before calling an iterative solver
           110 MiB given to the printing process from OS
             0 MiB allocation reported by mallinfo(arena+hblkhd)
         55923 MiB available memory on the node where the printing process lives
------------------
     ethr =  2.32E-04,  avg # of iterations =  6.3

     total cpu time spent up to now is       58.3 secs

     total energy              =    -723.25412146 Ry
     estimated scf accuracy    <       0.10286943 Ry

     iteration #  8     ecut=    50.00 Ry     beta= 0.30
     Davidson diagonalization with overlap

---- Real-time Memory Report at c_bands before calling an iterative solver
           110 MiB given to the printing process from OS
             0 MiB allocation reported by mallinfo(arena+hblkhd)
         55911 MiB available memory on the node where the printing process lives
------------------
     ethr =  1.43E-04,  avg # of iterations =  1.2

     total cpu time spent up to now is       63.0 secs

     total energy              =    -723.24895237 Ry
     estimated scf accuracy    <       0.09637370 Ry

     iteration #  9     ecut=    50.00 Ry     beta= 0.30
     Davidson diagonalization with overlap

---- Real-time Memory Report at c_bands before calling an iterative solver
           110 MiB given to the printing process from OS
             0 MiB allocation reported by mallinfo(arena+hblkhd)
         55904 MiB available memory on the node where the printing process lives
------------------
     ethr =  1.34E-04,  avg # of iterations =  1.0

     total cpu time spent up to now is       67.7 secs

     total energy              =    -723.23891840 Ry
     estimated scf accuracy    <       0.08501844 Ry

     iteration # 10     ecut=    50.00 Ry     beta= 0.30
     Davidson diagonalization with overlap

---- Real-time Memory Report at c_bands before calling an iterative solver
           111 MiB given to the printing process from OS
             0 MiB allocation reported by mallinfo(arena+hblkhd)
         55727 MiB available memory on the node where the printing process lives
------------------
     ethr =  1.18E-04,  avg # of iterations =  1.0

     total cpu time spent up to now is       72.3 secs

     total energy              =    -723.23509930 Ry
     estimated scf accuracy    <       0.05817186 Ry

     iteration # 11     ecut=    50.00 Ry     beta= 0.30
     Davidson diagonalization with overlap

---- Real-time Memory Report at c_bands before calling an iterative solver
           111 MiB given to the printing process from OS
             0 MiB allocation reported by mallinfo(arena+hblkhd)
         55726 MiB available memory on the node where the printing process lives
------------------
     ethr =  8.08E-05,  avg # of iterations =  1.0

     total cpu time spent up to now is       77.0 secs

     total energy              =    -723.22793130 Ry
     estimated scf accuracy    <       0.04318379 Ry

     iteration # 12     ecut=    50.00 Ry     beta= 0.30
     Davidson diagonalization with overlap

---- Real-time Memory Report at c_bands before calling an iterative solver
           111 MiB given to the printing process from OS
             0 MiB allocation reported by mallinfo(arena+hblkhd)
         55733 MiB available memory on the node where the printing process lives
------------------
     ethr =  6.00E-05,  avg # of iterations =  1.1

     total cpu time spent up to now is       81.6 secs

     total energy              =    -723.22683924 Ry
     estimated scf accuracy    <       0.02316154 Ry

     iteration # 13     ecut=    50.00 Ry     beta= 0.30
     Davidson diagonalization with overlap

---- Real-time Memory Report at c_bands before calling an iterative solver
           111 MiB given to the printing process from OS
             0 MiB allocation reported by mallinfo(arena+hblkhd)
         55723 MiB available memory on the node where the printing process lives
------------------
     ethr =  3.22E-05,  avg # of iterations =  2.6

     total cpu time spent up to now is       87.1 secs

     total energy              =    -723.22499984 Ry
     estimated scf accuracy    <       0.00978707 Ry

     iteration # 14     ecut=    50.00 Ry     beta= 0.30
     Davidson diagonalization with overlap

---- Real-time Memory Report at c_bands before calling an iterative solver
           111 MiB given to the printing process from OS
             0 MiB allocation reported by mallinfo(arena+hblkhd)
         55732 MiB available memory on the node where the printing process lives
------------------
     ethr =  1.36E-05,  avg # of iterations =  5.8

     total cpu time spent up to now is       94.9 secs

     total energy              =    -723.22968556 Ry
     estimated scf accuracy    <       0.00085884 Ry

     iteration # 15     ecut=    50.00 Ry     beta= 0.30
     Davidson diagonalization with overlap

---- Real-time Memory Report at c_bands before calling an iterative solver
           111 MiB given to the printing process from OS
             0 MiB allocation reported by mallinfo(arena+hblkhd)
         55736 MiB available memory on the node where the printing process lives
------------------
     ethr =  1.19E-06,  avg # of iterations =  5.1

     total cpu time spent up to now is      102.2 secs

     total energy              =    -723.22991469 Ry
     estimated scf accuracy    <       0.00008283 Ry

     iteration # 16     ecut=    50.00 Ry     beta= 0.30
     Davidson diagonalization with overlap

---- Real-time Memory Report at c_bands before calling an iterative solver
           111 MiB given to the printing process from OS
             0 MiB allocation reported by mallinfo(arena+hblkhd)
         55718 MiB available memory on the node where the printing process lives
------------------
     ethr =  1.15E-07,  avg # of iterations = 10.6

     total cpu time spent up to now is      116.2 secs

     total energy              =    -723.23032631 Ry
     estimated scf accuracy    <       0.00084591 Ry

     iteration # 17     ecut=    50.00 Ry     beta= 0.30
     Davidson diagonalization with overlap

---- Real-time Memory Report at c_bands before calling an iterative solver
           111 MiB given to the printing process from OS
             0 MiB allocation reported by mallinfo(arena+hblkhd)
         55722 MiB available memory on the node where the printing process lives
------------------
     ethr =  1.15E-07,  avg # of iterations =  3.4

     total cpu time spent up to now is      121.9 secs

     total energy              =    -723.23026719 Ry
     estimated scf accuracy    <       0.00112990 Ry

     iteration # 18     ecut=    50.00 Ry     beta= 0.30
     Davidson diagonalization with overlap

---- Real-time Memory Report at c_bands before calling an iterative solver
           111 MiB given to the printing process from OS
             0 MiB allocation reported by mallinfo(arena+hblkhd)
         55729 MiB available memory on the node where the printing process lives
------------------
     ethr =  1.15E-07,  avg # of iterations =  1.0

     total cpu time spent up to now is      126.5 secs

     total energy              =    -723.23027848 Ry
     estimated scf accuracy    <       0.00106732 Ry

     iteration # 19     ecut=    50.00 Ry     beta= 0.30
     Davidson diagonalization with overlap

---- Real-time Memory Report at c_bands before calling an iterative solver
           111 MiB given to the printing process from OS
             0 MiB allocation reported by mallinfo(arena+hblkhd)
         55732 MiB available memory on the node where the printing process lives
------------------
     ethr =  1.15E-07,  avg # of iterations =  1.0

     total cpu time spent up to now is      131.2 secs

     total energy              =    -723.23074879 Ry
     estimated scf accuracy    <       0.00110895 Ry

     iteration # 20     ecut=    50.00 Ry     beta= 0.30
     Davidson diagonalization with overlap

---- Real-time Memory Report at c_bands before calling an iterative solver
           111 MiB given to the printing process from OS
             0 MiB allocation reported by mallinfo(arena+hblkhd)
         55725 MiB available memory on the node where the printing process lives
------------------
     ethr =  1.15E-07,  avg # of iterations =  8.6

     total cpu time spent up to now is      143.0 secs

     total energy              =    -723.23090317 Ry
     estimated scf accuracy    <       0.00366909 Ry

     iteration # 21     ecut=    50.00 Ry     beta= 0.30
     Davidson diagonalization with overlap

---- Real-time Memory Report at c_bands before calling an iterative solver
           111 MiB given to the printing process from OS
             0 MiB allocation reported by mallinfo(arena+hblkhd)
         55735 MiB available memory on the node where the printing process lives
------------------
     ethr =  1.15E-07,  avg # of iterations =  1.2

     total cpu time spent up to now is      147.7 secs

     total energy              =    -723.23030837 Ry
     estimated scf accuracy    <       0.00372380 Ry

     iteration # 22     ecut=    50.00 Ry     beta= 0.30
     Davidson diagonalization with overlap

---- Real-time Memory Report at c_bands before calling an iterative solver
           111 MiB given to the printing process from OS
             0 MiB allocation reported by mallinfo(arena+hblkhd)
         55728 MiB available memory on the node where the printing process lives
------------------
     ethr =  1.15E-07,  avg # of iterations =  5.6

     total cpu time spent up to now is      156.2 secs

     total energy              =    -723.23039215 Ry
     estimated scf accuracy    <       0.00170814 Ry

     iteration # 23     ecut=    50.00 Ry     beta= 0.30
     Davidson diagonalization with overlap

---- Real-time Memory Report at c_bands before calling an iterative solver
           111 MiB given to the printing process from OS
             0 MiB allocation reported by mallinfo(arena+hblkhd)
         55718 MiB available memory on the node where the printing process lives
------------------
     ethr =  1.15E-07,  avg # of iterations =  1.1

     total cpu time spent up to now is      160.9 secs

     total energy              =    -723.22981561 Ry
     estimated scf accuracy    <       0.00171130 Ry

     iteration # 24     ecut=    50.00 Ry     beta= 0.30
     Davidson diagonalization with overlap

---- Real-time Memory Report at c_bands before calling an iterative solver
           111 MiB given to the printing process from OS
             0 MiB allocation reported by mallinfo(arena+hblkhd)
         55733 MiB available memory on the node where the printing process lives
------------------
     ethr =  1.15E-07,  avg # of iterations =  9.9

     total cpu time spent up to now is      174.1 secs

     total energy              =    -723.22998348 Ry
     estimated scf accuracy    <       0.00008571 Ry

     iteration # 25     ecut=    50.00 Ry     beta= 0.30
     Davidson diagonalization with overlap

---- Real-time Memory Report at c_bands before calling an iterative solver
           111 MiB given to the printing process from OS
             0 MiB allocation reported by mallinfo(arena+hblkhd)
         55714 MiB available memory on the node where the printing process lives
------------------
     ethr =  1.15E-07,  avg # of iterations =  3.4

     total cpu time spent up to now is      179.7 secs

     total energy              =    -723.22998324 Ry
     estimated scf accuracy    <       0.00002387 Ry

     iteration # 26     ecut=    50.00 Ry     beta= 0.30
     Davidson diagonalization with overlap

---- Real-time Memory Report at c_bands before calling an iterative solver
           111 MiB given to the printing process from OS
             0 MiB allocation reported by mallinfo(arena+hblkhd)
         55728 MiB available memory on the node where the printing process lives
------------------
     ethr =  3.32E-08,  avg # of iterations =  5.9

     total cpu time spent up to now is      188.4 secs

     total energy              =    -723.23000013 Ry
     estimated scf accuracy    <       0.00000702 Ry

     iteration # 27     ecut=    50.00 Ry     beta= 0.30
     Davidson diagonalization with overlap

---- Real-time Memory Report at c_bands before calling an iterative solver
           111 MiB given to the printing process from OS
             0 MiB allocation reported by mallinfo(arena+hblkhd)
         55719 MiB available memory on the node where the printing process lives
------------------
     ethr =  9.76E-09,  avg # of iterations =  1.9

     total cpu time spent up to now is      193.4 secs

     total energy              =    -723.22999814 Ry
     estimated scf accuracy    <       0.00000308 Ry

     iteration # 28     ecut=    50.00 Ry     beta= 0.30
     Davidson diagonalization with overlap

---- Real-time Memory Report at c_bands before calling an iterative solver
           111 MiB given to the printing process from OS
             0 MiB allocation reported by mallinfo(arena+hblkhd)
         55718 MiB available memory on the node where the printing process lives
------------------
     ethr =  4.28E-09,  avg # of iterations =  7.8

     total cpu time spent up to now is      204.9 secs

     total energy              =    -723.23000172 Ry
     estimated scf accuracy    <       0.00001016 Ry

     iteration # 29     ecut=    50.00 Ry     beta= 0.30
     Davidson diagonalization with overlap

---- Real-time Memory Report at c_bands before calling an iterative solver
           111 MiB given to the printing process from OS
             0 MiB allocation reported by mallinfo(arena+hblkhd)
         55733 MiB available memory on the node where the printing process lives
------------------
     ethr =  4.28E-09,  avg # of iterations =  1.1

     total cpu time spent up to now is      209.6 secs

     total energy              =    -723.23000301 Ry
     estimated scf accuracy    <       0.00000761 Ry

     iteration # 30     ecut=    50.00 Ry     beta= 0.30
     Davidson diagonalization with overlap

---- Real-time Memory Report at c_bands before calling an iterative solver
           111 MiB given to the printing process from OS
             0 MiB allocation reported by mallinfo(arena+hblkhd)
         55721 MiB available memory on the node where the printing process lives
------------------
     ethr =  4.28E-09,  avg # of iterations =  1.1

     total cpu time spent up to now is      214.2 secs

     total energy              =    -723.22999915 Ry
     estimated scf accuracy    <       0.00000995 Ry

     iteration # 31     ecut=    50.00 Ry     beta= 0.30
     Davidson diagonalization with overlap

---- Real-time Memory Report at c_bands before calling an iterative solver
           111 MiB given to the printing process from OS
             0 MiB allocation reported by mallinfo(arena+hblkhd)
         55733 MiB available memory on the node where the printing process lives
------------------
     ethr =  4.28E-09,  avg # of iterations =  5.1

     total cpu time spent up to now is      221.3 secs

     total energy              =    -723.23000022 Ry
     estimated scf accuracy    <       0.00000056 Ry

     iteration # 32     ecut=    50.00 Ry     beta= 0.30
     Davidson diagonalization with overlap

---- Real-time Memory Report at c_bands before calling an iterative solver
           111 MiB given to the printing process from OS
             0 MiB allocation reported by mallinfo(arena+hblkhd)
         55729 MiB available memory on the node where the printing process lives
------------------
     ethr =  7.71E-10,  avg # of iterations =  6.1

     total cpu time spent up to now is      228.0 secs

     total energy              =    -723.23000039 Ry
     estimated scf accuracy    <       0.00000015 Ry

     iteration # 33     ecut=    50.00 Ry     beta= 0.30
     Davidson diagonalization with overlap

---- Real-time Memory Report at c_bands before calling an iterative solver
           111 MiB given to the printing process from OS
             0 MiB allocation reported by mallinfo(arena+hblkhd)
         55726 MiB available memory on the node where the printing process lives
------------------
     ethr =  2.09E-10,  avg # of iterations =  2.9

     total cpu time spent up to now is      233.5 secs

     total energy              =    -723.23000046 Ry
     estimated scf accuracy    <       0.00000008 Ry

     iteration # 34     ecut=    50.00 Ry     beta= 0.30
     Davidson diagonalization with overlap

---- Real-time Memory Report at c_bands before calling an iterative solver
           111 MiB given to the printing process from OS
             0 MiB allocation reported by mallinfo(arena+hblkhd)
         55720 MiB available memory on the node where the printing process lives
------------------
     ethr =  1.15E-10,  avg # of iterations =  2.9

     total cpu time spent up to now is      239.4 secs

     total energy              =    -723.23000044 Ry
     estimated scf accuracy    <       0.00000022 Ry

     iteration # 35     ecut=    50.00 Ry     beta= 0.30
     Davidson diagonalization with overlap

---- Real-time Memory Report at c_bands before calling an iterative solver
           111 MiB given to the printing process from OS
             0 MiB allocation reported by mallinfo(arena+hblkhd)
         55731 MiB available memory on the node where the printing process lives
------------------
     ethr =  1.15E-10,  avg # of iterations =  1.2

     total cpu time spent up to now is      244.2 secs

     total energy              =    -723.23000034 Ry
     estimated scf accuracy    <       0.00000018 Ry

     iteration # 36     ecut=    50.00 Ry     beta= 0.30
     Davidson diagonalization with overlap

---- Real-time Memory Report at c_bands before calling an iterative solver
           111 MiB given to the printing process from OS
             0 MiB allocation reported by mallinfo(arena+hblkhd)
         55723 MiB available memory on the node where the printing process lives
------------------
     ethr =  1.15E-10,  avg # of iterations =  5.8

     total cpu time spent up to now is      252.8 secs

     total energy              =    -723.23000040 Ry
     estimated scf accuracy    <       0.00000003 Ry

     iteration # 37     ecut=    50.00 Ry     beta= 0.30
     Davidson diagonalization with overlap

---- Real-time Memory Report at c_bands before calling an iterative solver
           111 MiB given to the printing process from OS
             0 MiB allocation reported by mallinfo(arena+hblkhd)
         55732 MiB available memory on the node where the printing process lives
------------------
     ethr =  3.66E-11,  avg # of iterations =  1.4

     total cpu time spent up to now is      257.6 secs

     total energy              =    -723.23000040 Ry
     estimated scf accuracy    <       0.00000001 Ry

     iteration # 38     ecut=    50.00 Ry     beta= 0.30
     Davidson diagonalization with overlap

---- Real-time Memory Report at c_bands before calling an iterative solver
           111 MiB given to the printing process from OS
             0 MiB allocation reported by mallinfo(arena+hblkhd)
         55722 MiB available memory on the node where the printing process lives
------------------
     ethr =  1.64E-11,  avg # of iterations =  2.5

     total cpu time spent up to now is      263.2 secs

     End of self-consistent calculation

          k = 0.0000 0.0000 0.0000 (  4505 PWs)   bands (ev):

   -11.8954 -11.6596 -11.6596 -11.4136  -0.1265  -0.1265  -0.0648  -0.0321
    -0.0321   0.0274   0.0274   0.0274   0.0274   0.1182   0.1182   0.3949
     0.7096   0.7096   0.7900   0.7900   0.7900   0.7900   0.8464   0.8464
     1.1156   2.8465   2.8465   4.4318   4.4318   4.7427   4.7427   4.7427
     4.7427   4.9678   5.0468   5.0468

     occupation numbers 
     1.0000   1.0000   1.0000   1.0000   1.0000   1.0000   1.0000   1.0000
     1.0000   1.0000   1.0000   1.0000   1.0000   1.0000   1.0000   1.0000
     1.0000   1.0000   1.0000   1.0000   1.0000   1.0000   1.0000   1.0000
     1.0000   1.0000   1.0000   1.0000   1.0000   1.0000   1.0000   1.0000
     1.0000   1.0000   1.0000   1.0000

          k = 0.0000 0.0000 0.0506 (  4523 PWs)   bands (ev):

   -11.8875 -11.7216 -11.5969 -11.4222  -0.1353  -0.0926  -0.0706  -0.0306
    -0.0306   0.0093   0.0093   0.0476   0.0476   0.1145   0.1145   0.3282
     0.7125   0.7125   0.7713   0.7713   0.8070   0.8070   0.8450   0.8450
     1.2205   2.4754   3.2228   4.4425   4.4425   4.6628   4.6628   4.7427
     4.8220   4.8220   5.0366   5.0366

     occupation numbers 
     1.0000   1.0000   1.0000   1.0000   1.0000   1.0000   1.0000   1.0000
     1.0000   1.0000   1.0000   1.0000   1.0000   1.0000   1.0000   1.0000
     1.0000   1.0000   1.0000   1.0000   1.0000   1.0000   1.0000   1.0000
     1.0000   1.0000   1.0000   1.0000   1.0000   1.0000   1.0000   1.0000
     1.0000   1.0000   1.0000   1.0000

          k = 0.0000 0.0000 0.1012 (  4542 PWs)   bands (ev):

   -11.8644 -11.7787 -11.5380 -11.4472  -0.1260  -0.0861  -0.0276  -0.0260
    -0.0260  -0.0061  -0.0061   0.0684   0.0684   0.1038   0.1038   0.1968
     0.7217   0.7217   0.7524   0.7524   0.8213   0.8213   0.8405   0.8405
     1.4646   2.1147   3.6027   4.3709   4.4738   4.4738   4.5881   4.5881
     4.8955   4.8955   5.0064   5.0064

     occupation numbers 
     1.0000   1.0000   1.0000   1.0000   1.0000   1.0000   1.0000   1.0000
     1.0000   1.0000   1.0000   1.0000   1.0000   1.0000   1.0000   1.0000
     1.0000   1.0000   1.0000   1.0000   1.0000   1.0000   1.0000   1.0000
     1.0000   1.0000   1.0000   1.0000   1.0000   1.0000   1.0000   1.0000
     1.0000   1.0000   1.0000   1.0000

          k = 0.0000 0.0000-0.1518 (  4548 PWs)   bands (ev):

   -11.8274 -11.8273 -11.4868 -11.4868  -0.1072  -0.1071  -0.0178  -0.0178
    -0.0178  -0.0178   0.0705   0.0705   0.0879   0.0879   0.0879   0.0879
     0.7354   0.7354   0.7354   0.7354   0.8327   0.8327   0.8327   0.8327
     1.7728   1.7729   3.9858   3.9858   4.5235   4.5235   4.5236   4.5236
     4.9584   4.9584   4.9584   4.9584

     occupation numbers 
     1.0000   1.0000   1.0000   1.0000   1.0000   1.0000   1.0000   1.0000
     1.0000   1.0000   1.0000   1.0000   1.0000   1.0000   1.0000   1.0000
     1.0000   1.0000   1.0000   1.0000   1.0000   1.0000   1.0000   1.0000
     1.0000   1.0000   1.0000   1.0000   1.0000   1.0000   1.0000   1.0000
     1.0000   1.0000   1.0000   1.0000

          k = 0.0000 0.1925 0.0000 (  4515 PWs)   bands (ev):

   -11.7903 -11.5808 -11.5808 -11.3656  -0.1537  -0.1537  -0.1022  -0.0033
     0.0242   0.0880   0.0880   0.1014   0.1014   0.1332   0.2081   0.4904
     0.6711   0.7109   0.7884   0.7884   0.7896   0.7896   0.8531   0.9758
     1.1561   2.7862   2.7862   3.5879   3.9561   4.1628   4.2079   4.2079
     4.5383   4.5383   4.8212   4.9044

     occupation numbers 
     1.0000   1.0000   1.0000   1.0000   1.0000   1.0000   1.0000   1.0000
     1.0000   1.0000   1.0000   1.0000   1.0000   1.0000   1.0000   1.0000
     1.0000   1.0000   1.0000   1.0000   1.0000   1.0000   1.0000   1.0000
     1.0000   1.0000   1.0000   1.0000   1.0000   1.0000   1.0000   1.0000
     1.0000   1.0000   1.0000   1.0000

          k = 0.0000 0.1925 0.0506 (  4514 PWs)   bands (ev):

   -11.7832 -11.6356 -11.5257 -11.3731  -0.1675  -0.1165  -0.1084  -0.0026
     0.0264   0.0690   0.0789   0.1141   0.1259   0.1266   0.2039   0.4301
     0.6767   0.7136   0.7625   0.7696   0.8065   0.8154   0.8512   0.9270
     1.2986   2.4914   3.0568   3.5925   3.9241   4.0626   4.1758   4.3623
     4.4422   4.6338   4.8012   4.8920

     occupation numbers 
     1.0000   1.0000   1.0000   1.0000   1.0000   1.0000   1.0000   1.0000
     1.0000   1.0000   1.0000   1.0000   1.0000   1.0000   1.0000   1.0000
     1.0000   1.0000   1.0000   1.0000   1.0000   1.0000   1.0000   1.0000
     1.0000   1.0000   1.0000   1.0000   1.0000   1.0000   1.0000   1.0000
     1.0000   1.0000   1.0000   1.0000

          k = 0.0000 0.1925 0.1012 (  4527 PWs)   bands (ev):

   -11.7626 -11.6863 -11.4739 -11.3948  -0.1623  -0.1247  -0.0603  -0.0022
     0.0330   0.0594   0.0596   0.1058   0.1496   0.1505   0.1917   0.3095
     0.6909   0.7218   0.7357   0.7511   0.8226   0.8392   0.8454   0.8869
     1.5625   2.1804   3.2953   3.5829   3.8613   3.9405   4.2138   4.3520
     4.5117   4.7223   4.7408   4.8557

     occupation numbers 
     1.0000   1.0000   1.0000   1.0000   1.0000   1.0000   1.0000   1.0000
     1.0000   1.0000   1.0000   1.0000   1.0000   1.0000   1.0000   1.0000
     1.0000   1.0000   1.0000   1.0000   1.0000   1.0000   1.0000   1.0000
     1.0000   1.0000   1.0000   1.0000   1.0000   1.0000   1.0000   1.0000
     1.0000   1.0000   1.0000   1.0000

          k = 0.0000 0.1925-0.1518 (  4540 PWs)   bands (ev):

   -11.7295 -11.7295 -11.4293 -11.4292  -0.1453  -0.1453  -0.0136  -0.0136
     0.0439   0.0440   0.0733   0.0733   0.1732   0.1732   0.2082   0.2082
     0.7111   0.7111   0.7347   0.7347   0.8357   0.8357   0.8615   0.8615
     1.8652   1.8652   3.4850   3.4850   3.8607   3.8607   4.2740   4.2740
     4.6418   4.6418   4.7979   4.7979

     occupation numbers 
     1.0000   1.0000   1.0000   1.0000   1.0000   1.0000   1.0000   1.0000
     1.0000   1.0000   1.0000   1.0000   1.0000   1.0000   1.0000   1.0000
     1.0000   1.0000   1.0000   1.0000   1.0000   1.0000   1.0000   1.0000
     1.0000   1.0000   1.0000   1.0000   1.0000   1.0000   1.0000   1.0000
     1.0000   1.0000   1.0000   1.0000

          k = 0.0000 0.3849 0.0000 (  4536 PWs)   bands (ev):

   -11.5574 -11.4187 -11.4187 -11.2834  -0.1805  -0.1805  -0.1526   0.0536
     0.1079   0.2467   0.2467   0.2733   0.2734   0.3104   0.4155   0.5258
     0.6929   0.7666   0.8107   0.8108   0.8185   0.8185   0.8661   1.0313
     1.5850   2.1826   2.1826   2.2606   2.9785   3.6218   3.8485   3.8486
     4.1215   4.1215   4.3681   4.5979

     occupation numbers 
     1.0000   1.0000   1.0000   1.0000   1.0000   1.0000   1.0000   1.0000
     1.0000   1.0000   1.0000   1.0000   1.0000   1.0000   1.0000   1.0000
     1.0000   1.0000   1.0000   1.0000   1.0000   1.0000   1.0000   1.0000
     1.0000   1.0000   1.0000   1.0000   1.0000   1.0000   1.0000   1.0000
     1.0000   1.0000   1.0000   1.0000

          k = 0.0000 0.3849 0.0506 (  4511 PWs)   bands (ev):

   -11.5526 -11.4543 -11.3833 -11.2879  -0.1994  -0.1576  -0.1408   0.0450
     0.1122   0.2082   0.2655   0.2874   0.2924   0.3065   0.4093   0.5031
     0.6912   0.7680   0.7827   0.7988   0.8236   0.8547   0.8639   1.0089
     1.6356   2.0761   2.2840   2.2933   2.9748   3.5832   3.6395   3.9954
     4.0745   4.2462   4.3714   4.5819

     occupation numbers 
     1.0000   1.0000   1.0000   1.0000   1.0000   1.0000   1.0000   1.0000
     1.0000   1.0000   1.0000   1.0000   1.0000   1.0000   1.0000   1.0000
     1.0000   1.0000   1.0000   1.0000   1.0000   1.0000   1.0000   1.0000
     1.0000   1.0000   1.0000   1.0000   1.0000   1.0000   1.0000   1.0000
     1.0000   1.0000   1.0000   1.0000

          k = 0.0000 0.3849 0.1012 (  4516 PWs)   bands (ev):

   -11.5386 -11.4877 -11.3506 -11.3013  -0.1998  -0.1711  -0.0854   0.0183
     0.1249   0.1740   0.2686   0.2954   0.3242   0.3272   0.3911   0.4419
     0.6976   0.7483   0.7722   0.7879   0.8363   0.8575   0.8906   0.9670
     1.7431   1.9680   2.3665   2.3676   2.9913   3.3147   3.6911   3.8761
     4.2385   4.3614   4.3690   4.5348

     occupation numbers 
     1.0000   1.0000   1.0000   1.0000   1.0000   1.0000   1.0000   1.0000
     1.0000   1.0000   1.0000   1.0000   1.0000   1.0000   1.0000   1.0000
     1.0000   1.0000   1.0000   1.0000   1.0000   1.0000   1.0000   1.0000
     1.0000   1.0000   1.0000   1.0000   1.0000   1.0000   1.0000   1.0000
     1.0000   1.0000   1.0000   1.0000

          k = 0.0000 0.3849-0.1518 (  4524 PWs)   bands (ev):

   -11.5165 -11.5165 -11.3226 -11.3226  -0.1877  -0.1877  -0.0274  -0.0274
     0.1458   0.1458   0.2806   0.2806   0.3628   0.3628   0.3740   0.3740
     0.7184   0.7184   0.7789   0.7789   0.8479   0.8479   0.9274   0.9274
     1.8577   1.8577   2.4052   2.4052   3.0979   3.0979   3.7721   3.7721
     4.3332   4.3332   4.4596   4.4597

     occupation numbers 
     1.0000   1.0000   1.0000   1.0000   1.0000   1.0000   1.0000   1.0000
     1.0000   1.0000   1.0000   1.0000   1.0000   1.0000   1.0000   1.0000
     1.0000   1.0000   1.0000   1.0000   1.0000   1.0000   1.0000   1.0000
     1.0000   1.0000   1.0000   1.0000   1.0000   1.0000   1.0000   1.0000
     1.0000   1.0000   1.0000   1.0000

          k = 0.0000-0.5774 0.0000 (  4528 PWs)   bands (ev):

   -11.4129 -11.3353 -11.3353 -11.2654  -0.1700  -0.1700  -0.1152   0.1316
     0.1453   0.3117   0.3117   0.3714   0.4266   0.4266   0.5316   0.5823
     0.7711   0.8323   0.8447   0.8447   0.8783   0.9103   0.9103   0.9372
     1.4946   1.6028   1.6028   2.0315   2.6650   3.3359   3.8682   3.8682
     3.9045   3.9046   3.9565   4.4348

     occupation numbers 
     1.0000   1.0000   1.0000   1.0000   1.0000   1.0000   1.0000   1.0000
     1.0000   1.0000   1.0000   1.0000   1.0000   1.0000   1.0000   1.0000
     1.0000   1.0000   1.0000   1.0000   1.0000   1.0000   1.0000   1.0000
     1.0000   1.0000   1.0000   1.0000   1.0000   1.0000   1.0000   1.0000
     1.0000   1.0000   1.0000   1.0000

          k = 0.0000-0.5774 0.0506 (  4514 PWs)   bands (ev):

   -11.4101 -11.3547 -11.3164 -11.2677  -0.1828  -0.1345  -0.1213   0.1237
     0.1373   0.2615   0.3649   0.3722   0.4054   0.4540   0.5238   0.5748
     0.7797   0.8327   0.8406   0.8500   0.8764   0.8910   0.9233   0.9370
     1.4870   1.5407   1.6800   2.0079   2.7293   3.3565   3.6569   3.7628
     3.9789   4.0136   4.0439   4.4170

     occupation numbers 
     1.0000   1.0000   1.0000   1.0000   1.0000   1.0000   1.0000   1.0000
     1.0000   1.0000   1.0000   1.0000   1.0000   1.0000   1.0000   1.0000
     1.0000   1.0000   1.0000   1.0000   1.0000   1.0000   1.0000   1.0000
     1.0000   1.0000   1.0000   1.0000   1.0000   1.0000   1.0000   1.0000
     1.0000   1.0000   1.0000   1.0000

          k = 0.0000-0.5774 0.1012 (  4514 PWs)   bands (ev):

   -11.4021 -11.3732 -11.2993 -11.2743  -0.1767  -0.1378  -0.0776   0.0672
     0.1537   0.2171   0.3748   0.3904   0.4168   0.4864   0.5004   0.5530
     0.8030   0.8336   0.8375   0.8563   0.8650   0.8708   0.9311   0.9366
     1.4750   1.4975   1.7680   1.9451   2.9018   3.4040   3.4162   3.6279
     4.0312   4.0812   4.1721   4.3647

     occupation numbers 
     1.0000   1.0000   1.0000   1.0000   1.0000   1.0000   1.0000   1.0000
     1.0000   1.0000   1.0000   1.0000   1.0000   1.0000   1.0000   1.0000
     1.0000   1.0000   1.0000   1.0000   1.0000   1.0000   1.0000   1.0000
     1.0000   1.0000   1.0000   1.0000   1.0000   1.0000   1.0000   1.0000
     1.0000   1.0000   1.0000   1.0000

          k = 0.0000-0.5774-0.1518 (  4504 PWs)   bands (ev):

   -11.3894 -11.3894 -11.2850 -11.2850  -0.1590  -0.1590  -0.0060  -0.0060
     0.1808   0.1808   0.3804   0.3804   0.4636   0.4636   0.5211   0.5211
     0.8341   0.8341   0.8353   0.8353   0.8636   0.8637   0.9351   0.9351
     1.4758   1.4758   1.8598   1.8598   3.1404   3.1404   3.5093   3.5094
     4.0781   4.0781   4.2813   4.2813

     occupation numbers 
     1.0000   1.0000   1.0000   1.0000   1.0000   1.0000   1.0000   1.0000
     1.0000   1.0000   1.0000   1.0000   1.0000   1.0000   1.0000   1.0000
     1.0000   1.0000   1.0000   1.0000   1.0000   1.0000   1.0000   1.0000
     1.0000   1.0000   1.0000   1.0000   1.0000   1.0000   1.0000   1.0000
     1.0000   1.0000   1.0000   1.0000

          k = 0.1667 0.2887 0.0000 (  4527 PWs)   bands (ev):

   -11.6203 -11.4601 -11.4601 -11.3009  -0.1422  -0.1422  -0.0781   0.0039
     0.0864   0.1477   0.1478   0.2086   0.2390   0.2390   0.3679   0.5810
     0.6367   0.7293   0.7938   0.7938   0.8184   0.8184   0.8613   1.0300
     1.4662   2.4593   2.4594   2.9182   2.9241   3.6733   3.8966   3.8966
     4.0800   4.0800   4.5348   4.5382

     occupation numbers 
     1.0000   1.0000   1.0000   1.0000   1.0000   1.0000   1.0000   1.0000
     1.0000   1.0000   1.0000   1.0000   1.0000   1.0000   1.0000   1.0000
     1.0000   1.0000   1.0000   1.0000   1.0000   1.0000   1.0000   1.0000
     1.0000   1.0000   1.0000   1.0000   1.0000   1.0000   1.0000   1.0000
     1.0000   1.0000   1.0000   1.0000

          k = 0.1667 0.2887 0.0506 (  4518 PWs)   bands (ev):

   -11.6149 -11.5015 -11.4187 -11.3063  -0.1557  -0.1077  -0.0857   0.0029
     0.0883   0.1307   0.1606   0.2043   0.2329   0.2633   0.3625   0.5305
     0.6439   0.7386   0.7657   0.7887   0.8214   0.8475   0.8593   1.0002
     1.5549   2.3117   2.5907   2.9064   2.9559   3.6707   3.6760   3.9040
     4.1775   4.1787   4.5211   4.5319

     occupation numbers 
     1.0000   1.0000   1.0000   1.0000   1.0000   1.0000   1.0000   1.0000
     1.0000   1.0000   1.0000   1.0000   1.0000   1.0000   1.0000   1.0000
     1.0000   1.0000   1.0000   1.0000   1.0000   1.0000   1.0000   1.0000
     1.0000   1.0000   1.0000   1.0000   1.0000   1.0000   1.0000   1.0000
     1.0000   1.0000   1.0000   1.0000

          k = 0.1667 0.2887 0.1012 (  4503 PWs)   bands (ev):

   -11.5989 -11.5402 -11.3803 -11.3221  -0.1495  -0.1055  -0.0610  -0.0026
     0.0939   0.1152   0.1663   0.1922   0.2599   0.2934   0.3468   0.4245
     0.6639   0.7287   0.7524   0.7769   0.8331   0.8533   0.8823   0.9550
     1.7442   2.1434   2.7058   2.8681   3.0523   3.4268   3.6924   3.8110
     4.2921   4.3423   4.4714   4.5126

     occupation numbers 
     1.0000   1.0000   1.0000   1.0000   1.0000   1.0000   1.0000   1.0000
     1.0000   1.0000   1.0000   1.0000   1.0000   1.0000   1.0000   1.0000
     1.0000   1.0000   1.0000   1.0000   1.0000   1.0000   1.0000   1.0000
     1.0000   1.0000   1.0000   1.0000   1.0000   1.0000   1.0000   1.0000
     1.0000   1.0000   1.0000   1.0000

          k = 0.1667 0.2887-0.1518 (  4488 PWs)   bands (ev):

   -11.5734 -11.5733 -11.3473 -11.3473  -0.1298  -0.1298  -0.0217  -0.0216
     0.1029   0.1029   0.1767   0.1767   0.3227   0.3227   0.3243   0.3243
     0.6936   0.6936   0.7648   0.7648   0.8442   0.8442   0.9172   0.9172
     1.9516   1.9516   2.8004   2.8004   3.2126   3.2126   3.7363   3.7363
     4.3929   4.3929   4.4549   4.4549

     occupation numbers 
     1.0000   1.0000   1.0000   1.0000   1.0000   1.0000   1.0000   1.0000
     1.0000   1.0000   1.0000   1.0000   1.0000   1.0000   1.0000   1.0000
     1.0000   1.0000   1.0000   1.0000   1.0000   1.0000   1.0000   1.0000
     1.0000   1.0000   1.0000   1.0000   1.0000   1.0000   1.0000   1.0000
     1.0000   1.0000   1.0000   1.0000

          k = 0.1667 0.4811 0.0000 (  4517 PWs)   bands (ev):

   -11.4176 -11.3365 -11.3365 -11.2629  -0.0786  -0.0786  -0.0638   0.1298
     0.2269   0.2574   0.2575   0.3921   0.3935   0.3935   0.5075   0.5561
     0.7107   0.7541   0.7987   0.7987   0.8960   0.9418   0.9419   1.0508
     1.6148   1.8164   1.8164   2.1157   2.7017   2.9827   3.4376   3.4376
     3.9702   3.9702   3.9781   4.1517

     occupation numbers 
     1.0000   1.0000   1.0000   1.0000   1.0000   1.0000   1.0000   1.0000
     1.0000   1.0000   1.0000   1.0000   1.0000   1.0000   1.0000   1.0000
     1.0000   1.0000   1.0000   1.0000   1.0000   1.0000   1.0000   1.0000
     1.0000   1.0000   1.0000   1.0000   1.0000   1.0000   1.0000   1.0000
     1.0000   1.0000   1.0000   1.0000

          k = 0.1667 0.4811 0.0506 (  4523 PWs)   bands (ev):

   -11.4147 -11.3568 -11.3167 -11.2653  -0.0917  -0.0645  -0.0448   0.1220
     0.2136   0.2178   0.3070   0.3878   0.3904   0.4059   0.4975   0.5431
     0.7049   0.7694   0.7821   0.8078   0.8959   0.9220   0.9660   1.0470
     1.6117   1.7435   1.8955   2.1158   2.7314   3.0207   3.2674   3.5873
     3.8064   3.9915   4.0904   4.1370

     occupation numbers 
     1.0000   1.0000   1.0000   1.0000   1.0000   1.0000   1.0000   1.0000
     1.0000   1.0000   1.0000   1.0000   1.0000   1.0000   1.0000   1.0000
     1.0000   1.0000   1.0000   1.0000   1.0000   1.0000   1.0000   1.0000
     1.0000   1.0000   1.0000   1.0000   1.0000   1.0000   1.0000   1.0000
     1.0000   1.0000   1.0000   1.0000

          k = 0.1667 0.4811 0.1012 (  4517 PWs)   bands (ev):

   -11.4063 -11.3761 -11.2987 -11.2723  -0.0880  -0.0680   0.0060   0.0997
     0.1842   0.1950   0.3454   0.3767   0.4091   0.4246   0.4730   0.5066
     0.7116   0.7592   0.7904   0.8097   0.8966   0.9080   0.9918   1.0354
     1.6142   1.6820   1.9755   2.0978   2.8184   3.1006   3.1359   3.5272
     3.8019   3.9932   4.1200   4.1440

     occupation numbers 
     1.0000   1.0000   1.0000   1.0000   1.0000   1.0000   1.0000   1.0000
     1.0000   1.0000   1.0000   1.0000   1.0000   1.0000   1.0000   1.0000
     1.0000   1.0000   1.0000   1.0000   1.0000   1.0000   1.0000   1.0000
     1.0000   1.0000   1.0000   1.0000   1.0000   1.0000   1.0000   1.0000
     1.0000   1.0000   1.0000   1.0000

          k = 0.1667 0.4811-0.1518 (  4518 PWs)   bands (ev):

   -11.3931 -11.3931 -11.2836 -11.2836  -0.0769  -0.0769   0.0601   0.0601
     0.1775   0.1775   0.3632   0.3633   0.4450   0.4450   0.4580   0.4580
     0.7332   0.7332   0.8041   0.8041   0.9000   0.9000   1.0161   1.0161
     1.6371   1.6371   2.0475   2.0475   2.9473   2.9473   3.3179   3.3179
     3.9179   3.9179   4.1406   4.1406

     occupation numbers 
     1.0000   1.0000   1.0000   1.0000   1.0000   1.0000   1.0000   1.0000
     1.0000   1.0000   1.0000   1.0000   1.0000   1.0000   1.0000   1.0000
     1.0000   1.0000   1.0000   1.0000   1.0000   1.0000   1.0000   1.0000
     1.0000   1.0000   1.0000   1.0000   1.0000   1.0000   1.0000   1.0000
     1.0000   1.0000   1.0000   1.0000

          k = 0.3333 0.5774 0.0000 (  4533 PWs)   bands (ev):

   -11.3004 -11.3004 -11.2957 -11.2957  -0.0649   0.0736   0.0736   0.1674
     0.1674   0.2808   0.2808   0.5699   0.5699   0.5706   0.6354   0.6354
     0.6871   0.7174   0.7174   0.7481   0.9281   0.9281   1.0647   1.0648
     1.7017   1.7017   1.8743   1.8743   1.9812   2.8788   2.8788   3.4484
     3.4484   3.7006   4.0108   4.0108

     occupation numbers 
     1.0000   1.0000   1.0000   1.0000   1.0000   1.0000   1.0000   1.0000
     1.0000   1.0000   1.0000   1.0000   1.0000   1.0000   1.0000   1.0000
     1.0000   1.0000   1.0000   1.0000   1.0000   1.0000   1.0000   1.0000
     1.0000   1.0000   1.0000   1.0000   1.0000   1.0000   1.0000   1.0000
     1.0000   1.0000   1.0000   1.0000

          k = 0.3333 0.5774 0.0506 (  4530 PWs)   bands (ev):

   -11.3001 -11.3001 -11.2960 -11.2960  -0.0583   0.0867   0.0867   0.0982
     0.2461   0.2663   0.2663   0.5500   0.5724   0.5724   0.6271   0.6271
     0.6880   0.7094   0.7253   0.7469   0.9411   0.9411   1.0578   1.0578
     1.7107   1.7107   1.8590   1.8590   2.0177   2.6646   3.0897   3.4895
     3.4895   3.6718   3.9754   3.9754

     occupation numbers 
     1.0000   1.0000   1.0000   1.0000   1.0000   1.0000   1.0000   1.0000
     1.0000   1.0000   1.0000   1.0000   1.0000   1.0000   1.0000   1.0000
     1.0000   1.0000   1.0000   1.0000   1.0000   1.0000   1.0000   1.0000
     1.0000   1.0000   1.0000   1.0000   1.0000   1.0000   1.0000   1.0000
     1.0000   1.0000   1.0000   1.0000

          k = 0.3333 0.5774 0.1012 (  4539 PWs)   bands (ev):

   -11.2992 -11.2992 -11.2968 -11.2968  -0.0384   0.0401   0.1230   0.1230
     0.2268   0.2268   0.3310   0.4940   0.5797   0.5797   0.6094   0.6094
     0.6909   0.7020   0.7329   0.7439   0.9720   0.9720   1.0377   1.0377
     1.7367   1.7367   1.8211   1.8211   2.1200   2.4584   3.2860   3.5879
     3.5982   3.5982   3.8774   3.8774

     occupation numbers 
     1.0000   1.0000   1.0000   1.0000   1.0000   1.0000   1.0000   1.0000
     1.0000   1.0000   1.0000   1.0000   1.0000   1.0000   1.0000   1.0000
     1.0000   1.0000   1.0000   1.0000   1.0000   1.0000   1.0000   1.0000
     1.0000   1.0000   1.0000   1.0000   1.0000   1.0000   1.0000   1.0000
     1.0000   1.0000   1.0000   1.0000

          k = 0.3333 0.5774-0.1518 (  4518 PWs)   bands (ev):

   -11.2980 -11.2980 -11.2980 -11.2980  -0.0056  -0.0056   0.1742   0.1742
     0.1742   0.1742   0.4168   0.4168   0.5923   0.5923   0.5924   0.5924
     0.6957   0.6957   0.7393   0.7394   1.0075   1.0075   1.0075   1.0075
     1.7760   1.7760   1.7760   1.7760   2.2723   2.2724   3.4559   3.4559
     3.7404   3.7404   3.7404   3.7404

     occupation numbers 
     1.0000   1.0000   1.0000   1.0000   1.0000   1.0000   1.0000   1.0000
     1.0000   1.0000   1.0000   1.0000   1.0000   1.0000   1.0000   1.0000
     1.0000   1.0000   1.0000   1.0000   1.0000   1.0000   1.0000   1.0000
     1.0000   1.0000   1.0000   1.0000   1.0000   1.0000   1.0000   1.0000
     1.0000   1.0000   1.0000   1.0000

          k = 0.0000-0.1925 0.0506 (  4514 PWs)   bands (ev):

   -11.7832 -11.6356 -11.5257 -11.3731  -0.1675  -0.1165  -0.1084  -0.0026
     0.0264   0.0690   0.0789   0.1141   0.1259   0.1266   0.2039   0.4301
     0.6767   0.7136   0.7625   0.7696   0.8065   0.8154   0.8512   0.9270
     1.2986   2.4914   3.0568   3.5925   3.9241   4.0626   4.1758   4.3623
     4.4422   4.6338   4.8012   4.8920

     occupation numbers 
     1.0000   1.0000   1.0000   1.0000   1.0000   1.0000   1.0000   1.0000
     1.0000   1.0000   1.0000   1.0000   1.0000   1.0000   1.0000   1.0000
     1.0000   1.0000   1.0000   1.0000   1.0000   1.0000   1.0000   1.0000
     1.0000   1.0000   1.0000   1.0000   1.0000   1.0000   1.0000   1.0000
     1.0000   1.0000   1.0000   1.0000

          k = 0.0000-0.1925 0.1012 (  4527 PWs)   bands (ev):

   -11.7626 -11.6863 -11.4739 -11.3948  -0.1623  -0.1247  -0.0603  -0.0021
     0.0330   0.0594   0.0596   0.1058   0.1496   0.1505   0.1917   0.3095
     0.6909   0.7218   0.7357   0.7511   0.8226   0.8392   0.8454   0.8869
     1.5625   2.1804   3.2953   3.5829   3.8613   3.9405   4.2138   4.3520
     4.5117   4.7223   4.7408   4.8557

     occupation numbers 
     1.0000   1.0000   1.0000   1.0000   1.0000   1.0000   1.0000   1.0000
     1.0000   1.0000   1.0000   1.0000   1.0000   1.0000   1.0000   1.0000
     1.0000   1.0000   1.0000   1.0000   1.0000   1.0000   1.0000   1.0000
     1.0000   1.0000   1.0000   1.0000   1.0000   1.0000   1.0000   1.0000
     1.0000   1.0000   1.0000   1.0000

          k = 0.0000-0.3849 0.0506 (  4511 PWs)   bands (ev):

   -11.5526 -11.4543 -11.3833 -11.2879  -0.1994  -0.1576  -0.1408   0.0450
     0.1122   0.2082   0.2655   0.2874   0.2924   0.3065   0.4093   0.5031
     0.6912   0.7680   0.7827   0.7988   0.8236   0.8547   0.8639   1.0089
     1.6356   2.0761   2.2840   2.2933   2.9748   3.5832   3.6395   3.9954
     4.0745   4.2462   4.3714   4.5819

     occupation numbers 
     1.0000   1.0000   1.0000   1.0000   1.0000   1.0000   1.0000   1.0000
     1.0000   1.0000   1.0000   1.0000   1.0000   1.0000   1.0000   1.0000
     1.0000   1.0000   1.0000   1.0000   1.0000   1.0000   1.0000   1.0000
     1.0000   1.0000   1.0000   1.0000   1.0000   1.0000   1.0000   1.0000
     1.0000   1.0000   1.0000   1.0000

          k = 0.0000-0.3849 0.1012 (  4516 PWs)   bands (ev):

   -11.5386 -11.4877 -11.3506 -11.3013  -0.1998  -0.1711  -0.0854   0.0183
     0.1249   0.1740   0.2686   0.2954   0.3242   0.3272   0.3911   0.4419
     0.6976   0.7484   0.7722   0.7879   0.8363   0.8575   0.8906   0.9670
     1.7431   1.9680   2.3665   2.3676   2.9913   3.3147   3.6911   3.8761
     4.2385   4.3614   4.3690   4.5348

     occupation numbers 
     1.0000   1.0000   1.0000   1.0000   1.0000   1.0000   1.0000   1.0000
     1.0000   1.0000   1.0000   1.0000   1.0000   1.0000   1.0000   1.0000
     1.0000   1.0000   1.0000   1.0000   1.0000   1.0000   1.0000   1.0000
     1.0000   1.0000   1.0000   1.0000   1.0000   1.0000   1.0000   1.0000
     1.0000   1.0000   1.0000   1.0000

          k =-0.1667-0.4811 0.0506 (  4523 PWs)   bands (ev):

   -11.4147 -11.3568 -11.3167 -11.2653  -0.0917  -0.0645  -0.0448   0.1220
     0.2136   0.2178   0.3070   0.3878   0.3904   0.4059   0.4975   0.5431
     0.7049   0.7694   0.7821   0.8078   0.8959   0.9220   0.9660   1.0470
     1.6117   1.7435   1.8955   2.1158   2.7314   3.0207   3.2674   3.5873
     3.8064   3.9915   4.0904   4.1370

     occupation numbers 
     1.0000   1.0000   1.0000   1.0000   1.0000   1.0000   1.0000   1.0000
     1.0000   1.0000   1.0000   1.0000   1.0000   1.0000   1.0000   1.0000
     1.0000   1.0000   1.0000   1.0000   1.0000   1.0000   1.0000   1.0000
     1.0000   1.0000   1.0000   1.0000   1.0000   1.0000   1.0000   1.0000
     1.0000   1.0000   1.0000   1.0000

          k =-0.1667-0.4811 0.1012 (  4517 PWs)   bands (ev):

   -11.4063 -11.3761 -11.2987 -11.2723  -0.0880  -0.0680   0.0060   0.0997
     0.1842   0.1951   0.3454   0.3767   0.4091   0.4246   0.4730   0.5066
     0.7116   0.7592   0.7904   0.8097   0.8966   0.9080   0.9918   1.0354
     1.6142   1.6820   1.9755   2.0978   2.8184   3.1006   3.1359   3.5272
     3.8019   3.9932   4.1200   4.1440

     occupation numbers 
     1.0000   1.0000   1.0000   1.0000   1.0000   1.0000   1.0000   1.0000
     1.0000   1.0000   1.0000   1.0000   1.0000   1.0000   1.0000   1.0000
     1.0000   1.0000   1.0000   1.0000   1.0000   1.0000   1.0000   1.0000
     1.0000   1.0000   1.0000   1.0000   1.0000   1.0000   1.0000   1.0000
     1.0000   1.0000   1.0000   1.0000

     highest occupied level (ev):     5.0468

!    total energy              =    -723.23000039 Ry
     estimated scf accuracy    <          4.0E-09 Ry

     The total energy is the sum of the following terms:
     one-electron contribution =    -339.81810942 Ry
     hartree contribution      =     247.62812478 Ry
     xc contribution           =    -218.56895402 Ry
     ewald contribution        =    -412.47106173 Ry

     convergence has been achieved in  38 iterations

     Forces acting on atoms (cartesian axes, Ry/au):

     atom    1 type  1   force =     0.00000000    0.00000000    0.00275768
     atom    2 type  2   force =     0.00000000    0.00000000   -0.00277724
     atom    3 type  1   force =     0.00000000    0.00000000    0.00277816
     atom    4 type  2   force =     0.00000000    0.00000000   -0.00277916
     atom    5 type  1   force =     0.00000000    0.00000000    0.00279849
     atom    6 type  2   force =     0.00000000    0.00000000   -0.00278568
     atom    7 type  1   force =     0.00000000    0.00000000    0.00279596
     atom    8 type  2   force =     0.00000000    0.00000000   -0.00278821
     The non-local contrib.  to forces
     atom    1 type  1   force =     0.00000000    0.00000000   -0.01787928
     atom    2 type  2   force =     0.00000000    0.00000000   -0.02493127
     atom    3 type  1   force =     0.00000000   -0.00000000   -0.01786767
     atom    4 type  2   force =     0.00000000    0.00000000   -0.02493629
     atom    5 type  1   force =     0.00000000    0.00000000   -0.01784961
     atom    6 type  2   force =     0.00000000   -0.00000000   -0.02494620
     atom    7 type  1   force =     0.00000000    0.00000000   -0.01785455
     atom    8 type  2   force =     0.00000000   -0.00000000   -0.02493941
     The ionic contribution  to forces
     atom    1 type  1   force =    -0.00000000    0.00000000   -0.22470320
     atom    2 type  2   force =     0.00000000   -0.00000000    0.22470320
     atom    3 type  1   force =     0.00000000   -0.00000000   -0.22470320
     atom    4 type  2   force =    -0.00000000    0.00000000    0.22470320
     atom    5 type  1   force =    -0.00000000    0.00000000   -0.22470320
     atom    6 type  2   force =     0.00000000   -0.00000000    0.22470320
     atom    7 type  1   force =     0.00000000   -0.00000000   -0.22470320
     atom    8 type  2   force =    -0.00000000    0.00000000    0.22470320
     The local contribution  to forces
     atom    1 type  1   force =     0.00000000    0.00000000    0.24460465
     atom    2 type  2   force =     0.00000001   -0.00000001   -0.20276495
     atom    3 type  1   force =     0.00000004   -0.00000003    0.24457387
     atom    4 type  2   force =     0.00000000    0.00000000   -0.20277705
     atom    5 type  1   force =    -0.00000000    0.00000000    0.24453977
     atom    6 type  2   force =     0.00000001   -0.00000001   -0.20278368
     atom    7 type  1   force =     0.00000004   -0.00000003    0.24455301
     atom    8 type  2   force =     0.00000000    0.00000000   -0.20277898
     The core correction contribution to forces
     atom    1 type  1   force =     0.00000000   -0.00000000    0.00077735
     atom    2 type  2   force =    -0.00000000    0.00000000    0.00023153
     atom    3 type  1   force =     0.00000001   -0.00000000    0.00078052
     atom    4 type  2   force =     0.00000000   -0.00000000    0.00023292
     atom    5 type  1   force =     0.00000000    0.00000000    0.00078208
     atom    6 type  2   force =    -0.00000000    0.00000000    0.00023164
     atom    7 type  1   force =     0.00000001   -0.00000000    0.00077912
     atom    8 type  2   force =     0.00000000   -0.00000000    0.00023022
     The Hubbard contrib.    to forces
     atom    1 type  1   force =     0.00000000    0.00000000    0.00000000
     atom    2 type  2   force =     0.00000000    0.00000000    0.00000000
     atom    3 type  1   force =     0.00000000    0.00000000    0.00000000
     atom    4 type  2   force =     0.00000000    0.00000000    0.00000000
     atom    5 type  1   force =     0.00000000    0.00000000    0.00000000
     atom    6 type  2   force =     0.00000000    0.00000000    0.00000000
     atom    7 type  1   force =     0.00000000    0.00000000    0.00000000
     atom    8 type  2   force =     0.00000000    0.00000000    0.00000000
     The SCF correction term to forces
     atom    1 type  1   force =    -0.00000000    0.00000000   -0.00003993
     atom    2 type  2   force =     0.00000000   -0.00000000   -0.00001384
     atom    3 type  1   force =     0.00000000   -0.00000000   -0.00000346
     atom    4 type  2   force =    -0.00000000    0.00000000   -0.00000003
     atom    5 type  1   force =    -0.00000000    0.00000000    0.00003136
     atom    6 type  2   force =     0.00000000   -0.00000000    0.00001126
     atom    7 type  1   force =     0.00000000   -0.00000000    0.00002348
     atom    8 type  2   force =    -0.00000000    0.00000000   -0.00000132

     Total force =     0.007870     Total SCF correction =     0.000059

     init_run     :      3.97s CPU      4.16s WALL (       1 calls)
     electrons    :    246.55s CPU    258.49s WALL (       1 calls)
     forces       :      1.31s CPU      1.38s WALL (       1 calls)

     Called by init_run:
     wfcinit      :      2.28s CPU      2.38s WALL (       1 calls)
     wfcinit:atom :      0.03s CPU      0.03s WALL (      17 calls)
     wfcinit:wfcr :      2.10s CPU      2.20s WALL (      17 calls)
     potinit      :      0.69s CPU      0.71s WALL (       1 calls)
     hinit0       :      0.83s CPU      0.85s WALL (       1 calls)

     Called by electrons:
     c_bands      :    207.56s CPU    214.97s WALL (      38 calls)
     sum_band     :     30.94s CPU     33.87s WALL (      38 calls)
     v_of_rho     :      2.99s CPU      3.10s WALL (      39 calls)
     v_h          :      0.17s CPU      0.18s WALL (      39 calls)
     v_xc         :      2.89s CPU      2.99s WALL (      40 calls)
     newd         :      4.47s CPU      5.99s WALL (      39 calls)
     mix_rho      :      0.48s CPU      0.51s WALL (      38 calls)

     Called by c_bands:
     init_us_2    :      1.88s CPU      1.90s WALL (    1326 calls)
     init_us_2:cp :      1.87s CPU      1.90s WALL (    1326 calls)
     cegterg      :    189.25s CPU    196.59s WALL (     646 calls)

     Called by sum_band:
     sum_band:wei :      0.00s CPU      0.00s WALL (      38 calls)
     sum_band:loo :     25.87s CPU     27.15s WALL (      38 calls)
     sum_band:buf :      0.13s CPU      0.14s WALL (     646 calls)
     sum_band:ini :      0.91s CPU      0.92s WALL (     646 calls)
     sum_band:cal :      3.22s CPU      3.28s WALL (     646 calls)
     sum_band:bec :      0.07s CPU      0.07s WALL (     646 calls)
     addusdens    :      4.59s CPU      6.15s WALL (      38 calls)
                                        0.00s GPU  (      38 calls)
     addusd:skk   :      0.04s CPU      0.04s WALL (      76 calls)
                                        0.00s GPU  (      76 calls)

     Called by *egterg:
     cdiaghg      :     13.44s CPU     13.47s WALL (    3200 calls)
     cegterg:over :      9.38s CPU      9.55s WALL (    2554 calls)
     cegterg:upda :      5.87s CPU      5.89s WALL (    2554 calls)
     cegterg:last :     11.84s CPU     11.87s WALL (    1569 calls)
     h_psi        :    135.75s CPU    142.84s WALL (    3217 calls)
     s_psi        :     10.51s CPU     10.54s WALL (    3217 calls)
     g_psi        :      0.56s CPU      0.56s WALL (    2554 calls)

     Called by h_psi:
     h_psi:calbec :     10.00s CPU     10.32s WALL (    3217 calls)
     vloc_psi     :    114.54s CPU    121.26s WALL (    3217 calls)
     add_vuspsi   :     10.80s CPU     10.84s WALL (    3217 calls)

     General routines
     calbec       :     13.53s CPU     13.91s WALL (    3931 calls)
     fft          :      1.80s CPU      1.95s WALL (     516 calls)
     ffts         :      0.27s CPU      0.28s WALL (      77 calls)
     fftw         :    112.08s CPU    118.68s WALL (  159542 calls)
     interpolate  :      0.39s CPU      0.40s WALL (      39 calls)

     Parallel routines

     PWSCF        :   4m12.38s CPU   4m24.59s WALL


   This run was terminated on:  15:26:19  13Jul2025            

=------------------------------------------------------------------------------=
   JOB DONE.
=------------------------------------------------------------------------------=
Note: The following floating-point exceptions are signalling: IEEE_INVALID_FLAG
Note: The following floating-point exceptions are signalling: IEEE_INVALID_FLAG
