Authorization required, but no authorization protocol specified

Authorization required, but no authorization protocol specified

Authorization required, but no authorization protocol specified

Authorization required, but no authorization protocol specified

Authorization required, but no authorization protocol specified

Authorization required, but no authorization protocol specified

Authorization required, but no authorization protocol specified

Authorization required, but no authorization protocol specified

Authorization required, but no authorization protocol specified

Authorization required, but no authorization protocol specified


     Program PWSCF v.7.2 starts on 13Jul2025 at 17:26: 6 

     This program is part of the open-source Quantum ESPRESSO suite
     for quantum simulation of materials; please cite
         "P. Giannozzi et al., J. Phys.:Condens. Matter 21 395502 (2009);
         "P. Giannozzi et al., J. Phys.:Condens. Matter 29 465901 (2017);
         "P. Giannozzi et al., J. Chem. Phys. 152 154105 (2020);
          URL http://www.quantum-espresso.org", 
     in publications or presentations arising from this work. More details at
     http://www.quantum-espresso.org/quote

     Parallel version (MPI), running on     8 processors

     MPI processes distributed on     1 nodes
     56134 MiB available memory on the printing compute node when the environment starts

     Reading input from /home/jvc/QEspresso7.2/ZnO_database/scripts/cell112.in/ZnO-3.60-1.45-112.in
Warning: card &CELL ignored
Warning: card / ignored
Warning: card &FCP ignored
Warning: card / ignored
Warning: card &RISM ignored
Warning: card / ignored

     Current dimensions of program PWSCF are:
     Max number of different atomic species (ntypx) = 10
     Max number of k-points (npk) =  40000
     Max angular momentum in pseudopotentials (lmaxx) =  4
     file Zn.upf: wavefunction(s)  3D renormalized
     Found identity + (  0.0000  0.0000 -0.5000) symmetry
     This is a supercell, fractional translations are disabled
     Message from routine setup:
     using ibrav=0 with symmetry is DISCOURAGED, use correct ibrav instead

     K-points division:     npool     =       2
     R & G space division:  proc/nbgrp/npool/nimage =       4
     Subspace diagonalization in iterative solution of the eigenvalue problem:
     a serial algorithm will be used


     Parallelization info
     --------------------
     sticks:   dense  smooth     PW     G-vecs:    dense   smooth      PW
     Min         318     161     48                26698     9413    1534
     Max         326     163     51                26699     9417    1536
     Sum        1285     649    199               106793    37661    6139

     Using Slab Decomposition



     bravais-lattice index     =            0
     lattice parameter (alat)  =       6.7967  a.u.
     unit-cell volume          =     790.1416 (a.u.)^3
     number of atoms/cell      =            8
     number of atomic types    =            2
     number of electrons       =        72.00
     number of Kohn-Sham states=           36
     kinetic-energy cutoff     =      50.0000  Ry
     charge density cutoff     =     400.0000  Ry
     scf convergence threshold =      1.0E-08
     mixing beta               =       0.3000
     number of iterations used =            8  plain     mixing
     Exchange-correlation= PBE
                           (   1   4   3   4   0   0   0)

     celldm(1)=   6.796739  celldm(2)=   0.000000  celldm(3)=   0.000000
     celldm(4)=   0.000000  celldm(5)=   0.000000  celldm(6)=   0.000000

     crystal axes: (cart. coord. in units of alat)
               a(1) = (   1.000000   0.000000   0.000000 )  
               a(2) = (  -0.500000   0.866025   0.000000 )  
               a(3) = (   0.000000   0.000000   2.905845 )  

     reciprocal axes: (cart. coord. in units 2 pi/alat)
               b(1) = (  1.000000  0.577350 -0.000000 )  
               b(2) = (  0.000000  1.154701  0.000000 )  
               b(3) = (  0.000000 -0.000000  0.344134 )  


     PseudoPot. # 1 for Zn read from file:
     /home/jvc/QEspresso7.2/ZnO_database/pseudos/Zn.upf
     MD5 check sum: 7f56cabf9682ed8c977c2f7d0c5985c5
     Pseudo is Ultrasoft + core correction, Zval = 12.0
     Generated using &quot;atomic&quot; code by A. Dal Corso  v.6.2.2
     Using radial grid of 1201 points,  6 beta functions with: 
                l(1) =   0
                l(2) =   0
                l(3) =   1
                l(4) =   1
                l(5) =   2
                l(6) =   2
     Q(r) pseudized with 0 coefficients 


     PseudoPot. # 2 for O  read from file:
     /home/jvc/QEspresso7.2/ZnO_database/pseudos/O.upf
     MD5 check sum: 91400c9766925bcf19f520983a725ff0
     Pseudo is Ultrasoft + core correction, Zval =  6.0
     Generated using &quot;atomic&quot; code by A. Dal Corso  v.6.3MaX
     Using radial grid of 1095 points,  4 beta functions with: 
                l(1) =   0
                l(2) =   0
                l(3) =   1
                l(4) =   1
     Q(r) pseudized with 0 coefficients 


     atomic species   valence    mass     pseudopotential
        Zn            12.00    65.38000     Zn( 1.00)
        O              6.00    15.99900     O ( 1.00)

      6 Sym. Ops. (no inversion) found


                                    s                        frac. trans.

      isym =  1     identity                                     

 cryst.   s( 1) = (     1          0          0      )
                  (     0          1          0      )
                  (     0          0          1      )

 cart.    s( 1) = (  1.0000000  0.0000000  0.0000000 )
                  (  0.0000000  1.0000000  0.0000000 )
                  (  0.0000000  0.0000000  1.0000000 )


      isym =  2     120 deg rotation - cryst. axis [0,0,1]       

 cryst.   s( 2) = (     0          1          0      )
                  (    -1         -1          0      )
                  (     0          0          1      )

 cart.    s( 2) = ( -0.5000000 -0.8660254  0.0000000 )
                  (  0.8660254 -0.5000000  0.0000000 )
                  (  0.0000000  0.0000000  1.0000000 )


      isym =  3     120 deg rotation - cryst. axis [0,0,-1]      

 cryst.   s( 3) = (    -1         -1          0      )
                  (     1          0          0      )
                  (     0          0          1      )

 cart.    s( 3) = ( -0.5000000  0.8660254  0.0000000 )
                  ( -0.8660254 -0.5000000  0.0000000 )
                  (  0.0000000  0.0000000  1.0000000 )


      isym =  4     inv. 180 deg rotation - cart. axis [1,0,0]   

 cryst.   s( 4) = (    -1          0          0      )
                  (     1          1          0      )
                  (     0          0          1      )

 cart.    s( 4) = ( -1.0000000 -0.0000000  0.0000000 )
                  (  0.0000000  1.0000000  0.0000000 )
                  (  0.0000000  0.0000000  1.0000000 )


      isym =  5     inv. 180 deg rotation - cryst. axis [0,1,0]  

 cryst.   s( 5) = (     1          1          0      )
                  (     0         -1          0      )
                  (     0          0          1      )

 cart.    s( 5) = (  0.5000000  0.8660254  0.0000000 )
                  (  0.8660254 -0.5000000  0.0000000 )
                  (  0.0000000  0.0000000  1.0000000 )


      isym =  6     inv. 180 deg rotation - cryst. axis [1,1,0]  

 cryst.   s( 6) = (     0         -1          0      )
                  (    -1          0          0      )
                  (     0          0          1      )

 cart.    s( 6) = (  0.5000000 -0.8660254  0.0000000 )
                  ( -0.8660254 -0.5000000  0.0000000 )
                  (  0.0000000  0.0000000  1.0000000 )


   Cartesian axes

     site n.     atom                  positions (alat units)
         1           Zn  tau(   1) = (   0.0000000   0.0000000   0.0000000  )
         2           O   tau(   2) = (  -0.0000000   0.5773503   0.1338080  )
         3           Zn  tau(   3) = (  -0.0000000   0.5773503   0.7264613  )
         4           O   tau(   4) = (   0.0000000   0.0000000   0.8602692  )
         5           Zn  tau(   5) = (   0.0000000   0.0000000   1.4529225  )
         6           O   tau(   6) = (  -0.0000000   0.5773503   1.5867305  )
         7           Zn  tau(   7) = (  -0.0000000   0.5773503   2.1793838  )
         8           O   tau(   8) = (   0.0000000   0.0000000   2.3131918  )

   Crystallographic axes

     site n.     atom                  positions (cryst. coord.)
         1           Zn  tau(   1) = (  0.0000000  0.0000000  0.0000000  )
         2           O   tau(   2) = (  0.3333333  0.6666667  0.0460479  )
         3           Zn  tau(   3) = (  0.3333333  0.6666667  0.2500000  )
         4           O   tau(   4) = (  0.0000000  0.0000000  0.2960479  )
         5           Zn  tau(   5) = (  0.0000000  0.0000000  0.5000000  )
         6           O   tau(   6) = (  0.3333333  0.6666667  0.5460479  )
         7           Zn  tau(   7) = (  0.3333333  0.6666667  0.7500000  )
         8           O   tau(   8) = (  0.0000000  0.0000000  0.7960479  )

     number of k points=    34
                       cart. coord. in units 2pi/alat
        k(    1) = (   0.0000000   0.0000000   0.0000000), wk =   0.0092593
        k(    2) = (   0.0000000   0.0000000   0.0573557), wk =   0.0185185
        k(    3) = (   0.0000000   0.0000000   0.1147113), wk =   0.0185185
        k(    4) = (   0.0000000   0.0000000  -0.1720670), wk =   0.0092593
        k(    5) = (   0.0000000   0.1924501   0.0000000), wk =   0.0555556
        k(    6) = (   0.0000000   0.1924501   0.0573557), wk =   0.0555556
        k(    7) = (   0.0000000   0.1924501   0.1147113), wk =   0.0555556
        k(    8) = (   0.0000000   0.1924501  -0.1720670), wk =   0.0555556
        k(    9) = (   0.0000000   0.3849002   0.0000000), wk =   0.0555556
        k(   10) = (   0.0000000   0.3849002   0.0573557), wk =   0.0555556
        k(   11) = (   0.0000000   0.3849002   0.1147113), wk =   0.0555556
        k(   12) = (   0.0000000   0.3849002  -0.1720670), wk =   0.0555556
        k(   13) = (   0.0000000  -0.5773503   0.0000000), wk =   0.0277778
        k(   14) = (   0.0000000  -0.5773503   0.0573557), wk =   0.0555556
        k(   15) = (   0.0000000  -0.5773503   0.1147113), wk =   0.0555556
        k(   16) = (   0.0000000  -0.5773503  -0.1720670), wk =   0.0277778
        k(   17) = (   0.1666667   0.2886751   0.0000000), wk =   0.0555556
        k(   18) = (   0.1666667   0.2886751   0.0573557), wk =   0.1111111
        k(   19) = (   0.1666667   0.2886751   0.1147113), wk =   0.1111111
        k(   20) = (   0.1666667   0.2886751  -0.1720670), wk =   0.0555556
        k(   21) = (   0.1666667   0.4811252   0.0000000), wk =   0.1111111
        k(   22) = (   0.1666667   0.4811252   0.0573557), wk =   0.1111111
        k(   23) = (   0.1666667   0.4811252   0.1147113), wk =   0.1111111
        k(   24) = (   0.1666667   0.4811252  -0.1720670), wk =   0.1111111
        k(   25) = (   0.3333333   0.5773503   0.0000000), wk =   0.0185185
        k(   26) = (   0.3333333   0.5773503   0.0573557), wk =   0.0370370
        k(   27) = (   0.3333333   0.5773503   0.1147113), wk =   0.0370370
        k(   28) = (   0.3333333   0.5773503  -0.1720670), wk =   0.0185185
        k(   29) = (   0.0000000  -0.1924501   0.0573557), wk =   0.0555556
        k(   30) = (   0.0000000  -0.1924501   0.1147113), wk =   0.0555556
        k(   31) = (   0.0000000  -0.3849002   0.0573557), wk =   0.0555556
        k(   32) = (   0.0000000  -0.3849002   0.1147113), wk =   0.0555556
        k(   33) = (  -0.1666667  -0.4811252   0.0573557), wk =   0.1111111
        k(   34) = (  -0.1666667  -0.4811252   0.1147113), wk =   0.1111111

                       cryst. coord.
        k(    1) = (   0.0000000   0.0000000   0.0000000), wk =   0.0092593
        k(    2) = (   0.0000000   0.0000000   0.1666667), wk =   0.0185185
        k(    3) = (   0.0000000   0.0000000   0.3333333), wk =   0.0185185
        k(    4) = (   0.0000000   0.0000000  -0.5000000), wk =   0.0092593
        k(    5) = (   0.0000000   0.1666667   0.0000000), wk =   0.0555556
        k(    6) = (   0.0000000   0.1666667   0.1666667), wk =   0.0555556
        k(    7) = (   0.0000000   0.1666667   0.3333333), wk =   0.0555556
        k(    8) = (   0.0000000   0.1666667  -0.5000000), wk =   0.0555556
        k(    9) = (   0.0000000   0.3333333   0.0000000), wk =   0.0555556
        k(   10) = (   0.0000000   0.3333333   0.1666667), wk =   0.0555556
        k(   11) = (   0.0000000   0.3333333   0.3333333), wk =   0.0555556
        k(   12) = (   0.0000000   0.3333333  -0.5000000), wk =   0.0555556
        k(   13) = (   0.0000000  -0.5000000   0.0000000), wk =   0.0277778
        k(   14) = (   0.0000000  -0.5000000   0.1666667), wk =   0.0555556
        k(   15) = (   0.0000000  -0.5000000   0.3333333), wk =   0.0555556
        k(   16) = (   0.0000000  -0.5000000  -0.5000000), wk =   0.0277778
        k(   17) = (   0.1666667   0.1666667   0.0000000), wk =   0.0555556
        k(   18) = (   0.1666667   0.1666667   0.1666667), wk =   0.1111111
        k(   19) = (   0.1666667   0.1666667   0.3333333), wk =   0.1111111
        k(   20) = (   0.1666667   0.1666667  -0.5000000), wk =   0.0555556
        k(   21) = (   0.1666667   0.3333333   0.0000000), wk =   0.1111111
        k(   22) = (   0.1666667   0.3333333   0.1666667), wk =   0.1111111
        k(   23) = (   0.1666667   0.3333333   0.3333333), wk =   0.1111111
        k(   24) = (   0.1666667   0.3333333  -0.5000000), wk =   0.1111111
        k(   25) = (   0.3333333   0.3333333   0.0000000), wk =   0.0185185
        k(   26) = (   0.3333333   0.3333333   0.1666667), wk =   0.0370370
        k(   27) = (   0.3333333   0.3333333   0.3333333), wk =   0.0370370
        k(   28) = (   0.3333333   0.3333333  -0.5000000), wk =   0.0185185
        k(   29) = (   0.0000000  -0.1666667   0.1666667), wk =   0.0555556
        k(   30) = (   0.0000000  -0.1666667   0.3333333), wk =   0.0555556
        k(   31) = (   0.0000000  -0.3333333   0.1666667), wk =   0.0555556
        k(   32) = (   0.0000000  -0.3333333   0.3333333), wk =   0.0555556
        k(   33) = (  -0.1666667  -0.3333333   0.1666667), wk =   0.1111111
        k(   34) = (  -0.1666667  -0.3333333   0.3333333), wk =   0.1111111

     Dense  grid:   106793 G-vectors     FFT dimensions: (  45,  45, 125)

     Smooth grid:    37661 G-vectors     FFT dimensions: (  32,  32,  90)

     Dynamical RAM for                 wfc:       0.65 MB

     Dynamical RAM for     wfc (w. buffer):      11.66 MB

     Dynamical RAM for           str. fact:       0.81 MB

     Dynamical RAM for           local pot:       0.00 MB

     Dynamical RAM for          nlocal pot:       1.87 MB

     Dynamical RAM for                qrad:       3.21 MB

     Dynamical RAM for          rho,v,vnew:       2.71 MB

     Dynamical RAM for               rhoin:       0.90 MB

     Dynamical RAM for            rho*nmix:       6.52 MB

     Dynamical RAM for           G-vectors:       1.60 MB

     Dynamical RAM for          h,s,v(r/c):       0.24 MB

     Dynamical RAM for          <psi|beta>:       0.06 MB

     Dynamical RAM for                 psi:       1.30 MB

     Dynamical RAM for                hpsi:       1.30 MB

     Dynamical RAM for                spsi:       1.30 MB

     Dynamical RAM for      wfcinit/wfcrot:       1.93 MB

     Dynamical RAM for           addusdens:      38.90 MB

     Dynamical RAM for          addusforce:      40.14 MB

     Estimated static dynamical RAM per process >      26.45 MB

     Estimated max dynamical RAM per process >      73.12 MB

     Estimated total dynamical RAM >     558.85 MB

     Check: negative core charge=   -0.000002

     Initial potential from superposition of free atoms

     starting charge      71.9851, renormalised to      72.0000
     Starting wfcs are   52 randomized atomic wfcs

     total cpu time spent up to now is        4.4 secs

     Self-consistent Calculation

     iteration #  1     ecut=    50.00 Ry     beta= 0.30
     Davidson diagonalization with overlap

---- Real-time Memory Report at c_bands before calling an iterative solver
            87 MiB given to the printing process from OS
             0 MiB allocation reported by mallinfo(arena+hblkhd)
         55761 MiB available memory on the node where the printing process lives
------------------
     ethr =  1.00E-02,  avg # of iterations =  1.4

     total cpu time spent up to now is        8.9 secs

     total energy              =    -722.80239387 Ry
     estimated scf accuracy    <       1.56783524 Ry

     iteration #  2     ecut=    50.00 Ry     beta= 0.30
     Davidson diagonalization with overlap

---- Real-time Memory Report at c_bands before calling an iterative solver
           110 MiB given to the printing process from OS
             0 MiB allocation reported by mallinfo(arena+hblkhd)
         55613 MiB available memory on the node where the printing process lives
------------------
     ethr =  2.18E-03,  avg # of iterations =  2.4

     total cpu time spent up to now is       14.5 secs

     total energy              =    -723.05176465 Ry
     estimated scf accuracy    <       0.16806699 Ry

     iteration #  3     ecut=    50.00 Ry     beta= 0.30
     Davidson diagonalization with overlap

---- Real-time Memory Report at c_bands before calling an iterative solver
           111 MiB given to the printing process from OS
             0 MiB allocation reported by mallinfo(arena+hblkhd)
         55654 MiB available memory on the node where the printing process lives
------------------
     ethr =  2.33E-04,  avg # of iterations =  6.2

     total cpu time spent up to now is       23.0 secs

     total energy              =    -723.07405580 Ry
     estimated scf accuracy    <       0.20197272 Ry

     iteration #  4     ecut=    50.00 Ry     beta= 0.30
     Davidson diagonalization with overlap

---- Real-time Memory Report at c_bands before calling an iterative solver
           111 MiB given to the printing process from OS
             0 MiB allocation reported by mallinfo(arena+hblkhd)
         55643 MiB available memory on the node where the printing process lives
------------------
     ethr =  2.33E-04,  avg # of iterations =  9.5

     total cpu time spent up to now is       35.7 secs

     total energy              =    -723.23479661 Ry
     estimated scf accuracy    <       0.83376092 Ry

     iteration #  5     ecut=    50.00 Ry     beta= 0.30
     Davidson diagonalization with overlap

---- Real-time Memory Report at c_bands before calling an iterative solver
           112 MiB given to the printing process from OS
             0 MiB allocation reported by mallinfo(arena+hblkhd)
         55659 MiB available memory on the node where the printing process lives
------------------
     ethr =  2.33E-04,  avg # of iterations =  2.0

     total cpu time spent up to now is       40.4 secs

     total energy              =    -722.83844434 Ry
     estimated scf accuracy    <       0.52965161 Ry

     iteration #  6     ecut=    50.00 Ry     beta= 0.30
     Davidson diagonalization with overlap

---- Real-time Memory Report at c_bands before calling an iterative solver
           112 MiB given to the printing process from OS
             0 MiB allocation reported by mallinfo(arena+hblkhd)
         55646 MiB available memory on the node where the printing process lives
------------------
     ethr =  2.33E-04,  avg # of iterations = 10.2

     total cpu time spent up to now is       52.0 secs

     total energy              =    -723.12380197 Ry
     estimated scf accuracy    <       1.46136040 Ry

     iteration #  7     ecut=    50.00 Ry     beta= 0.30
     Davidson diagonalization with overlap

---- Real-time Memory Report at c_bands before calling an iterative solver
           112 MiB given to the printing process from OS
             0 MiB allocation reported by mallinfo(arena+hblkhd)
         55656 MiB available memory on the node where the printing process lives
------------------
     ethr =  2.33E-04,  avg # of iterations =  5.3

     total cpu time spent up to now is       59.1 secs

     total energy              =    -723.20949150 Ry
     estimated scf accuracy    <       0.26511227 Ry

     iteration #  8     ecut=    50.00 Ry     beta= 0.30
     Davidson diagonalization with overlap

---- Real-time Memory Report at c_bands before calling an iterative solver
           113 MiB given to the printing process from OS
             0 MiB allocation reported by mallinfo(arena+hblkhd)
         55645 MiB available memory on the node where the printing process lives
------------------
     ethr =  2.33E-04,  avg # of iterations =  1.6

     total cpu time spent up to now is       63.5 secs

     total energy              =    -723.20929843 Ry
     estimated scf accuracy    <       0.24014174 Ry

     iteration #  9     ecut=    50.00 Ry     beta= 0.30
     Davidson diagonalization with overlap

---- Real-time Memory Report at c_bands before calling an iterative solver
           113 MiB given to the printing process from OS
             0 MiB allocation reported by mallinfo(arena+hblkhd)
         55645 MiB available memory on the node where the printing process lives
------------------
     ethr =  2.33E-04,  avg # of iterations =  1.1

     total cpu time spent up to now is       67.8 secs

     total energy              =    -723.17319025 Ry
     estimated scf accuracy    <       0.22336481 Ry

     iteration # 10     ecut=    50.00 Ry     beta= 0.30
     Davidson diagonalization with overlap

---- Real-time Memory Report at c_bands before calling an iterative solver
           113 MiB given to the printing process from OS
             0 MiB allocation reported by mallinfo(arena+hblkhd)
         55651 MiB available memory on the node where the printing process lives
------------------
     ethr =  2.33E-04,  avg # of iterations =  1.7

     total cpu time spent up to now is       72.4 secs

     total energy              =    -723.16138041 Ry
     estimated scf accuracy    <       0.13144373 Ry

     iteration # 11     ecut=    50.00 Ry     beta= 0.30
     Davidson diagonalization with overlap

---- Real-time Memory Report at c_bands before calling an iterative solver
           113 MiB given to the printing process from OS
             0 MiB allocation reported by mallinfo(arena+hblkhd)
         55639 MiB available memory on the node where the printing process lives
------------------
     ethr =  1.83E-04,  avg # of iterations =  2.6

     total cpu time spent up to now is       77.6 secs

     total energy              =    -723.15834077 Ry
     estimated scf accuracy    <       0.06374808 Ry

     iteration # 12     ecut=    50.00 Ry     beta= 0.30
     Davidson diagonalization with overlap

---- Real-time Memory Report at c_bands before calling an iterative solver
           113 MiB given to the printing process from OS
             0 MiB allocation reported by mallinfo(arena+hblkhd)
         55632 MiB available memory on the node where the printing process lives
------------------
     ethr =  8.85E-05,  avg # of iterations =  5.9

     total cpu time spent up to now is       84.1 secs

     total energy              =    -723.17661638 Ry
     estimated scf accuracy    <       0.00181889 Ry

     iteration # 13     ecut=    50.00 Ry     beta= 0.30
     Davidson diagonalization with overlap

---- Real-time Memory Report at c_bands before calling an iterative solver
           113 MiB given to the printing process from OS
             0 MiB allocation reported by mallinfo(arena+hblkhd)
         55652 MiB available memory on the node where the printing process lives
------------------
     ethr =  2.53E-06,  avg # of iterations =  5.8

     total cpu time spent up to now is       91.7 secs

     total energy              =    -723.17740319 Ry
     estimated scf accuracy    <       0.00135255 Ry

     iteration # 14     ecut=    50.00 Ry     beta= 0.30
     Davidson diagonalization with overlap

---- Real-time Memory Report at c_bands before calling an iterative solver
           113 MiB given to the printing process from OS
             0 MiB allocation reported by mallinfo(arena+hblkhd)
         55648 MiB available memory on the node where the printing process lives
------------------
     ethr =  1.88E-06,  avg # of iterations =  4.6

     total cpu time spent up to now is       97.7 secs

     total energy              =    -723.17760808 Ry
     estimated scf accuracy    <       0.00008461 Ry

     iteration # 15     ecut=    50.00 Ry     beta= 0.30
     Davidson diagonalization with overlap

---- Real-time Memory Report at c_bands before calling an iterative solver
           113 MiB given to the printing process from OS
             0 MiB allocation reported by mallinfo(arena+hblkhd)
         55636 MiB available memory on the node where the printing process lives
------------------
     ethr =  1.18E-07,  avg # of iterations =  9.0

     total cpu time spent up to now is      107.9 secs

     total energy              =    -723.17774616 Ry
     estimated scf accuracy    <       0.00012295 Ry

     iteration # 16     ecut=    50.00 Ry     beta= 0.30
     Davidson diagonalization with overlap

---- Real-time Memory Report at c_bands before calling an iterative solver
           114 MiB given to the printing process from OS
             0 MiB allocation reported by mallinfo(arena+hblkhd)
         55820 MiB available memory on the node where the printing process lives
------------------
     ethr =  1.18E-07,  avg # of iterations =  1.0

     total cpu time spent up to now is      112.1 secs

     total energy              =    -723.17785046 Ry
     estimated scf accuracy    <       0.00008561 Ry

     iteration # 17     ecut=    50.00 Ry     beta= 0.30
     Davidson diagonalization with overlap

---- Real-time Memory Report at c_bands before calling an iterative solver
           114 MiB given to the printing process from OS
             0 MiB allocation reported by mallinfo(arena+hblkhd)
         55811 MiB available memory on the node where the printing process lives
------------------
     ethr =  1.18E-07,  avg # of iterations =  6.7

     total cpu time spent up to now is      120.0 secs

     total energy              =    -723.17767984 Ry
     estimated scf accuracy    <       0.00066455 Ry

     iteration # 18     ecut=    50.00 Ry     beta= 0.30
     Davidson diagonalization with overlap

---- Real-time Memory Report at c_bands before calling an iterative solver
           114 MiB given to the printing process from OS
             0 MiB allocation reported by mallinfo(arena+hblkhd)
         55842 MiB available memory on the node where the printing process lives
------------------
     ethr =  1.18E-07,  avg # of iterations =  6.2

     total cpu time spent up to now is      127.9 secs

     total energy              =    -723.17792356 Ry
     estimated scf accuracy    <       0.00005911 Ry

     iteration # 19     ecut=    50.00 Ry     beta= 0.30
     Davidson diagonalization with overlap

---- Real-time Memory Report at c_bands before calling an iterative solver
           114 MiB given to the printing process from OS
             0 MiB allocation reported by mallinfo(arena+hblkhd)
         55642 MiB available memory on the node where the printing process lives
------------------
     ethr =  8.21E-08,  avg # of iterations = 10.4

     total cpu time spent up to now is      140.4 secs

     total energy              =    -723.17846514 Ry
     estimated scf accuracy    <       0.00146586 Ry

     iteration # 20     ecut=    50.00 Ry     beta= 0.30
     Davidson diagonalization with overlap

---- Real-time Memory Report at c_bands before calling an iterative solver
           114 MiB given to the printing process from OS
             0 MiB allocation reported by mallinfo(arena+hblkhd)
         55650 MiB available memory on the node where the printing process lives
------------------
     ethr =  8.21E-08,  avg # of iterations =  7.4

     total cpu time spent up to now is      149.7 secs

     total energy              =    -723.17782777 Ry
     estimated scf accuracy    <       0.00334858 Ry

     iteration # 21     ecut=    50.00 Ry     beta= 0.30
     Davidson diagonalization with overlap

---- Real-time Memory Report at c_bands before calling an iterative solver
           114 MiB given to the printing process from OS
             0 MiB allocation reported by mallinfo(arena+hblkhd)
         55651 MiB available memory on the node where the printing process lives
------------------
     ethr =  8.21E-08,  avg # of iterations =  9.5

     total cpu time spent up to now is      161.3 secs

     total energy              =    -723.17784351 Ry
     estimated scf accuracy    <       0.00099892 Ry

     iteration # 22     ecut=    50.00 Ry     beta= 0.30
     Davidson diagonalization with overlap

---- Real-time Memory Report at c_bands before calling an iterative solver
           114 MiB given to the printing process from OS
             0 MiB allocation reported by mallinfo(arena+hblkhd)
         55648 MiB available memory on the node where the printing process lives
------------------
     ethr =  8.21E-08,  avg # of iterations =  5.1

     total cpu time spent up to now is      167.2 secs

     total energy              =    -723.17754506 Ry
     estimated scf accuracy    <       0.00070463 Ry

     iteration # 23     ecut=    50.00 Ry     beta= 0.30
     Davidson diagonalization with overlap

---- Real-time Memory Report at c_bands before calling an iterative solver
           114 MiB given to the printing process from OS
             0 MiB allocation reported by mallinfo(arena+hblkhd)
         55642 MiB available memory on the node where the printing process lives
------------------
     ethr =  8.21E-08,  avg # of iterations = 10.8

     total cpu time spent up to now is      180.0 secs

     total energy              =    -723.17772149 Ry
     estimated scf accuracy    <       0.00003736 Ry

     iteration # 24     ecut=    50.00 Ry     beta= 0.30
     Davidson diagonalization with overlap

---- Real-time Memory Report at c_bands before calling an iterative solver
           114 MiB given to the printing process from OS
             0 MiB allocation reported by mallinfo(arena+hblkhd)
         55645 MiB available memory on the node where the printing process lives
------------------
     ethr =  5.19E-08,  avg # of iterations =  6.1

     total cpu time spent up to now is      187.7 secs

     total energy              =    -723.17773328 Ry
     estimated scf accuracy    <       0.00002363 Ry

     iteration # 25     ecut=    50.00 Ry     beta= 0.30
     Davidson diagonalization with overlap

---- Real-time Memory Report at c_bands before calling an iterative solver
           114 MiB given to the printing process from OS
             0 MiB allocation reported by mallinfo(arena+hblkhd)
         55645 MiB available memory on the node where the printing process lives
------------------
     ethr =  3.28E-08,  avg # of iterations =  2.0

     total cpu time spent up to now is      192.7 secs

     total energy              =    -723.17773298 Ry
     estimated scf accuracy    <       0.00000542 Ry

     iteration # 26     ecut=    50.00 Ry     beta= 0.30
     Davidson diagonalization with overlap

---- Real-time Memory Report at c_bands before calling an iterative solver
           114 MiB given to the printing process from OS
             0 MiB allocation reported by mallinfo(arena+hblkhd)
         55648 MiB available memory on the node where the printing process lives
------------------
     ethr =  7.53E-09,  avg # of iterations =  6.7

     total cpu time spent up to now is      201.0 secs

     total energy              =    -723.17773669 Ry
     estimated scf accuracy    <       0.00000274 Ry

     iteration # 27     ecut=    50.00 Ry     beta= 0.30
     Davidson diagonalization with overlap

---- Real-time Memory Report at c_bands before calling an iterative solver
           114 MiB given to the printing process from OS
             0 MiB allocation reported by mallinfo(arena+hblkhd)
         55637 MiB available memory on the node where the printing process lives
------------------
     ethr =  3.80E-09,  avg # of iterations =  2.2

     total cpu time spent up to now is      206.0 secs

     total energy              =    -723.17773635 Ry
     estimated scf accuracy    <       0.00000069 Ry

     iteration # 28     ecut=    50.00 Ry     beta= 0.30
     Davidson diagonalization with overlap

---- Real-time Memory Report at c_bands before calling an iterative solver
           114 MiB given to the printing process from OS
             0 MiB allocation reported by mallinfo(arena+hblkhd)
         55650 MiB available memory on the node where the printing process lives
------------------
     c_bands:  1 eigenvalues not converged
     ethr =  9.52E-10,  avg # of iterations = 10.9

     total cpu time spent up to now is      220.0 secs

     total energy              =    -723.17773646 Ry
     estimated scf accuracy    <       0.00001371 Ry

     iteration # 29     ecut=    50.00 Ry     beta= 0.30
     Davidson diagonalization with overlap

---- Real-time Memory Report at c_bands before calling an iterative solver
           114 MiB given to the printing process from OS
             0 MiB allocation reported by mallinfo(arena+hblkhd)
         55632 MiB available memory on the node where the printing process lives
------------------
     ethr =  9.52E-10,  avg # of iterations =  7.8

     total cpu time spent up to now is      230.0 secs

     total energy              =    -723.17773658 Ry
     estimated scf accuracy    <       0.00000190 Ry

     iteration # 30     ecut=    50.00 Ry     beta= 0.30
     Davidson diagonalization with overlap

---- Real-time Memory Report at c_bands before calling an iterative solver
           114 MiB given to the printing process from OS
             0 MiB allocation reported by mallinfo(arena+hblkhd)
         55649 MiB available memory on the node where the printing process lives
------------------
     ethr =  9.52E-10,  avg # of iterations =  6.9

     total cpu time spent up to now is      238.1 secs

     total energy              =    -723.17773710 Ry
     estimated scf accuracy    <       0.00000006 Ry

     iteration # 31     ecut=    50.00 Ry     beta= 0.30
     Davidson diagonalization with overlap

---- Real-time Memory Report at c_bands before calling an iterative solver
           114 MiB given to the printing process from OS
             0 MiB allocation reported by mallinfo(arena+hblkhd)
         55646 MiB available memory on the node where the printing process lives
------------------
     ethr =  8.41E-11,  avg # of iterations =  4.8

     total cpu time spent up to now is      243.6 secs

     total energy              =    -723.17773708 Ry
     estimated scf accuracy    <       0.00000005 Ry

     iteration # 32     ecut=    50.00 Ry     beta= 0.30
     Davidson diagonalization with overlap

---- Real-time Memory Report at c_bands before calling an iterative solver
           114 MiB given to the printing process from OS
             0 MiB allocation reported by mallinfo(arena+hblkhd)
         55642 MiB available memory on the node where the printing process lives
------------------
     ethr =  7.30E-11,  avg # of iterations =  5.4

     total cpu time spent up to now is      250.4 secs

     End of self-consistent calculation

          k = 0.0000 0.0000 0.0000 (  4755 PWs)   bands (ev):

   -12.1213 -11.8438 -11.8438 -11.5638  -0.4733  -0.4733  -0.4620  -0.4620
    -0.4620  -0.4620  -0.3882  -0.3882  -0.3803  -0.3803  -0.2506   0.1443
     0.1443   0.2563   0.2563   0.2563   0.2563   0.3133   0.3133   0.3730
     0.8228   2.5504   2.5504   3.8064   3.8064   4.1354   4.1354   4.1354
     4.1354   4.4370   4.4370   4.4688

     occupation numbers 
     1.0000   1.0000   1.0000   1.0000   1.0000   1.0000   1.0000   1.0000
     1.0000   1.0000   1.0000   1.0000   1.0000   1.0000   1.0000   1.0000
     1.0000   1.0000   1.0000   1.0000   1.0000   1.0000   1.0000   1.0000
     1.0000   1.0000   1.0000   1.0000   1.0000   1.0000   1.0000   1.0000
     1.0000   1.0000   1.0000   1.0000

          k = 0.0000 0.0000 0.0574 (  4731 PWs)   bands (ev):

   -12.1119 -11.9160 -11.7715 -11.5733  -0.4738  -0.4738  -0.4708  -0.4708
    -0.4489  -0.4489  -0.3917  -0.3917  -0.3828  -0.3415  -0.2606   0.1495
     0.1495   0.2328   0.2328   0.2457   0.2763   0.2763   0.3126   0.3126
     0.9807   2.2366   2.8614   3.8181   3.8181   4.0527   4.0527   4.2163
     4.2163   4.2206   4.4272   4.4272

     occupation numbers 
     1.0000   1.0000   1.0000   1.0000   1.0000   1.0000   1.0000   1.0000
     1.0000   1.0000   1.0000   1.0000   1.0000   1.0000   1.0000   1.0000
     1.0000   1.0000   1.0000   1.0000   1.0000   1.0000   1.0000   1.0000
     1.0000   1.0000   1.0000   1.0000   1.0000   1.0000   1.0000   1.0000
     1.0000   1.0000   1.0000   1.0000

          k = 0.0000 0.0000 0.1147 (  4766 PWs)   bands (ev):

   -12.0844 -11.9831 -11.7039 -11.6013  -0.4758  -0.4758  -0.4756  -0.4756
    -0.4332  -0.4332  -0.4018  -0.4018  -0.3598  -0.2876  -0.2589   0.0453
     0.1630   0.1630   0.2075   0.2075   0.2915   0.2915   0.3090   0.3090
     1.2717   1.9165   3.1774   3.8519   3.8519   3.8568   3.9740   3.9740
     4.2899   4.2899   4.3984   4.3984

     occupation numbers 
     1.0000   1.0000   1.0000   1.0000   1.0000   1.0000   1.0000   1.0000
     1.0000   1.0000   1.0000   1.0000   1.0000   1.0000   1.0000   1.0000
     1.0000   1.0000   1.0000   1.0000   1.0000   1.0000   1.0000   1.0000
     1.0000   1.0000   1.0000   1.0000   1.0000   1.0000   1.0000   1.0000
     1.0000   1.0000   1.0000   1.0000

          k = 0.0000 0.0000-0.1721 (  4736 PWs)   bands (ev):

   -12.0405 -12.0404 -11.6459 -11.6458  -0.4768  -0.4768  -0.4768  -0.4768
    -0.4165  -0.4165  -0.4164  -0.4164  -0.3240  -0.3240  -0.1288  -0.1287
     0.1834   0.1834   0.1834   0.1834   0.3025   0.3025   0.3025   0.3025
     1.5919   1.5919   3.5070   3.5070   3.9053   3.9053   3.9054   3.9054
     4.3518   4.3518   4.3518   4.3518

     occupation numbers 
     1.0000   1.0000   1.0000   1.0000   1.0000   1.0000   1.0000   1.0000
     1.0000   1.0000   1.0000   1.0000   1.0000   1.0000   1.0000   1.0000
     1.0000   1.0000   1.0000   1.0000   1.0000   1.0000   1.0000   1.0000
     1.0000   1.0000   1.0000   1.0000   1.0000   1.0000   1.0000   1.0000
     1.0000   1.0000   1.0000   1.0000

          k = 0.0000 0.1925 0.0000 (  4721 PWs)   bands (ev):

   -12.0346 -11.7866 -11.7866 -11.5418  -0.5284  -0.5284  -0.5118  -0.4053
    -0.3847  -0.3847  -0.3655  -0.3223  -0.3223  -0.3039  -0.1986   0.1139
     0.1404   0.1511   0.2539   0.2539   0.2781   0.2781   0.3239   0.4732
     1.1039   2.3511   2.3511   3.0443   3.3571   3.5245   3.8881   3.8881
     3.9199   3.9199   4.2871   4.3400

     occupation numbers 
     1.0000   1.0000   1.0000   1.0000   1.0000   1.0000   1.0000   1.0000
     1.0000   1.0000   1.0000   1.0000   1.0000   1.0000   1.0000   1.0000
     1.0000   1.0000   1.0000   1.0000   1.0000   1.0000   1.0000   1.0000
     1.0000   1.0000   1.0000   1.0000   1.0000   1.0000   1.0000   1.0000
     1.0000   1.0000   1.0000   1.0000

          k = 0.0000 0.1925 0.0574 (  4728 PWs)   bands (ev):

   -12.0261 -11.8506 -11.7228 -11.5501  -0.5399  -0.5140  -0.4986  -0.4057
    -0.3959  -0.3711  -0.3697  -0.3234  -0.3078  -0.2986  -0.2100   0.0948
     0.1344   0.1449   0.2289   0.2472   0.2759   0.3058   0.3221   0.4341
     1.2075   2.1485   2.5411   3.0506   3.3223   3.5384   3.6977   3.8203
     4.0177   4.0641   4.2750   4.3474

     occupation numbers 
     1.0000   1.0000   1.0000   1.0000   1.0000   1.0000   1.0000   1.0000
     1.0000   1.0000   1.0000   1.0000   1.0000   1.0000   1.0000   1.0000
     1.0000   1.0000   1.0000   1.0000   1.0000   1.0000   1.0000   1.0000
     1.0000   1.0000   1.0000   1.0000   1.0000   1.0000   1.0000   1.0000
     1.0000   1.0000   1.0000   1.0000

          k = 0.0000 0.1925 0.1147 (  4729 PWs)   bands (ev):

   -12.0013 -11.9104 -11.6636 -11.5743  -0.5374  -0.5202  -0.4564  -0.4063
    -0.4028  -0.3882  -0.3522  -0.3187  -0.3059  -0.2427  -0.2391  -0.0158
     0.1517   0.1584   0.2031   0.2142   0.2940   0.3168   0.3304   0.3844
     1.4315   1.9265   2.7237   3.0222   3.2905   3.5152   3.5791   3.7257
     4.1071   4.2071   4.2396   4.3462

     occupation numbers 
     1.0000   1.0000   1.0000   1.0000   1.0000   1.0000   1.0000   1.0000
     1.0000   1.0000   1.0000   1.0000   1.0000   1.0000   1.0000   1.0000
     1.0000   1.0000   1.0000   1.0000   1.0000   1.0000   1.0000   1.0000
     1.0000   1.0000   1.0000   1.0000   1.0000   1.0000   1.0000   1.0000
     1.0000   1.0000   1.0000   1.0000

          k = 0.0000 0.1925-0.1721 (  4730 PWs)   bands (ev):

   -11.9618 -11.9618 -11.6130 -11.6129  -0.5290  -0.5290  -0.4168  -0.4168
    -0.4059  -0.4058  -0.3343  -0.3343  -0.2750  -0.2750  -0.1447  -0.1447
     0.1787   0.1788   0.1810   0.1810   0.3077   0.3078   0.3540   0.3540
     1.6836   1.6836   2.8950   2.8950   3.3666   3.3667   3.6432   3.6432
     4.1825   4.1826   4.3031   4.3031

     occupation numbers 
     1.0000   1.0000   1.0000   1.0000   1.0000   1.0000   1.0000   1.0000
     1.0000   1.0000   1.0000   1.0000   1.0000   1.0000   1.0000   1.0000
     1.0000   1.0000   1.0000   1.0000   1.0000   1.0000   1.0000   1.0000
     1.0000   1.0000   1.0000   1.0000   1.0000   1.0000   1.0000   1.0000
     1.0000   1.0000   1.0000   1.0000

          k = 0.0000 0.3849 0.0000 (  4709 PWs)   bands (ev):

   -11.8377 -11.6698 -11.6698 -11.5169  -0.5603  -0.5603  -0.5047  -0.2895
    -0.2885  -0.2196  -0.2196  -0.2132  -0.2132  -0.1065  -0.0875   0.0821
     0.1333   0.1772   0.2584   0.2585   0.3248   0.3248   0.3394   0.4679
     1.4822   1.6596   1.6596   1.9413   2.4394   2.9686   3.4862   3.4862
     3.7906   3.7906   3.9628   3.9695

     occupation numbers 
     1.0000   1.0000   1.0000   1.0000   1.0000   1.0000   1.0000   1.0000
     1.0000   1.0000   1.0000   1.0000   1.0000   1.0000   1.0000   1.0000
     1.0000   1.0000   1.0000   1.0000   1.0000   1.0000   1.0000   1.0000
     1.0000   1.0000   1.0000   1.0000   1.0000   1.0000   1.0000   1.0000
     1.0000   1.0000   1.0000   1.0000

          k = 0.0000 0.3849 0.0574 (  4714 PWs)   bands (ev):

   -11.8318 -11.7120 -11.6286 -11.5218  -0.5726  -0.5209  -0.5096  -0.2993
    -0.2868  -0.2415  -0.2209  -0.1948  -0.1894  -0.1111  -0.1062   0.0610
     0.1413   0.1801   0.2380   0.2787   0.2900   0.3364   0.3559   0.4572
     1.4700   1.5842   1.7462   1.9778   2.4714   2.9872   3.3570   3.5240
     3.6128   3.9471   3.9850   3.9983

     occupation numbers 
     1.0000   1.0000   1.0000   1.0000   1.0000   1.0000   1.0000   1.0000
     1.0000   1.0000   1.0000   1.0000   1.0000   1.0000   1.0000   1.0000
     1.0000   1.0000   1.0000   1.0000   1.0000   1.0000   1.0000   1.0000
     1.0000   1.0000   1.0000   1.0000   1.0000   1.0000   1.0000   1.0000
     1.0000   1.0000   1.0000   1.0000

          k = 0.0000 0.3849 0.1147 (  4715 PWs)   bands (ev):

   -11.8145 -11.7521 -11.5912 -11.5364  -0.5635  -0.5236  -0.4576  -0.3308
    -0.2816  -0.2593  -0.2125  -0.1687  -0.1478  -0.1473  -0.1243  -0.0065
     0.1723   0.1885   0.2186   0.2521   0.2978   0.3278   0.3836   0.4342
     1.4620   1.5231   1.8404   1.9927   2.6213   3.0412   3.2128   3.2339
     3.7286   3.9008   4.0613   4.0904

     occupation numbers 
     1.0000   1.0000   1.0000   1.0000   1.0000   1.0000   1.0000   1.0000
     1.0000   1.0000   1.0000   1.0000   1.0000   1.0000   1.0000   1.0000
     1.0000   1.0000   1.0000   1.0000   1.0000   1.0000   1.0000   1.0000
     1.0000   1.0000   1.0000   1.0000   1.0000   1.0000   1.0000   1.0000
     1.0000   1.0000   1.0000   1.0000

          k = 0.0000 0.3849-0.1721 (  4712 PWs)   bands (ev):

   -11.7872 -11.7872 -11.5599 -11.5599  -0.5438  -0.5438  -0.3868  -0.3867
    -0.2726  -0.2726  -0.1871  -0.1871  -0.1443  -0.1443  -0.0852  -0.0852
     0.2018   0.2018   0.2120   0.2120   0.3146   0.3146   0.4093   0.4093
     1.4803   1.4804   1.9319   1.9319   2.8936   2.8936   3.1258   3.1259
     3.8265   3.8266   4.1075   4.1076

     occupation numbers 
     1.0000   1.0000   1.0000   1.0000   1.0000   1.0000   1.0000   1.0000
     1.0000   1.0000   1.0000   1.0000   1.0000   1.0000   1.0000   1.0000
     1.0000   1.0000   1.0000   1.0000   1.0000   1.0000   1.0000   1.0000
     1.0000   1.0000   1.0000   1.0000   1.0000   1.0000   1.0000   1.0000
     1.0000   1.0000   1.0000   1.0000

          k = 0.0000-0.5774 0.0000 (  4694 PWs)   bands (ev):

   -11.7088 -11.6102 -11.6101 -11.5325  -0.5544  -0.5544  -0.4658  -0.2478
    -0.1656  -0.1338  -0.1338  -0.0761  -0.0761  -0.0166   0.0093   0.0711
     0.2352   0.2433   0.2713   0.2713   0.3456   0.3484   0.3484   0.3703
     1.1757   1.1757   1.1815   1.5677   2.4519   2.6789   3.2634   3.2634
     3.6534   3.7907   3.8286   3.8286

     occupation numbers 
     1.0000   1.0000   1.0000   1.0000   1.0000   1.0000   1.0000   1.0000
     1.0000   1.0000   1.0000   1.0000   1.0000   1.0000   1.0000   1.0000
     1.0000   1.0000   1.0000   1.0000   1.0000   1.0000   1.0000   1.0000
     1.0000   1.0000   1.0000   1.0000   1.0000   1.0000   1.0000   1.0000
     1.0000   1.0000   1.0000   1.0000

          k = 0.0000-0.5774 0.0574 (  4734 PWs)   bands (ev):

   -11.7051 -11.6338 -11.5880 -11.5348  -0.5637  -0.5143  -0.4729  -0.2445
    -0.1879  -0.1668  -0.0992  -0.0847  -0.0580  -0.0310   0.0043   0.0620
     0.2363   0.2540   0.2601   0.2839   0.3355   0.3414   0.3575   0.3702
     1.1350   1.1634   1.2310   1.5395   2.5343   2.7004   3.1193   3.4038
     3.6121   3.6973   3.7734   3.9563

     occupation numbers 
     1.0000   1.0000   1.0000   1.0000   1.0000   1.0000   1.0000   1.0000
     1.0000   1.0000   1.0000   1.0000   1.0000   1.0000   1.0000   1.0000
     1.0000   1.0000   1.0000   1.0000   1.0000   1.0000   1.0000   1.0000
     1.0000   1.0000   1.0000   1.0000   1.0000   1.0000   1.0000   1.0000
     1.0000   1.0000   1.0000   1.0000

          k = 0.0000-0.5774 0.1147 (  4716 PWs)   bands (ev):

   -11.6945 -11.6570 -11.5686 -11.5416  -0.5487  -0.4929  -0.4426  -0.2547
    -0.2344  -0.1951  -0.0834  -0.0647  -0.0557  -0.0301  -0.0105   0.0373
     0.2395   0.2513   0.2766   0.2989   0.3196   0.3302   0.3640   0.3698
     1.1115   1.1296   1.3007   1.4689   2.7486   2.7625   2.9813   3.3351
     3.5319   3.7222   3.8045   3.9825

     occupation numbers 
     1.0000   1.0000   1.0000   1.0000   1.0000   1.0000   1.0000   1.0000
     1.0000   1.0000   1.0000   1.0000   1.0000   1.0000   1.0000   1.0000
     1.0000   1.0000   1.0000   1.0000   1.0000   1.0000   1.0000   1.0000
     1.0000   1.0000   1.0000   1.0000   1.0000   1.0000   1.0000   1.0000
     1.0000   1.0000   1.0000   1.0000

          k = 0.0000-0.5774-0.1721 (  4696 PWs)   bands (ev):

   -11.6779 -11.6779 -11.5529 -11.5529  -0.5212  -0.5212  -0.3491  -0.3491
    -0.2177  -0.2177  -0.0736  -0.0736  -0.0341  -0.0341   0.0038   0.0038
     0.2445   0.2445   0.2999   0.2999   0.3151   0.3152   0.3679   0.3680
     1.1091   1.1091   1.3828   1.3828   2.8590   2.8591   3.0332   3.0332
     3.6401   3.6402   3.9188   3.9189

     occupation numbers 
     1.0000   1.0000   1.0000   1.0000   1.0000   1.0000   1.0000   1.0000
     1.0000   1.0000   1.0000   1.0000   1.0000   1.0000   1.0000   1.0000
     1.0000   1.0000   1.0000   1.0000   1.0000   1.0000   1.0000   1.0000
     1.0000   1.0000   1.0000   1.0000   1.0000   1.0000   1.0000   1.0000
     1.0000   1.0000   1.0000   1.0000

          k = 0.1667 0.2887 0.0000 (  4737 PWs)   bands (ev):

   -11.8918 -11.6995 -11.6995 -11.5191  -0.5337  -0.5337  -0.4857  -0.3552
    -0.3083  -0.3083  -0.2837  -0.2309  -0.2308  -0.1892  -0.0992   0.0997
     0.1012   0.1549   0.2541   0.2541   0.3176   0.3176   0.3360   0.4796
     1.4653   1.9178   1.9178   2.3611   2.4826   3.0382   3.4224   3.4225
     3.8576   3.8576   3.9237   4.0933

     occupation numbers 
     1.0000   1.0000   1.0000   1.0000   1.0000   1.0000   1.0000   1.0000
     1.0000   1.0000   1.0000   1.0000   1.0000   1.0000   1.0000   1.0000
     1.0000   1.0000   1.0000   1.0000   1.0000   1.0000   1.0000   1.0000
     1.0000   1.0000   1.0000   1.0000   1.0000   1.0000   1.0000   1.0000
     1.0000   1.0000   1.0000   1.0000

          k = 0.1667 0.2887 0.0574 (  4722 PWs)   bands (ev):

   -11.8851 -11.7483 -11.6515 -11.5250  -0.5425  -0.5005  -0.4891  -0.3586
    -0.3056  -0.3035  -0.2864  -0.2326  -0.2141  -0.1993  -0.1113   0.0595
     0.1164   0.1636   0.2341   0.2629   0.2931   0.3336   0.3487   0.4640
     1.4983   1.8281   2.0127   2.3433   2.5460   3.0382   3.2998   3.5172
     3.6294   3.9071   4.0522   4.1193

     occupation numbers 
     1.0000   1.0000   1.0000   1.0000   1.0000   1.0000   1.0000   1.0000
     1.0000   1.0000   1.0000   1.0000   1.0000   1.0000   1.0000   1.0000
     1.0000   1.0000   1.0000   1.0000   1.0000   1.0000   1.0000   1.0000
     1.0000   1.0000   1.0000   1.0000   1.0000   1.0000   1.0000   1.0000
     1.0000   1.0000   1.0000   1.0000

          k = 0.1667 0.2887 0.1147 (  4724 PWs)   bands (ev):

   -11.8655 -11.7944 -11.6075 -11.5424  -0.5329  -0.4994  -0.4495  -0.3714
    -0.2998  -0.2925  -0.2903  -0.2272  -0.2039  -0.1907  -0.1370  -0.0329
     0.1515   0.1773   0.2133   0.2335   0.3011   0.3263   0.3776   0.4338
     1.5731   1.7422   2.1113   2.2899   2.7252   3.0531   3.1887   3.2846
     3.6830   3.8585   4.1685   4.1725

     occupation numbers 
     1.0000   1.0000   1.0000   1.0000   1.0000   1.0000   1.0000   1.0000
     1.0000   1.0000   1.0000   1.0000   1.0000   1.0000   1.0000   1.0000
     1.0000   1.0000   1.0000   1.0000   1.0000   1.0000   1.0000   1.0000
     1.0000   1.0000   1.0000   1.0000   1.0000   1.0000   1.0000   1.0000
     1.0000   1.0000   1.0000   1.0000

          k = 0.1667 0.2887-0.1721 (  4724 PWs)   bands (ev):

   -11.8345 -11.8344 -11.5705 -11.5704  -0.5155  -0.5154  -0.4010  -0.4010
    -0.2975  -0.2975  -0.2620  -0.2620  -0.1643  -0.1643  -0.1337  -0.1336
     0.1929   0.1929   0.1939   0.1939   0.3151   0.3151   0.4049   0.4049
     1.6577   1.6577   2.2078   2.2078   2.9869   2.9869   3.1029   3.1029
     3.7814   3.7815   4.2026   4.2026

     occupation numbers 
     1.0000   1.0000   1.0000   1.0000   1.0000   1.0000   1.0000   1.0000
     1.0000   1.0000   1.0000   1.0000   1.0000   1.0000   1.0000   1.0000
     1.0000   1.0000   1.0000   1.0000   1.0000   1.0000   1.0000   1.0000
     1.0000   1.0000   1.0000   1.0000   1.0000   1.0000   1.0000   1.0000
     1.0000   1.0000   1.0000   1.0000

          k = 0.1667 0.4811 0.0000 (  4706 PWs)   bands (ev):

   -11.7126 -11.6109 -11.6109 -11.5299  -0.4876  -0.4876  -0.4031  -0.2860
    -0.1641  -0.1641  -0.1512  -0.1236  -0.1236  -0.0406   0.0509   0.1093
     0.1581   0.2209   0.2523   0.2523   0.3495   0.3848   0.3848   0.4464
     1.3142   1.3440   1.3440   1.6758   2.2352   2.6043   2.8642   2.8642
     3.5153   3.6585   3.9291   3.9291

     occupation numbers 
     1.0000   1.0000   1.0000   1.0000   1.0000   1.0000   1.0000   1.0000
     1.0000   1.0000   1.0000   1.0000   1.0000   1.0000   1.0000   1.0000
     1.0000   1.0000   1.0000   1.0000   1.0000   1.0000   1.0000   1.0000
     1.0000   1.0000   1.0000   1.0000   1.0000   1.0000   1.0000   1.0000
     1.0000   1.0000   1.0000   1.0000

          k = 0.1667 0.4811 0.0574 (  4711 PWs)   bands (ev):

   -11.7088 -11.6353 -11.5878 -11.5322  -0.4943  -0.4500  -0.4085  -0.2852
    -0.1925  -0.1567  -0.1474  -0.1279  -0.0901  -0.0703   0.0441   0.0858
     0.1724   0.2280   0.2480   0.2544   0.3470   0.3678   0.4011   0.4441
     1.2980   1.2996   1.4007   1.6596   2.2507   2.6854   2.6955   3.0312
     3.4945   3.7035   3.7394   4.0268

     occupation numbers 
     1.0000   1.0000   1.0000   1.0000   1.0000   1.0000   1.0000   1.0000
     1.0000   1.0000   1.0000   1.0000   1.0000   1.0000   1.0000   1.0000
     1.0000   1.0000   1.0000   1.0000   1.0000   1.0000   1.0000   1.0000
     1.0000   1.0000   1.0000   1.0000   1.0000   1.0000   1.0000   1.0000
     1.0000   1.0000   1.0000   1.0000

          k = 0.1667 0.4811 0.1147 (  4716 PWs)   bands (ev):

   -11.6978 -11.6593 -11.5676 -11.5394  -0.4776  -0.4247  -0.3843  -0.2852
    -0.2168  -0.1828  -0.1499  -0.1217  -0.0899  -0.0489   0.0223   0.0293
     0.2023   0.2391   0.2406   0.2533   0.3429   0.3525   0.4156   0.4376
     1.2698   1.2705   1.4678   1.6112   2.3049   2.5375   2.8964   3.1821
     3.4325   3.4848   3.8160   4.0255

     occupation numbers 
     1.0000   1.0000   1.0000   1.0000   1.0000   1.0000   1.0000   1.0000
     1.0000   1.0000   1.0000   1.0000   1.0000   1.0000   1.0000   1.0000
     1.0000   1.0000   1.0000   1.0000   1.0000   1.0000   1.0000   1.0000
     1.0000   1.0000   1.0000   1.0000   1.0000   1.0000   1.0000   1.0000
     1.0000   1.0000   1.0000   1.0000

          k = 0.1667 0.4811-0.1721 (  4710 PWs)   bands (ev):

   -11.6808 -11.6808 -11.5513 -11.5513  -0.4502  -0.4502  -0.3118  -0.3118
    -0.2222  -0.2222  -0.1437  -0.1437  -0.0364  -0.0364  -0.0086  -0.0086
     0.2267   0.2267   0.2480   0.2480   0.3435   0.3435   0.4279   0.4280
     1.2589   1.2589   1.5415   1.5416   2.4030   2.4031   3.1658   3.1658
     3.3419   3.3419   3.9419   3.9420

     occupation numbers 
     1.0000   1.0000   1.0000   1.0000   1.0000   1.0000   1.0000   1.0000
     1.0000   1.0000   1.0000   1.0000   1.0000   1.0000   1.0000   1.0000
     1.0000   1.0000   1.0000   1.0000   1.0000   1.0000   1.0000   1.0000
     1.0000   1.0000   1.0000   1.0000   1.0000   1.0000   1.0000   1.0000
     1.0000   1.0000   1.0000   1.0000

          k = 0.3333 0.5774 0.0000 (  4710 PWs)   bands (ev):

   -11.5933 -11.5933 -11.5816 -11.5816  -0.4020  -0.4020  -0.3367  -0.2119
    -0.2119  -0.1539  -0.1539  -0.0391  -0.0391   0.0982   0.1522   0.1522
     0.1885   0.1885   0.2211   0.2826   0.3939   0.3939   0.4726   0.4726
     1.2864   1.2865   1.4080   1.4961   1.4961   2.3359   2.3360   3.1392
     3.1439   3.1440   3.9992   3.9992

     occupation numbers 
     1.0000   1.0000   1.0000   1.0000   1.0000   1.0000   1.0000   1.0000
     1.0000   1.0000   1.0000   1.0000   1.0000   1.0000   1.0000   1.0000
     1.0000   1.0000   1.0000   1.0000   1.0000   1.0000   1.0000   1.0000
     1.0000   1.0000   1.0000   1.0000   1.0000   1.0000   1.0000   1.0000
     1.0000   1.0000   1.0000   1.0000

          k = 0.3333 0.5774 0.0574 (  4713 PWs)   bands (ev):

   -11.5926 -11.5925 -11.5824 -11.5824  -0.3867  -0.3867  -0.3316  -0.2210
    -0.2210  -0.2103  -0.0892  -0.0322  -0.0322   0.0949   0.1300   0.1300
     0.1825   0.1961   0.2200   0.2648   0.4043   0.4043   0.4696   0.4696
     1.2943   1.2943   1.4479   1.4721   1.4721   2.1205   2.5458   3.1118
     3.2106   3.2106   3.9475   3.9475

     occupation numbers 
     1.0000   1.0000   1.0000   1.0000   1.0000   1.0000   1.0000   1.0000
     1.0000   1.0000   1.0000   1.0000   1.0000   1.0000   1.0000   1.0000
     1.0000   1.0000   1.0000   1.0000   1.0000   1.0000   1.0000   1.0000
     1.0000   1.0000   1.0000   1.0000   1.0000   1.0000   1.0000   1.0000
     1.0000   1.0000   1.0000   1.0000

          k = 0.3333 0.5774 0.1147 (  4689 PWs)   bands (ev):

   -11.5904 -11.5904 -11.5846 -11.5845  -0.3455  -0.3455  -0.3167  -0.2563
    -0.2488  -0.2488  -0.0202  -0.0106  -0.0106   0.0797   0.0797   0.0804
     0.1817   0.2041   0.2167   0.2252   0.4259   0.4259   0.4610   0.4610
     1.3188   1.3188   1.4174   1.4174   1.5579   1.9106   2.7390   3.0315
     3.3823   3.3823   3.8037   3.8037

     occupation numbers 
     1.0000   1.0000   1.0000   1.0000   1.0000   1.0000   1.0000   1.0000
     1.0000   1.0000   1.0000   1.0000   1.0000   1.0000   1.0000   1.0000
     1.0000   1.0000   1.0000   1.0000   1.0000   1.0000   1.0000   1.0000
     1.0000   1.0000   1.0000   1.0000   1.0000   1.0000   1.0000   1.0000
     1.0000   1.0000   1.0000   1.0000

          k = 0.3333 0.5774-0.1721 (  4680 PWs)   bands (ev):

   -11.5875 -11.5875 -11.5875 -11.5874  -0.2938  -0.2938  -0.2938  -0.2937
    -0.2917  -0.2917   0.0276   0.0276   0.0276   0.0276   0.0419   0.0419
     0.1931   0.1931   0.2113   0.2113   0.4462   0.4462   0.4462   0.4462
     1.3609   1.3610   1.3610   1.3610   1.7183   1.7184   2.9043   2.9043
     3.5995   3.5995   3.5995   3.5995

     occupation numbers 
     1.0000   1.0000   1.0000   1.0000   1.0000   1.0000   1.0000   1.0000
     1.0000   1.0000   1.0000   1.0000   1.0000   1.0000   1.0000   1.0000
     1.0000   1.0000   1.0000   1.0000   1.0000   1.0000   1.0000   1.0000
     1.0000   1.0000   1.0000   1.0000   1.0000   1.0000   1.0000   1.0000
     1.0000   1.0000   1.0000   1.0000

          k = 0.0000-0.1925 0.0574 (  4728 PWs)   bands (ev):

   -12.0261 -11.8506 -11.7228 -11.5501  -0.5399  -0.5140  -0.4986  -0.4057
    -0.3959  -0.3711  -0.3697  -0.3234  -0.3078  -0.2986  -0.2100   0.0948
     0.1344   0.1449   0.2289   0.2472   0.2759   0.3058   0.3221   0.4341
     1.2075   2.1485   2.5411   3.0506   3.3224   3.5384   3.6977   3.8203
     4.0177   4.0641   4.2750   4.3474

     occupation numbers 
     1.0000   1.0000   1.0000   1.0000   1.0000   1.0000   1.0000   1.0000
     1.0000   1.0000   1.0000   1.0000   1.0000   1.0000   1.0000   1.0000
     1.0000   1.0000   1.0000   1.0000   1.0000   1.0000   1.0000   1.0000
     1.0000   1.0000   1.0000   1.0000   1.0000   1.0000   1.0000   1.0000
     1.0000   1.0000   1.0000   1.0000

          k = 0.0000-0.1925 0.1147 (  4729 PWs)   bands (ev):

   -12.0013 -11.9104 -11.6636 -11.5743  -0.5374  -0.5202  -0.4564  -0.4063
    -0.4028  -0.3882  -0.3522  -0.3187  -0.3059  -0.2427  -0.2391  -0.0158
     0.1517   0.1584   0.2031   0.2142   0.2940   0.3168   0.3304   0.3844
     1.4315   1.9265   2.7237   3.0222   3.2905   3.5152   3.5791   3.7257
     4.1071   4.2071   4.2396   4.3462

     occupation numbers 
     1.0000   1.0000   1.0000   1.0000   1.0000   1.0000   1.0000   1.0000
     1.0000   1.0000   1.0000   1.0000   1.0000   1.0000   1.0000   1.0000
     1.0000   1.0000   1.0000   1.0000   1.0000   1.0000   1.0000   1.0000
     1.0000   1.0000   1.0000   1.0000   1.0000   1.0000   1.0000   1.0000
     1.0000   1.0000   1.0000   1.0000

          k = 0.0000-0.3849 0.0574 (  4714 PWs)   bands (ev):

   -11.8318 -11.7120 -11.6286 -11.5218  -0.5726  -0.5209  -0.5096  -0.2993
    -0.2868  -0.2415  -0.2209  -0.1948  -0.1894  -0.1111  -0.1062   0.0610
     0.1413   0.1801   0.2380   0.2787   0.2900   0.3364   0.3559   0.4572
     1.4700   1.5842   1.7462   1.9778   2.4714   2.9872   3.3570   3.5240
     3.6128   3.9471   3.9850   3.9983

     occupation numbers 
     1.0000   1.0000   1.0000   1.0000   1.0000   1.0000   1.0000   1.0000
     1.0000   1.0000   1.0000   1.0000   1.0000   1.0000   1.0000   1.0000
     1.0000   1.0000   1.0000   1.0000   1.0000   1.0000   1.0000   1.0000
     1.0000   1.0000   1.0000   1.0000   1.0000   1.0000   1.0000   1.0000
     1.0000   1.0000   1.0000   1.0000

          k = 0.0000-0.3849 0.1147 (  4715 PWs)   bands (ev):

   -11.8145 -11.7521 -11.5912 -11.5364  -0.5635  -0.5236  -0.4575  -0.3308
    -0.2816  -0.2593  -0.2125  -0.1687  -0.1478  -0.1473  -0.1243  -0.0065
     0.1723   0.1885   0.2186   0.2521   0.2978   0.3278   0.3836   0.4342
     1.4620   1.5231   1.8404   1.9927   2.6214   3.0412   3.2128   3.2339
     3.7286   3.9008   4.0613   4.0904

     occupation numbers 
     1.0000   1.0000   1.0000   1.0000   1.0000   1.0000   1.0000   1.0000
     1.0000   1.0000   1.0000   1.0000   1.0000   1.0000   1.0000   1.0000
     1.0000   1.0000   1.0000   1.0000   1.0000   1.0000   1.0000   1.0000
     1.0000   1.0000   1.0000   1.0000   1.0000   1.0000   1.0000   1.0000
     1.0000   1.0000   1.0000   1.0000

          k =-0.1667-0.4811 0.0574 (  4711 PWs)   bands (ev):

   -11.7088 -11.6353 -11.5878 -11.5322  -0.4943  -0.4500  -0.4085  -0.2852
    -0.1925  -0.1567  -0.1474  -0.1279  -0.0901  -0.0703   0.0441   0.0858
     0.1724   0.2280   0.2480   0.2544   0.3470   0.3678   0.4011   0.4441
     1.2980   1.2996   1.4007   1.6596   2.2507   2.6854   2.6955   3.0312
     3.4945   3.7035   3.7394   4.0268

     occupation numbers 
     1.0000   1.0000   1.0000   1.0000   1.0000   1.0000   1.0000   1.0000
     1.0000   1.0000   1.0000   1.0000   1.0000   1.0000   1.0000   1.0000
     1.0000   1.0000   1.0000   1.0000   1.0000   1.0000   1.0000   1.0000
     1.0000   1.0000   1.0000   1.0000   1.0000   1.0000   1.0000   1.0000
     1.0000   1.0000   1.0000   1.0000

          k =-0.1667-0.4811 0.1147 (  4716 PWs)   bands (ev):

   -11.6978 -11.6593 -11.5676 -11.5394  -0.4776  -0.4247  -0.3843  -0.2852
    -0.2168  -0.1828  -0.1499  -0.1217  -0.0899  -0.0489   0.0223   0.0293
     0.2023   0.2391   0.2406   0.2533   0.3429   0.3525   0.4156   0.4376
     1.2698   1.2705   1.4678   1.6112   2.3049   2.5375   2.8964   3.1821
     3.4325   3.4848   3.8160   4.0255

     occupation numbers 
     1.0000   1.0000   1.0000   1.0000   1.0000   1.0000   1.0000   1.0000
     1.0000   1.0000   1.0000   1.0000   1.0000   1.0000   1.0000   1.0000
     1.0000   1.0000   1.0000   1.0000   1.0000   1.0000   1.0000   1.0000
     1.0000   1.0000   1.0000   1.0000   1.0000   1.0000   1.0000   1.0000
     1.0000   1.0000   1.0000   1.0000

     highest occupied level (ev):     4.4688

!    total energy              =    -723.17773709 Ry
     estimated scf accuracy    <          4.5E-09 Ry

     The total energy is the sum of the following terms:
     one-electron contribution =    -349.42290262 Ry
     hartree contribution      =     251.17257523 Ry
     xc contribution           =    -218.39805105 Ry
     ewald contribution        =    -406.52935865 Ry

     convergence has been achieved in  32 iterations

     Forces acting on atoms (cartesian axes, Ry/au):

     atom    1 type  1   force =     0.00000000   -0.00000000   -0.00914116
     atom    2 type  2   force =     0.00000000    0.00000000    0.00912696
     atom    3 type  1   force =     0.00000000    0.00000000   -0.00913925
     atom    4 type  2   force =     0.00000000    0.00000000    0.00912553
     atom    5 type  1   force =     0.00000000    0.00000000   -0.00910838
     atom    6 type  2   force =     0.00000000    0.00000000    0.00912993
     atom    7 type  1   force =     0.00000000    0.00000000   -0.00912389
     atom    8 type  2   force =     0.00000000   -0.00000000    0.00913028
     The non-local contrib.  to forces
     atom    1 type  1   force =     0.00000000    0.00000000    0.13870654
     atom    2 type  2   force =     0.00000000    0.00000000    0.12373513
     atom    3 type  1   force =     0.00000000    0.00000000    0.13871307
     atom    4 type  2   force =     0.00000000   -0.00000000    0.12372962
     atom    5 type  1   force =    -0.00000000   -0.00000000    0.13871485
     atom    6 type  2   force =     0.00000000    0.00000000    0.12373237
     atom    7 type  1   force =     0.00000000    0.00000000    0.13870665
     atom    8 type  2   force =     0.00000000   -0.00000000    0.12373687
     The ionic contribution  to forces
     atom    1 type  1   force =    -0.00000000    0.00000000    0.87181832
     atom    2 type  2   force =     0.00000000   -0.00000000   -0.87181832
     atom    3 type  1   force =     0.00000000   -0.00000000    0.87181832
     atom    4 type  2   force =    -0.00000000    0.00000000   -0.87181832
     atom    5 type  1   force =    -0.00000000    0.00000000    0.87181832
     atom    6 type  2   force =     0.00000000   -0.00000000   -0.87181832
     atom    7 type  1   force =     0.00000000   -0.00000000    0.87181832
     atom    8 type  2   force =    -0.00000000    0.00000000   -0.87181832
     The local contribution  to forces
     atom    1 type  1   force =    -0.00000000    0.00000000   -1.01191174
     atom    2 type  2   force =     0.00000001   -0.00000001    0.75830634
     atom    3 type  1   force =     0.00000005   -0.00000003   -1.01192026
     atom    4 type  2   force =    -0.00000000   -0.00000000    0.75831200
     atom    5 type  1   force =    -0.00000000    0.00000000   -1.01194556
     atom    6 type  2   force =     0.00000001   -0.00000001    0.75828362
     atom    7 type  1   force =     0.00000005   -0.00000003   -1.01192537
     atom    8 type  2   force =     0.00000000    0.00000000    0.75828071
     The core correction contribution to forces
     atom    1 type  1   force =     0.00000000   -0.00000000   -0.00773162
     atom    2 type  2   force =    -0.00000000    0.00000000   -0.00108362
     atom    3 type  1   force =     0.00000001   -0.00000000   -0.00773033
     atom    4 type  2   force =     0.00000000   -0.00000000   -0.00108144
     atom    5 type  1   force =     0.00000000   -0.00000000   -0.00772530
     atom    6 type  2   force =    -0.00000000    0.00000000   -0.00108196
     atom    7 type  1   force =     0.00000001   -0.00000000   -0.00772695
     atom    8 type  2   force =     0.00000000   -0.00000000   -0.00108412
     The Hubbard contrib.    to forces
     atom    1 type  1   force =     0.00000000    0.00000000    0.00000000
     atom    2 type  2   force =     0.00000000    0.00000000    0.00000000
     atom    3 type  1   force =     0.00000000    0.00000000    0.00000000
     atom    4 type  2   force =     0.00000000    0.00000000    0.00000000
     atom    5 type  1   force =     0.00000000    0.00000000    0.00000000
     atom    6 type  2   force =     0.00000000    0.00000000    0.00000000
     atom    7 type  1   force =     0.00000000    0.00000000    0.00000000
     atom    8 type  2   force =     0.00000000    0.00000000    0.00000000
     The SCF correction term to forces
     atom    1 type  1   force =    -0.00000000    0.00000000   -0.00002422
     atom    2 type  2   force =     0.00000000   -0.00000000   -0.00001414
     atom    3 type  1   force =     0.00000000   -0.00000000   -0.00002162
     atom    4 type  2   force =    -0.00000000    0.00000000   -0.00001791
     atom    5 type  1   force =    -0.00000000    0.00000000    0.00002774
     atom    6 type  2   force =     0.00000000   -0.00000000    0.00001264
     atom    7 type  1   force =     0.00000000   -0.00000000    0.00000190
     atom    8 type  2   force =    -0.00000000    0.00000000    0.00001357

     Total force =     0.025818     Total SCF correction =     0.000052

     init_run     :      3.63s CPU      3.85s WALL (       1 calls)
     electrons    :    233.79s CPU    246.05s WALL (       1 calls)
     forces       :      1.36s CPU      1.42s WALL (       1 calls)

     Called by init_run:
     wfcinit      :      2.06s CPU      2.18s WALL (       1 calls)
     wfcinit:atom :      0.03s CPU      0.03s WALL (      17 calls)
     wfcinit:wfcr :      1.87s CPU      1.99s WALL (      17 calls)
     potinit      :      0.63s CPU      0.65s WALL (       1 calls)
     hinit0       :      0.78s CPU      0.80s WALL (       1 calls)

     Called by electrons:
     c_bands      :    203.61s CPU    211.82s WALL (      32 calls)
     sum_band     :     23.78s CPU     26.42s WALL (      32 calls)
     v_of_rho     :      2.45s CPU      2.54s WALL (      33 calls)
     v_h          :      0.15s CPU      0.16s WALL (      33 calls)
     v_xc         :      2.37s CPU      2.45s WALL (      34 calls)
     newd         :      3.46s CPU      4.81s WALL (      33 calls)
     mix_rho      :      0.41s CPU      0.44s WALL (      32 calls)

     Called by c_bands:
     init_us_2    :      1.66s CPU      1.68s WALL (    1122 calls)
     init_us_2:cp :      1.65s CPU      1.67s WALL (    1122 calls)
     cegterg      :    183.15s CPU    191.31s WALL (     544 calls)

     Called by sum_band:
     sum_band:wei :      0.00s CPU      0.00s WALL (      32 calls)
     sum_band:loo :     19.21s CPU     20.41s WALL (      32 calls)
     sum_band:buf :      0.12s CPU      0.13s WALL (     544 calls)
     sum_band:ini :      0.79s CPU      0.80s WALL (     544 calls)
     sum_band:cal :      2.82s CPU      2.88s WALL (     544 calls)
     sum_band:bec :      0.06s CPU      0.06s WALL (     544 calls)
     addusdens    :      3.94s CPU      5.32s WALL (      32 calls)
                                        0.00s GPU  (      32 calls)
     addusd:skk   :      0.03s CPU      0.03s WALL (      64 calls)
                                        0.00s GPU  (      64 calls)

     Called by *egterg:
     cdiaghg      :     16.53s CPU     16.57s WALL (    3816 calls)
     cegterg:over :     11.08s CPU     11.31s WALL (    3272 calls)
     cegterg:upda :      7.16s CPU      7.18s WALL (    3272 calls)
     cegterg:last :     15.02s CPU     15.04s WALL (    1752 calls)
     h_psi        :    119.04s CPU    126.90s WALL (    3833 calls)
     s_psi        :     11.62s CPU     11.66s WALL (    3833 calls)
     g_psi        :      0.65s CPU      0.65s WALL (    3272 calls)

     Called by h_psi:
     h_psi:calbec :     10.85s CPU     11.18s WALL (    3833 calls)
     vloc_psi     :     95.74s CPU    103.21s WALL (    3833 calls)
     add_vuspsi   :     12.02s CPU     12.07s WALL (    3833 calls)

     General routines
     calbec       :     13.99s CPU     14.39s WALL (    4445 calls)
     fft          :      1.53s CPU      1.65s WALL (     438 calls)
     ffts         :      0.24s CPU      0.24s WALL (      65 calls)
     fftw         :     88.56s CPU     95.70s WALL (  158220 calls)
     interpolate  :      0.33s CPU      0.35s WALL (      33 calls)

     Parallel routines

     PWSCF        :   3m59.29s CPU   4m11.85s WALL


   This run was terminated on:  17:30:18  13Jul2025            

=------------------------------------------------------------------------------=
   JOB DONE.
=------------------------------------------------------------------------------=
Note: The following floating-point exceptions are signalling: IEEE_INVALID_FLAG
Note: The following floating-point exceptions are signalling: IEEE_INVALID_FLAG
