Authorization required, but no authorization protocol specified

Authorization required, but no authorization protocol specified

Authorization required, but no authorization protocol specified

Authorization required, but no authorization protocol specified

Authorization required, but no authorization protocol specified

Authorization required, but no authorization protocol specified

Authorization required, but no authorization protocol specified

Authorization required, but no authorization protocol specified

Authorization required, but no authorization protocol specified

Authorization required, but no authorization protocol specified


     Program PWSCF v.7.2 starts on 13Jul2025 at 13:34:22 

     This program is part of the open-source Quantum ESPRESSO suite
     for quantum simulation of materials; please cite
         "P. Giannozzi et al., J. Phys.:Condens. Matter 21 395502 (2009);
         "P. Giannozzi et al., J. Phys.:Condens. Matter 29 465901 (2017);
         "P. Giannozzi et al., J. Chem. Phys. 152 154105 (2020);
          URL http://www.quantum-espresso.org", 
     in publications or presentations arising from this work. More details at
     http://www.quantum-espresso.org/quote

     Parallel version (MPI), running on     8 processors

     MPI processes distributed on     1 nodes
     56450 MiB available memory on the printing compute node when the environment starts

     Reading input from /home/jvc/QEspresso7.2/ZnO_database/scripts/cell112.in/ZnO-3.27-1.52-112.in
Warning: card &CELL ignored
Warning: card / ignored
Warning: card &FCP ignored
Warning: card / ignored
Warning: card &RISM ignored
Warning: card / ignored

     Current dimensions of program PWSCF are:
     Max number of different atomic species (ntypx) = 10
     Max number of k-points (npk) =  40000
     Max angular momentum in pseudopotentials (lmaxx) =  4
     file Zn.upf: wavefunction(s)  3D renormalized
     Found identity + (  0.0000  0.0000 -0.5000) symmetry
     This is a supercell, fractional translations are disabled
     Message from routine setup:
     using ibrav=0 with symmetry is DISCOURAGED, use correct ibrav instead

     K-points division:     npool     =       2
     R & G space division:  proc/nbgrp/npool/nimage =       4
     Subspace diagonalization in iterative solution of the eigenvalue problem:
     a serial algorithm will be used


     Parallelization info
     --------------------
     sticks:   dense  smooth     PW     G-vecs:    dense   smooth      PW
     Min         261     129     40                20926     7397    1234
     Max         262     130     42                20929     7403    1241
     Sum        1045     517    163                83711    29605    4949

     Using Slab Decomposition



     bravais-lattice index     =            0
     lattice parameter (alat)  =       6.1789  a.u.
     unit-cell volume          =     620.0293 (a.u.)^3
     number of atoms/cell      =            8
     number of atomic types    =            2
     number of electrons       =        72.00
     number of Kohn-Sham states=           36
     kinetic-energy cutoff     =      50.0000  Ry
     charge density cutoff     =     400.0000  Ry
     scf convergence threshold =      1.0E-08
     mixing beta               =       0.3000
     number of iterations used =            8  plain     mixing
     Exchange-correlation= PBE
                           (   1   4   3   4   0   0   0)

     celldm(1)=   6.178854  celldm(2)=   0.000000  celldm(3)=   0.000000
     celldm(4)=   0.000000  celldm(5)=   0.000000  celldm(6)=   0.000000

     crystal axes: (cart. coord. in units of alat)
               a(1) = (   1.000000   0.000000   0.000000 )  
               a(2) = (  -0.500000   0.866025   0.000000 )  
               a(3) = (   0.000000   0.000000   3.034994 )  

     reciprocal axes: (cart. coord. in units 2 pi/alat)
               b(1) = (  1.000000  0.577350 -0.000000 )  
               b(2) = (  0.000000  1.154701  0.000000 )  
               b(3) = (  0.000000 -0.000000  0.329490 )  


     PseudoPot. # 1 for Zn read from file:
     /home/jvc/QEspresso7.2/ZnO_database/pseudos/Zn.upf
     MD5 check sum: 7f56cabf9682ed8c977c2f7d0c5985c5
     Pseudo is Ultrasoft + core correction, Zval = 12.0
     Generated using &quot;atomic&quot; code by A. Dal Corso  v.6.2.2
     Using radial grid of 1201 points,  6 beta functions with: 
                l(1) =   0
                l(2) =   0
                l(3) =   1
                l(4) =   1
                l(5) =   2
                l(6) =   2
     Q(r) pseudized with 0 coefficients 


     PseudoPot. # 2 for O  read from file:
     /home/jvc/QEspresso7.2/ZnO_database/pseudos/O.upf
     MD5 check sum: 91400c9766925bcf19f520983a725ff0
     Pseudo is Ultrasoft + core correction, Zval =  6.0
     Generated using &quot;atomic&quot; code by A. Dal Corso  v.6.3MaX
     Using radial grid of 1095 points,  4 beta functions with: 
                l(1) =   0
                l(2) =   0
                l(3) =   1
                l(4) =   1
     Q(r) pseudized with 0 coefficients 


     atomic species   valence    mass     pseudopotential
        Zn            12.00    65.38000     Zn( 1.00)
        O              6.00    15.99900     O ( 1.00)

      6 Sym. Ops. (no inversion) found


                                    s                        frac. trans.

      isym =  1     identity                                     

 cryst.   s( 1) = (     1          0          0      )
                  (     0          1          0      )
                  (     0          0          1      )

 cart.    s( 1) = (  1.0000000  0.0000000  0.0000000 )
                  (  0.0000000  1.0000000  0.0000000 )
                  (  0.0000000  0.0000000  1.0000000 )


      isym =  2     120 deg rotation - cryst. axis [0,0,1]       

 cryst.   s( 2) = (     0          1          0      )
                  (    -1         -1          0      )
                  (     0          0          1      )

 cart.    s( 2) = ( -0.5000000 -0.8660254  0.0000000 )
                  (  0.8660254 -0.5000000  0.0000000 )
                  (  0.0000000  0.0000000  1.0000000 )


      isym =  3     120 deg rotation - cryst. axis [0,0,-1]      

 cryst.   s( 3) = (    -1         -1          0      )
                  (     1          0          0      )
                  (     0          0          1      )

 cart.    s( 3) = ( -0.5000000  0.8660254  0.0000000 )
                  ( -0.8660254 -0.5000000  0.0000000 )
                  (  0.0000000  0.0000000  1.0000000 )


      isym =  4     inv. 180 deg rotation - cart. axis [1,0,0]   

 cryst.   s( 4) = (    -1          0          0      )
                  (     1          1          0      )
                  (     0          0          1      )

 cart.    s( 4) = ( -1.0000000  0.0000000  0.0000000 )
                  (  0.0000000  1.0000000  0.0000000 )
                  (  0.0000000  0.0000000  1.0000000 )


      isym =  5     inv. 180 deg rotation - cryst. axis [0,1,0]  

 cryst.   s( 5) = (     1          1          0      )
                  (     0         -1          0      )
                  (     0          0          1      )

 cart.    s( 5) = (  0.5000000  0.8660254  0.0000000 )
                  (  0.8660254 -0.5000000  0.0000000 )
                  (  0.0000000  0.0000000  1.0000000 )


      isym =  6     inv. 180 deg rotation - cryst. axis [1,1,0]  

 cryst.   s( 6) = (     0         -1          0      )
                  (    -1          0          0      )
                  (     0          0          1      )

 cart.    s( 6) = (  0.5000000 -0.8660254  0.0000000 )
                  ( -0.8660254 -0.5000000  0.0000000 )
                  (  0.0000000  0.0000000  1.0000000 )


   Cartesian axes

     site n.     atom                  positions (alat units)
         1           Zn  tau(   1) = (   0.0000000   0.0000000   0.0000000  )
         2           O   tau(   2) = (  -0.0000000   0.5773503   0.1597142  )
         3           Zn  tau(   3) = (  -0.0000000   0.5773503   0.7587484  )
         4           O   tau(   4) = (   0.0000000   0.0000000   0.9184627  )
         5           Zn  tau(   5) = (   0.0000000   0.0000000   1.5174969  )
         6           O   tau(   6) = (  -0.0000000   0.5773503   1.6772111  )
         7           Zn  tau(   7) = (  -0.0000000   0.5773503   2.2762453  )
         8           O   tau(   8) = (   0.0000000   0.0000000   2.4359595  )

   Crystallographic axes

     site n.     atom                  positions (cryst. coord.)
         1           Zn  tau(   1) = (  0.0000000  0.0000000  0.0000000  )
         2           O   tau(   2) = (  0.3333333  0.6666667  0.0526242  )
         3           Zn  tau(   3) = (  0.3333333  0.6666667  0.2500000  )
         4           O   tau(   4) = (  0.0000000  0.0000000  0.3026242  )
         5           Zn  tau(   5) = (  0.0000000  0.0000000  0.5000000  )
         6           O   tau(   6) = (  0.3333333  0.6666667  0.5526242  )
         7           Zn  tau(   7) = (  0.3333333  0.6666667  0.7500000  )
         8           O   tau(   8) = (  0.0000000  0.0000000  0.8026242  )

     number of k points=    34
                       cart. coord. in units 2pi/alat
        k(    1) = (   0.0000000   0.0000000   0.0000000), wk =   0.0092593
        k(    2) = (   0.0000000   0.0000000   0.0549150), wk =   0.0185185
        k(    3) = (   0.0000000   0.0000000   0.1098300), wk =   0.0185185
        k(    4) = (   0.0000000   0.0000000  -0.1647450), wk =   0.0092593
        k(    5) = (   0.0000000   0.1924501   0.0000000), wk =   0.0555556
        k(    6) = (   0.0000000   0.1924501   0.0549150), wk =   0.0555556
        k(    7) = (   0.0000000   0.1924501   0.1098300), wk =   0.0555556
        k(    8) = (   0.0000000   0.1924501  -0.1647450), wk =   0.0555556
        k(    9) = (   0.0000000   0.3849002   0.0000000), wk =   0.0555556
        k(   10) = (   0.0000000   0.3849002   0.0549150), wk =   0.0555556
        k(   11) = (   0.0000000   0.3849002   0.1098300), wk =   0.0555556
        k(   12) = (   0.0000000   0.3849002  -0.1647450), wk =   0.0555556
        k(   13) = (   0.0000000  -0.5773503   0.0000000), wk =   0.0277778
        k(   14) = (   0.0000000  -0.5773503   0.0549150), wk =   0.0555556
        k(   15) = (   0.0000000  -0.5773503   0.1098300), wk =   0.0555556
        k(   16) = (   0.0000000  -0.5773503  -0.1647450), wk =   0.0277778
        k(   17) = (   0.1666667   0.2886751   0.0000000), wk =   0.0555556
        k(   18) = (   0.1666667   0.2886751   0.0549150), wk =   0.1111111
        k(   19) = (   0.1666667   0.2886751   0.1098300), wk =   0.1111111
        k(   20) = (   0.1666667   0.2886751  -0.1647450), wk =   0.0555556
        k(   21) = (   0.1666667   0.4811252   0.0000000), wk =   0.1111111
        k(   22) = (   0.1666667   0.4811252   0.0549150), wk =   0.1111111
        k(   23) = (   0.1666667   0.4811252   0.1098300), wk =   0.1111111
        k(   24) = (   0.1666667   0.4811252  -0.1647450), wk =   0.1111111
        k(   25) = (   0.3333333   0.5773503   0.0000000), wk =   0.0185185
        k(   26) = (   0.3333333   0.5773503   0.0549150), wk =   0.0370370
        k(   27) = (   0.3333333   0.5773503   0.1098300), wk =   0.0370370
        k(   28) = (   0.3333333   0.5773503  -0.1647450), wk =   0.0185185
        k(   29) = (   0.0000000  -0.1924501   0.0549150), wk =   0.0555556
        k(   30) = (   0.0000000  -0.1924501   0.1098300), wk =   0.0555556
        k(   31) = (   0.0000000  -0.3849002   0.0549150), wk =   0.0555556
        k(   32) = (   0.0000000  -0.3849002   0.1098300), wk =   0.0555556
        k(   33) = (  -0.1666667  -0.4811252   0.0549150), wk =   0.1111111
        k(   34) = (  -0.1666667  -0.4811252   0.1098300), wk =   0.1111111

                       cryst. coord.
        k(    1) = (   0.0000000   0.0000000   0.0000000), wk =   0.0092593
        k(    2) = (   0.0000000   0.0000000   0.1666667), wk =   0.0185185
        k(    3) = (   0.0000000   0.0000000   0.3333333), wk =   0.0185185
        k(    4) = (   0.0000000   0.0000000  -0.5000000), wk =   0.0092593
        k(    5) = (   0.0000000   0.1666667   0.0000000), wk =   0.0555556
        k(    6) = (   0.0000000   0.1666667   0.1666667), wk =   0.0555556
        k(    7) = (   0.0000000   0.1666667   0.3333333), wk =   0.0555556
        k(    8) = (   0.0000000   0.1666667  -0.5000000), wk =   0.0555556
        k(    9) = (   0.0000000   0.3333333   0.0000000), wk =   0.0555556
        k(   10) = (   0.0000000   0.3333333   0.1666667), wk =   0.0555556
        k(   11) = (   0.0000000   0.3333333   0.3333333), wk =   0.0555556
        k(   12) = (   0.0000000   0.3333333  -0.5000000), wk =   0.0555556
        k(   13) = (   0.0000000  -0.5000000   0.0000000), wk =   0.0277778
        k(   14) = (   0.0000000  -0.5000000   0.1666667), wk =   0.0555556
        k(   15) = (   0.0000000  -0.5000000   0.3333333), wk =   0.0555556
        k(   16) = (   0.0000000  -0.5000000  -0.5000000), wk =   0.0277778
        k(   17) = (   0.1666667   0.1666667   0.0000000), wk =   0.0555556
        k(   18) = (   0.1666667   0.1666667   0.1666667), wk =   0.1111111
        k(   19) = (   0.1666667   0.1666667   0.3333333), wk =   0.1111111
        k(   20) = (   0.1666667   0.1666667  -0.5000000), wk =   0.0555556
        k(   21) = (   0.1666667   0.3333333   0.0000000), wk =   0.1111111
        k(   22) = (   0.1666667   0.3333333   0.1666667), wk =   0.1111111
        k(   23) = (   0.1666667   0.3333333   0.3333333), wk =   0.1111111
        k(   24) = (   0.1666667   0.3333333  -0.5000000), wk =   0.1111111
        k(   25) = (   0.3333333   0.3333333   0.0000000), wk =   0.0185185
        k(   26) = (   0.3333333   0.3333333   0.1666667), wk =   0.0370370
        k(   27) = (   0.3333333   0.3333333   0.3333333), wk =   0.0370370
        k(   28) = (   0.3333333   0.3333333  -0.5000000), wk =   0.0185185
        k(   29) = (   0.0000000  -0.1666667   0.1666667), wk =   0.0555556
        k(   30) = (   0.0000000  -0.1666667   0.3333333), wk =   0.0555556
        k(   31) = (   0.0000000  -0.3333333   0.1666667), wk =   0.0555556
        k(   32) = (   0.0000000  -0.3333333   0.3333333), wk =   0.0555556
        k(   33) = (  -0.1666667  -0.3333333   0.1666667), wk =   0.1111111
        k(   34) = (  -0.1666667  -0.3333333   0.3333333), wk =   0.1111111

     Dense  grid:    83711 G-vectors     FFT dimensions: (  40,  40, 120)

     Smooth grid:    29605 G-vectors     FFT dimensions: (  27,  27,  90)

     Dynamical RAM for                 wfc:       0.51 MB

     Dynamical RAM for     wfc (w. buffer):       9.15 MB

     Dynamical RAM for           str. fact:       0.64 MB

     Dynamical RAM for           local pot:       0.00 MB

     Dynamical RAM for          nlocal pot:       1.47 MB

     Dynamical RAM for                qrad:       3.21 MB

     Dynamical RAM for          rho,v,vnew:       2.06 MB

     Dynamical RAM for               rhoin:       0.69 MB

     Dynamical RAM for            rho*nmix:       5.11 MB

     Dynamical RAM for           G-vectors:       1.25 MB

     Dynamical RAM for          h,s,v(r/c):       0.24 MB

     Dynamical RAM for          <psi|beta>:       0.06 MB

     Dynamical RAM for                 psi:       1.02 MB

     Dynamical RAM for                hpsi:       1.02 MB

     Dynamical RAM for                spsi:       1.02 MB

     Dynamical RAM for      wfcinit/wfcrot:       1.53 MB

     Dynamical RAM for           addusdens:      30.49 MB

     Dynamical RAM for          addusforce:      31.47 MB

     Estimated static dynamical RAM per process >      21.25 MB

     Estimated max dynamical RAM per process >      57.82 MB

     Estimated total dynamical RAM >     442.16 MB

     Check: negative core charge=   -0.000002

     Initial potential from superposition of free atoms

     starting charge      71.9851, renormalised to      72.0000
     Starting wfcs are   52 randomized atomic wfcs

     total cpu time spent up to now is        4.4 secs

     Self-consistent Calculation

     iteration #  1     ecut=    50.00 Ry     beta= 0.30
     Davidson diagonalization with overlap

---- Real-time Memory Report at c_bands before calling an iterative solver
            74 MiB given to the printing process from OS
             0 MiB allocation reported by mallinfo(arena+hblkhd)
         56017 MiB available memory on the node where the printing process lives
------------------
     ethr =  1.00E-02,  avg # of iterations =  2.0

     total cpu time spent up to now is        8.7 secs

     total energy              =    -722.95020406 Ry
     estimated scf accuracy    <       1.36513722 Ry

     iteration #  2     ecut=    50.00 Ry     beta= 0.30
     Davidson diagonalization with overlap

---- Real-time Memory Report at c_bands before calling an iterative solver
            90 MiB given to the printing process from OS
             0 MiB allocation reported by mallinfo(arena+hblkhd)
         55947 MiB available memory on the node where the printing process lives
------------------
     ethr =  1.90E-03,  avg # of iterations =  2.0

     total cpu time spent up to now is       14.0 secs

     total energy              =    -723.12064155 Ry
     estimated scf accuracy    <       0.19723942 Ry

     iteration #  3     ecut=    50.00 Ry     beta= 0.30
     Davidson diagonalization with overlap

---- Real-time Memory Report at c_bands before calling an iterative solver
            91 MiB given to the printing process from OS
             0 MiB allocation reported by mallinfo(arena+hblkhd)
         55947 MiB available memory on the node where the printing process lives
------------------
     ethr =  2.74E-04,  avg # of iterations =  6.1

     total cpu time spent up to now is       22.8 secs

     total energy              =    -723.19340827 Ry
     estimated scf accuracy    <       0.13105562 Ry

     iteration #  4     ecut=    50.00 Ry     beta= 0.30
     Davidson diagonalization with overlap

---- Real-time Memory Report at c_bands before calling an iterative solver
            91 MiB given to the printing process from OS
             0 MiB allocation reported by mallinfo(arena+hblkhd)
         55945 MiB available memory on the node where the printing process lives
------------------
     ethr =  1.82E-04,  avg # of iterations =  8.2

     total cpu time spent up to now is       33.7 secs

     total energy              =    -723.29992265 Ry
     estimated scf accuracy    <       0.50885851 Ry

     iteration #  5     ecut=    50.00 Ry     beta= 0.30
     Davidson diagonalization with overlap

---- Real-time Memory Report at c_bands before calling an iterative solver
            91 MiB given to the printing process from OS
             0 MiB allocation reported by mallinfo(arena+hblkhd)
         55958 MiB available memory on the node where the printing process lives
------------------
     ethr =  1.82E-04,  avg # of iterations =  1.5

     total cpu time spent up to now is       37.9 secs

     total energy              =    -723.05742023 Ry
     estimated scf accuracy    <       0.31627955 Ry

     iteration #  6     ecut=    50.00 Ry     beta= 0.30
     Davidson diagonalization with overlap

---- Real-time Memory Report at c_bands before calling an iterative solver
            92 MiB given to the printing process from OS
             0 MiB allocation reported by mallinfo(arena+hblkhd)
         55951 MiB available memory on the node where the printing process lives
------------------
     ethr =  1.82E-04,  avg # of iterations =  9.2

     total cpu time spent up to now is       49.2 secs

     total energy              =    -723.19219746 Ry
     estimated scf accuracy    <       0.73960209 Ry

     iteration #  7     ecut=    50.00 Ry     beta= 0.30
     Davidson diagonalization with overlap

---- Real-time Memory Report at c_bands before calling an iterative solver
            92 MiB given to the printing process from OS
             0 MiB allocation reported by mallinfo(arena+hblkhd)
         55957 MiB available memory on the node where the printing process lives
------------------
     ethr =  1.82E-04,  avg # of iterations =  4.9

     total cpu time spent up to now is       56.1 secs

     total energy              =    -723.26539225 Ry
     estimated scf accuracy    <       0.07598253 Ry

     iteration #  8     ecut=    50.00 Ry     beta= 0.30
     Davidson diagonalization with overlap

---- Real-time Memory Report at c_bands before calling an iterative solver
            92 MiB given to the printing process from OS
             0 MiB allocation reported by mallinfo(arena+hblkhd)
         55957 MiB available memory on the node where the printing process lives
------------------
     ethr =  1.06E-04,  avg # of iterations =  1.6

     total cpu time spent up to now is       60.3 secs

     total energy              =    -723.26969755 Ry
     estimated scf accuracy    <       0.07722214 Ry

     iteration #  9     ecut=    50.00 Ry     beta= 0.30
     Davidson diagonalization with overlap

---- Real-time Memory Report at c_bands before calling an iterative solver
            92 MiB given to the printing process from OS
             0 MiB allocation reported by mallinfo(arena+hblkhd)
         55950 MiB available memory on the node where the printing process lives
------------------
     ethr =  1.06E-04,  avg # of iterations =  1.4

     total cpu time spent up to now is       64.4 secs

     total energy              =    -723.27005168 Ry
     estimated scf accuracy    <       0.07971524 Ry

     iteration # 10     ecut=    50.00 Ry     beta= 0.30
     Davidson diagonalization with overlap

---- Real-time Memory Report at c_bands before calling an iterative solver
            92 MiB given to the printing process from OS
             0 MiB allocation reported by mallinfo(arena+hblkhd)
         55938 MiB available memory on the node where the printing process lives
------------------
     ethr =  1.06E-04,  avg # of iterations =  1.0

     total cpu time spent up to now is       68.3 secs

     total energy              =    -723.25745645 Ry
     estimated scf accuracy    <       0.07642771 Ry

     iteration # 11     ecut=    50.00 Ry     beta= 0.30
     Davidson diagonalization with overlap

---- Real-time Memory Report at c_bands before calling an iterative solver
            92 MiB given to the printing process from OS
             0 MiB allocation reported by mallinfo(arena+hblkhd)
         55941 MiB available memory on the node where the printing process lives
------------------
     ethr =  1.06E-04,  avg # of iterations =  1.3

     total cpu time spent up to now is       72.4 secs

     total energy              =    -723.25380387 Ry
     estimated scf accuracy    <       0.04791221 Ry

     iteration # 12     ecut=    50.00 Ry     beta= 0.30
     Davidson diagonalization with overlap

---- Real-time Memory Report at c_bands before calling an iterative solver
            92 MiB given to the printing process from OS
             0 MiB allocation reported by mallinfo(arena+hblkhd)
         55943 MiB available memory on the node where the printing process lives
------------------
     ethr =  6.65E-05,  avg # of iterations =  1.4

     total cpu time spent up to now is       76.5 secs

     total energy              =    -723.25615103 Ry
     estimated scf accuracy    <       0.02901336 Ry

     iteration # 13     ecut=    50.00 Ry     beta= 0.30
     Davidson diagonalization with overlap

---- Real-time Memory Report at c_bands before calling an iterative solver
            92 MiB given to the printing process from OS
             0 MiB allocation reported by mallinfo(arena+hblkhd)
         55944 MiB available memory on the node where the printing process lives
------------------
     ethr =  4.03E-05,  avg # of iterations =  1.4

     total cpu time spent up to now is       80.6 secs

     total energy              =    -723.26812141 Ry
     estimated scf accuracy    <       0.02739411 Ry

     iteration # 14     ecut=    50.00 Ry     beta= 0.30
     Davidson diagonalization with overlap

---- Real-time Memory Report at c_bands before calling an iterative solver
            92 MiB given to the printing process from OS
             0 MiB allocation reported by mallinfo(arena+hblkhd)
         55944 MiB available memory on the node where the printing process lives
------------------
     ethr =  3.80E-05,  avg # of iterations =  1.1

     total cpu time spent up to now is       84.5 secs

     total energy              =    -723.27288307 Ry
     estimated scf accuracy    <       0.04928479 Ry

     iteration # 15     ecut=    50.00 Ry     beta= 0.30
     Davidson diagonalization with overlap

---- Real-time Memory Report at c_bands before calling an iterative solver
            92 MiB given to the printing process from OS
             0 MiB allocation reported by mallinfo(arena+hblkhd)
         55944 MiB available memory on the node where the printing process lives
------------------
     ethr =  3.80E-05,  avg # of iterations =  2.0

     total cpu time spent up to now is       88.9 secs

     total energy              =    -723.26191586 Ry
     estimated scf accuracy    <       0.07023312 Ry

     iteration # 16     ecut=    50.00 Ry     beta= 0.30
     Davidson diagonalization with overlap

---- Real-time Memory Report at c_bands before calling an iterative solver
            92 MiB given to the printing process from OS
             0 MiB allocation reported by mallinfo(arena+hblkhd)
         55944 MiB available memory on the node where the printing process lives
------------------
     ethr =  3.80E-05,  avg # of iterations =  1.0

     total cpu time spent up to now is       93.0 secs

     total energy              =    -723.24119049 Ry
     estimated scf accuracy    <       0.04816421 Ry

     iteration # 17     ecut=    50.00 Ry     beta= 0.30
     Davidson diagonalization with overlap

---- Real-time Memory Report at c_bands before calling an iterative solver
            93 MiB given to the printing process from OS
             0 MiB allocation reported by mallinfo(arena+hblkhd)
         55945 MiB available memory on the node where the printing process lives
------------------
     ethr =  3.80E-05,  avg # of iterations =  4.9

     total cpu time spent up to now is       99.9 secs

     total energy              =    -723.25308332 Ry
     estimated scf accuracy    <       0.00011751 Ry

     iteration # 18     ecut=    50.00 Ry     beta= 0.30
     Davidson diagonalization with overlap

---- Real-time Memory Report at c_bands before calling an iterative solver
            93 MiB given to the printing process from OS
             0 MiB allocation reported by mallinfo(arena+hblkhd)
         55946 MiB available memory on the node where the printing process lives
------------------
     ethr =  1.63E-07,  avg # of iterations =  9.4

     total cpu time spent up to now is      110.4 secs

     total energy              =    -723.25368065 Ry
     estimated scf accuracy    <       0.00014181 Ry

     iteration # 19     ecut=    50.00 Ry     beta= 0.30
     Davidson diagonalization with overlap

---- Real-time Memory Report at c_bands before calling an iterative solver
            93 MiB given to the printing process from OS
             0 MiB allocation reported by mallinfo(arena+hblkhd)
         55947 MiB available memory on the node where the printing process lives
------------------
     ethr =  1.63E-07,  avg # of iterations = 10.5

     total cpu time spent up to now is      123.7 secs

     total energy              =    -723.25381992 Ry
     estimated scf accuracy    <       0.00219607 Ry

     iteration # 20     ecut=    50.00 Ry     beta= 0.30
     Davidson diagonalization with overlap

---- Real-time Memory Report at c_bands before calling an iterative solver
            93 MiB given to the printing process from OS
             0 MiB allocation reported by mallinfo(arena+hblkhd)
         55948 MiB available memory on the node where the printing process lives
------------------
     ethr =  1.63E-07,  avg # of iterations =  5.4

     total cpu time spent up to now is      131.8 secs

     total energy              =    -723.25401274 Ry
     estimated scf accuracy    <       0.00081634 Ry

     iteration # 21     ecut=    50.00 Ry     beta= 0.30
     Davidson diagonalization with overlap

---- Real-time Memory Report at c_bands before calling an iterative solver
            93 MiB given to the printing process from OS
             0 MiB allocation reported by mallinfo(arena+hblkhd)
         55949 MiB available memory on the node where the printing process lives
------------------
     ethr =  1.63E-07,  avg # of iterations =  1.1

     total cpu time spent up to now is      135.7 secs

     total energy              =    -723.25404687 Ry
     estimated scf accuracy    <       0.00104431 Ry

     iteration # 22     ecut=    50.00 Ry     beta= 0.30
     Davidson diagonalization with overlap

---- Real-time Memory Report at c_bands before calling an iterative solver
            93 MiB given to the printing process from OS
             0 MiB allocation reported by mallinfo(arena+hblkhd)
         55949 MiB available memory on the node where the printing process lives
------------------
     ethr =  1.63E-07,  avg # of iterations =  1.9

     total cpu time spent up to now is      140.0 secs

     total energy              =    -723.25389336 Ry
     estimated scf accuracy    <       0.00119503 Ry

     iteration # 23     ecut=    50.00 Ry     beta= 0.30
     Davidson diagonalization with overlap

---- Real-time Memory Report at c_bands before calling an iterative solver
            93 MiB given to the printing process from OS
             0 MiB allocation reported by mallinfo(arena+hblkhd)
         55949 MiB available memory on the node where the printing process lives
------------------
     ethr =  1.63E-07,  avg # of iterations =  1.6

     total cpu time spent up to now is      144.2 secs

     total energy              =    -723.25345789 Ry
     estimated scf accuracy    <       0.00088785 Ry

     iteration # 24     ecut=    50.00 Ry     beta= 0.30
     Davidson diagonalization with overlap

---- Real-time Memory Report at c_bands before calling an iterative solver
            93 MiB given to the printing process from OS
             0 MiB allocation reported by mallinfo(arena+hblkhd)
         55949 MiB available memory on the node where the printing process lives
------------------
     ethr =  1.63E-07,  avg # of iterations =  9.0

     total cpu time spent up to now is      155.6 secs

     total energy              =    -723.25373382 Ry
     estimated scf accuracy    <       0.00005629 Ry

     iteration # 25     ecut=    50.00 Ry     beta= 0.30
     Davidson diagonalization with overlap

---- Real-time Memory Report at c_bands before calling an iterative solver
            93 MiB given to the printing process from OS
             0 MiB allocation reported by mallinfo(arena+hblkhd)
         55949 MiB available memory on the node where the printing process lives
------------------
     ethr =  7.82E-08,  avg # of iterations =  1.9

     total cpu time spent up to now is      160.0 secs

     total energy              =    -723.25371717 Ry
     estimated scf accuracy    <       0.00005535 Ry

     iteration # 26     ecut=    50.00 Ry     beta= 0.30
     Davidson diagonalization with overlap

---- Real-time Memory Report at c_bands before calling an iterative solver
            93 MiB given to the printing process from OS
             0 MiB allocation reported by mallinfo(arena+hblkhd)
         55950 MiB available memory on the node where the printing process lives
------------------
     ethr =  7.69E-08,  avg # of iterations =  1.7

     total cpu time spent up to now is      164.2 secs

     total energy              =    -723.25370950 Ry
     estimated scf accuracy    <       0.00002009 Ry

     iteration # 27     ecut=    50.00 Ry     beta= 0.30
     Davidson diagonalization with overlap

---- Real-time Memory Report at c_bands before calling an iterative solver
            93 MiB given to the printing process from OS
             0 MiB allocation reported by mallinfo(arena+hblkhd)
         55947 MiB available memory on the node where the printing process lives
------------------
     ethr =  2.79E-08,  avg # of iterations =  5.6

     total cpu time spent up to now is      171.2 secs

     total energy              =    -723.25372298 Ry
     estimated scf accuracy    <       0.00000491 Ry

     iteration # 28     ecut=    50.00 Ry     beta= 0.30
     Davidson diagonalization with overlap

---- Real-time Memory Report at c_bands before calling an iterative solver
            93 MiB given to the printing process from OS
             0 MiB allocation reported by mallinfo(arena+hblkhd)
         56107 MiB available memory on the node where the printing process lives
------------------
     ethr =  6.82E-09,  avg # of iterations =  3.2

     total cpu time spent up to now is      176.6 secs

     total energy              =    -723.25372269 Ry
     estimated scf accuracy    <       0.00000830 Ry

     iteration # 29     ecut=    50.00 Ry     beta= 0.30
     Davidson diagonalization with overlap

---- Real-time Memory Report at c_bands before calling an iterative solver
            93 MiB given to the printing process from OS
             0 MiB allocation reported by mallinfo(arena+hblkhd)
         56110 MiB available memory on the node where the printing process lives
------------------
     ethr =  6.82E-09,  avg # of iterations =  1.0

     total cpu time spent up to now is      180.6 secs

     total energy              =    -723.25371846 Ry
     estimated scf accuracy    <       0.00000673 Ry

     iteration # 30     ecut=    50.00 Ry     beta= 0.30
     Davidson diagonalization with overlap

---- Real-time Memory Report at c_bands before calling an iterative solver
            93 MiB given to the printing process from OS
             0 MiB allocation reported by mallinfo(arena+hblkhd)
         56118 MiB available memory on the node where the printing process lives
------------------
     ethr =  6.82E-09,  avg # of iterations =  6.2

     total cpu time spent up to now is      189.2 secs

     total energy              =    -723.25372077 Ry
     estimated scf accuracy    <       0.00000199 Ry

     iteration # 31     ecut=    50.00 Ry     beta= 0.30
     Davidson diagonalization with overlap

---- Real-time Memory Report at c_bands before calling an iterative solver
            93 MiB given to the printing process from OS
             0 MiB allocation reported by mallinfo(arena+hblkhd)
         55924 MiB available memory on the node where the printing process lives
------------------
     ethr =  2.76E-09,  avg # of iterations =  2.1

     total cpu time spent up to now is      193.9 secs

     total energy              =    -723.25372076 Ry
     estimated scf accuracy    <       0.00000040 Ry

     iteration # 32     ecut=    50.00 Ry     beta= 0.30
     Davidson diagonalization with overlap

---- Real-time Memory Report at c_bands before calling an iterative solver
            93 MiB given to the printing process from OS
             0 MiB allocation reported by mallinfo(arena+hblkhd)
         55929 MiB available memory on the node where the printing process lives
------------------
     ethr =  5.55E-10,  avg # of iterations =  6.4

     total cpu time spent up to now is      202.2 secs

     total energy              =    -723.25372124 Ry
     estimated scf accuracy    <       0.00000019 Ry

     iteration # 33     ecut=    50.00 Ry     beta= 0.30
     Davidson diagonalization with overlap

---- Real-time Memory Report at c_bands before calling an iterative solver
            93 MiB given to the printing process from OS
             0 MiB allocation reported by mallinfo(arena+hblkhd)
         55936 MiB available memory on the node where the printing process lives
------------------
     ethr =  2.58E-10,  avg # of iterations =  2.4

     total cpu time spent up to now is      207.0 secs

     total energy              =    -723.25372103 Ry
     estimated scf accuracy    <       0.00000038 Ry

     iteration # 34     ecut=    50.00 Ry     beta= 0.30
     Davidson diagonalization with overlap

---- Real-time Memory Report at c_bands before calling an iterative solver
            93 MiB given to the printing process from OS
             0 MiB allocation reported by mallinfo(arena+hblkhd)
         55937 MiB available memory on the node where the printing process lives
------------------
     ethr =  2.58E-10,  avg # of iterations =  5.3

     total cpu time spent up to now is      214.1 secs

     End of self-consistent calculation

          k = 0.0000 0.0000 0.0000 (  3637 PWs)   bands (ev):

   -10.5488 -10.1230 -10.1229  -9.6771   1.8053   1.8054   1.9313   1.9313
     1.9726   1.9726   1.9726   1.9726   2.0900   2.0900   2.1286   2.2027
     3.2230   3.2230   3.3950   3.3950   3.3950   3.3950   3.4919   3.4919
     3.8110   5.6678   5.6678   6.9309   6.9309   7.3662   7.3662   7.3663
     7.3663   7.6620   7.7816   7.7816

     occupation numbers 
     1.0000   1.0000   1.0000   1.0000   1.0000   1.0000   1.0000   1.0000
     1.0000   1.0000   1.0000   1.0000   1.0000   1.0000   1.0000   1.0000
     1.0000   1.0000   1.0000   1.0000   1.0000   1.0000   1.0000   1.0000
     1.0000   1.0000   1.0000   1.0000   1.0000   1.0000   1.0000   1.0000
     1.0000   1.0000   1.0000   1.0000

          k = 0.0000 0.0000 0.0549 (  3642 PWs)   bands (ev):

   -10.5347 -10.2352 -10.0094  -9.6925   1.7837   1.8647   1.9317   1.9317
     1.9548   1.9548   1.9953   1.9953   2.0837   2.0848   2.0848   2.1821
     3.2303   3.2303   3.3571   3.3571   3.4274   3.4274   3.4902   3.4902
     3.9064   5.2768   6.0477   6.9460   6.9460   7.2551   7.2551   7.4761
     7.4761   7.4871   7.7679   7.7679

     occupation numbers 
     1.0000   1.0000   1.0000   1.0000   1.0000   1.0000   1.0000   1.0000
     1.0000   1.0000   1.0000   1.0000   1.0000   1.0000   1.0000   1.0000
     1.0000   1.0000   1.0000   1.0000   1.0000   1.0000   1.0000   1.0000
     1.0000   1.0000   1.0000   1.0000   1.0000   1.0000   1.0000   1.0000
     1.0000   1.0000   1.0000   1.0000

          k = 0.0000 0.0000 0.1098 (  3666 PWs)   bands (ev):

   -10.4930 -10.3385  -9.9024  -9.7379   1.8084   1.9324   1.9324   1.9426
     1.9426   1.9493   1.9822   2.0211   2.0211   2.0694   2.0694   2.1251
     3.2502   3.2502   3.3179   3.3179   3.4534   3.4534   3.4834   3.4834
     4.1572   4.8814   6.4183   6.9900   6.9900   7.1492   7.1504   7.1504
     7.5770   7.5770   7.7274   7.7274

     occupation numbers 
     1.0000   1.0000   1.0000   1.0000   1.0000   1.0000   1.0000   1.0000
     1.0000   1.0000   1.0000   1.0000   1.0000   1.0000   1.0000   1.0000
     1.0000   1.0000   1.0000   1.0000   1.0000   1.0000   1.0000   1.0000
     1.0000   1.0000   1.0000   1.0000   1.0000   1.0000   1.0000   1.0000
     1.0000   1.0000   1.0000   1.0000

          k = 0.0000 0.0000-0.1647 (  3678 PWs)   bands (ev):

   -10.4263 -10.4263  -9.8096  -9.8096   1.8790   1.8791   1.9355   1.9355
     1.9356   1.9356   2.0420   2.0420   2.0470   2.0470   2.0470   2.0470
     3.2806   3.2806   3.2806   3.2806   3.4717   3.4717   3.4718   3.4718
     4.4983   4.4983   6.7849   6.7849   7.0598   7.0598   7.0599   7.0599
     7.6625   7.6625   7.6626   7.6626

     occupation numbers 
     1.0000   1.0000   1.0000   1.0000   1.0000   1.0000   1.0000   1.0000
     1.0000   1.0000   1.0000   1.0000   1.0000   1.0000   1.0000   1.0000
     1.0000   1.0000   1.0000   1.0000   1.0000   1.0000   1.0000   1.0000
     1.0000   1.0000   1.0000   1.0000   1.0000   1.0000   1.0000   1.0000
     1.0000   1.0000   1.0000   1.0000

          k = 0.0000 0.1925 0.0000 (  3690 PWs)   bands (ev):

   -10.3984 -10.0158 -10.0157  -9.6259   1.6289   1.6289   1.7774   2.0325
     2.0543   2.0887   2.0887   2.1208   2.1208   2.2209   2.2689   2.3327
     3.1637   3.2164   3.3896   3.3896   3.4118   3.4119   3.5083   3.6475
     3.7888   5.5469   5.5469   6.0311   6.5414   6.6696   6.8623   6.8623
     7.0654   7.0655   7.4779   7.5606

     occupation numbers 
     1.0000   1.0000   1.0000   1.0000   1.0000   1.0000   1.0000   1.0000
     1.0000   1.0000   1.0000   1.0000   1.0000   1.0000   1.0000   1.0000
     1.0000   1.0000   1.0000   1.0000   1.0000   1.0000   1.0000   1.0000
     1.0000   1.0000   1.0000   1.0000   1.0000   1.0000   1.0000   1.0000
     1.0000   1.0000   1.0000   1.0000

          k = 0.0000 0.1925 0.0549 (  3687 PWs)   bands (ev):

   -10.3856 -10.1157  -9.9153  -9.6392   1.6342   1.6583   1.7706   2.0224
     2.0332   2.0672   2.1149   2.1193   2.1374   2.2149   2.2479   2.3075
     3.1757   3.2232   3.3500   3.3600   3.4260   3.4581   3.5055   3.6024
     3.9323   5.2577   5.7950   6.0501   6.5597   6.6143   6.6410   6.9325
     7.0856   7.1964   7.4858   7.5443

     occupation numbers 
     1.0000   1.0000   1.0000   1.0000   1.0000   1.0000   1.0000   1.0000
     1.0000   1.0000   1.0000   1.0000   1.0000   1.0000   1.0000   1.0000
     1.0000   1.0000   1.0000   1.0000   1.0000   1.0000   1.0000   1.0000
     1.0000   1.0000   1.0000   1.0000   1.0000   1.0000   1.0000   1.0000
     1.0000   1.0000   1.0000   1.0000

          k = 0.0000 0.1925 0.1098 (  3674 PWs)   bands (ev):

   -10.3478 -10.2083  -9.8213  -9.6783   1.6701   1.7197   1.7498   1.9308
     2.0359   2.0518   2.1343   2.1443   2.1672   2.1980   2.2037   2.2587
     3.2079   3.2430   3.3060   3.3100   3.4567   3.4962   3.4976   3.5617
     4.2212   4.9267   6.0053   6.1019   6.4567   6.4840   6.6133   6.8070
     7.2781   7.3168   7.4786   7.4960

     occupation numbers 
     1.0000   1.0000   1.0000   1.0000   1.0000   1.0000   1.0000   1.0000
     1.0000   1.0000   1.0000   1.0000   1.0000   1.0000   1.0000   1.0000
     1.0000   1.0000   1.0000   1.0000   1.0000   1.0000   1.0000   1.0000
     1.0000   1.0000   1.0000   1.0000   1.0000   1.0000   1.0000   1.0000
     1.0000   1.0000   1.0000   1.0000

          k = 0.0000 0.1925-0.1647 (  3672 PWs)   bands (ev):

   -10.2874 -10.2874  -9.7405  -9.7404   1.7147   1.7147   1.8152   1.8152
     2.0416   2.0416   2.1637   2.1637   2.1732   2.1732   2.2089   2.2089
     3.2535   3.2535   3.2730   3.2730   3.4801   3.4801   3.5307   3.5307
     4.5697   4.5697   6.1335   6.1335   6.3776   6.3776   6.6978   6.6979
     7.4134   7.4134   7.4187   7.4187

     occupation numbers 
     1.0000   1.0000   1.0000   1.0000   1.0000   1.0000   1.0000   1.0000
     1.0000   1.0000   1.0000   1.0000   1.0000   1.0000   1.0000   1.0000
     1.0000   1.0000   1.0000   1.0000   1.0000   1.0000   1.0000   1.0000
     1.0000   1.0000   1.0000   1.0000   1.0000   1.0000   1.0000   1.0000
     1.0000   1.0000   1.0000   1.0000

          k = 0.0000 0.3849 0.0000 (  3700 PWs)   bands (ev):

   -10.0553  -9.7935  -9.7935  -9.5515   1.4689   1.4689   1.6238   1.9755
     2.2138   2.3357   2.3357   2.3425   2.3426   2.4383   2.5451   2.7882
     3.0952   3.2850   3.4048   3.4049   3.4685   3.4685   3.5332   3.6971
     3.9783   4.6698   4.7088   4.7088   5.4300   5.7419   6.4454   6.4454
     6.5962   6.5962   6.9693   7.0766

     occupation numbers 
     1.0000   1.0000   1.0000   1.0000   1.0000   1.0000   1.0000   1.0000
     1.0000   1.0000   1.0000   1.0000   1.0000   1.0000   1.0000   1.0000
     1.0000   1.0000   1.0000   1.0000   1.0000   1.0000   1.0000   1.0000
     1.0000   1.0000   1.0000   1.0000   1.0000   1.0000   1.0000   1.0000
     1.0000   1.0000   1.0000   1.0000

          k = 0.0000 0.3849 0.0549 (  3712 PWs)   bands (ev):

   -10.0461  -9.8597  -9.7286  -9.5593   1.4629   1.5171   1.6124   1.9435
     2.2172   2.3032   2.3159   2.3746   2.3867   2.4182   2.5365   2.7279
     3.1248   3.2891   3.3740   3.4025   3.4362   3.5277   3.5282   3.6842
     4.0612   4.6034   4.7163   4.8084   5.4168   5.7678   6.2528   6.2726
     6.6137   6.8618   6.9955   7.0559

     occupation numbers 
     1.0000   1.0000   1.0000   1.0000   1.0000   1.0000   1.0000   1.0000
     1.0000   1.0000   1.0000   1.0000   1.0000   1.0000   1.0000   1.0000
     1.0000   1.0000   1.0000   1.0000   1.0000   1.0000   1.0000   1.0000
     1.0000   1.0000   1.0000   1.0000   1.0000   1.0000   1.0000   1.0000
     1.0000   1.0000   1.0000   1.0000

          k = 0.0000 0.3849 0.1098 (  3709 PWs)   bands (ev):

   -10.0194  -9.9225  -9.6695  -9.5824   1.4903   1.5807   1.6075   1.8530
     2.2276   2.2705   2.3158   2.3750   2.4326   2.4329   2.5124   2.6150
     3.1865   3.3013   3.3315   3.3453   3.4662   3.5143   3.5794   3.6578
     4.2237   4.4926   4.8396   4.8926   5.4176   5.8429   5.8794   6.1066
     6.7671   6.9947   7.0225   7.0493

     occupation numbers 
     1.0000   1.0000   1.0000   1.0000   1.0000   1.0000   1.0000   1.0000
     1.0000   1.0000   1.0000   1.0000   1.0000   1.0000   1.0000   1.0000
     1.0000   1.0000   1.0000   1.0000   1.0000   1.0000   1.0000   1.0000
     1.0000   1.0000   1.0000   1.0000   1.0000   1.0000   1.0000   1.0000
     1.0000   1.0000   1.0000   1.0000

          k = 0.0000 0.3849-0.1647 (  3706 PWs)   bands (ev):

    -9.9771  -9.9771  -9.6198  -9.6198   1.5355   1.5355   1.7286   1.7286
     2.2452   2.2452   2.3363   2.3363   2.4761   2.4761   2.5127   2.5127
     3.2583   3.2583   3.3204   3.3204   3.4929   3.4929   3.6227   3.6227
     4.3707   4.3707   4.9251   4.9251   5.5599   5.5599   5.9593   5.9594
     6.8966   6.8966   7.0758   7.0758

     occupation numbers 
     1.0000   1.0000   1.0000   1.0000   1.0000   1.0000   1.0000   1.0000
     1.0000   1.0000   1.0000   1.0000   1.0000   1.0000   1.0000   1.0000
     1.0000   1.0000   1.0000   1.0000   1.0000   1.0000   1.0000   1.0000
     1.0000   1.0000   1.0000   1.0000   1.0000   1.0000   1.0000   1.0000
     1.0000   1.0000   1.0000   1.0000

          k = 0.0000-0.5774 0.0000 (  3730 PWs)   bands (ev):

    -9.8308  -9.6783  -9.6782  -9.5594   1.4396   1.4396   1.7245   1.8468
     2.2815   2.4785   2.4785   2.5012   2.5012   2.5470   2.7599   2.8740
     3.3124   3.3892   3.4383   3.4383   3.5443   3.5467   3.5467   3.5828
     4.0245   4.0335   4.0335   4.1550   4.9607   5.2887   6.1122   6.1123
     6.5647   6.6285   6.6285   6.8104

     occupation numbers 
     1.0000   1.0000   1.0000   1.0000   1.0000   1.0000   1.0000   1.0000
     1.0000   1.0000   1.0000   1.0000   1.0000   1.0000   1.0000   1.0000
     1.0000   1.0000   1.0000   1.0000   1.0000   1.0000   1.0000   1.0000
     1.0000   1.0000   1.0000   1.0000   1.0000   1.0000   1.0000   1.0000
     1.0000   1.0000   1.0000   1.0000

          k = 0.0000-0.5774 0.0549 (  3714 PWs)   bands (ev):

    -9.8251  -9.7148  -9.6440  -9.5628   1.4601   1.4634   1.7070   1.8174
     2.2874   2.4207   2.4707   2.5285   2.5417   2.5496   2.7486   2.8474
     3.3334   3.3908   3.4234   3.4558   3.5174   3.5378   3.5676   3.5847
     4.0264   4.0328   4.0357   4.1316   5.0618   5.3211   5.9170   6.3001
     6.3592   6.6031   6.7877   6.7959

     occupation numbers 
     1.0000   1.0000   1.0000   1.0000   1.0000   1.0000   1.0000   1.0000
     1.0000   1.0000   1.0000   1.0000   1.0000   1.0000   1.0000   1.0000
     1.0000   1.0000   1.0000   1.0000   1.0000   1.0000   1.0000   1.0000
     1.0000   1.0000   1.0000   1.0000   1.0000   1.0000   1.0000   1.0000
     1.0000   1.0000   1.0000   1.0000

          k = 0.0000-0.5774 0.1098 (  3700 PWs)   bands (ev):

    -9.8087  -9.7507  -9.6142  -9.5731   1.5154   1.5312   1.6577   1.7370
     2.3044   2.3716   2.4583   2.4919   2.6064   2.6153   2.7163   2.7792
     3.3805   3.3951   3.4114   3.4764   3.4793   3.5211   3.5809   3.5874
     4.0308   4.0366   4.0385   4.0886   5.3190   5.4135   5.7263   6.0216
     6.4701   6.6982   6.7206   6.8474

     occupation numbers 
     1.0000   1.0000   1.0000   1.0000   1.0000   1.0000   1.0000   1.0000
     1.0000   1.0000   1.0000   1.0000   1.0000   1.0000   1.0000   1.0000
     1.0000   1.0000   1.0000   1.0000   1.0000   1.0000   1.0000   1.0000
     1.0000   1.0000   1.0000   1.0000   1.0000   1.0000   1.0000   1.0000
     1.0000   1.0000   1.0000   1.0000

          k = 0.0000-0.5774-0.1647 (  3700 PWs)   bands (ev):

    -9.7831  -9.7830  -9.5904  -9.5903   1.5879   1.5879   1.6309   1.6309
     2.3326   2.3326   2.4653   2.4653   2.6667   2.6668   2.6950   2.6950
     3.4019   3.4019   3.4328   3.4328   3.4990   3.4990   3.5871   3.5871
     4.0348   4.0349   4.0558   4.0558   5.5536   5.5536   5.6586   5.6586
     6.6127   6.6128   6.7995   6.7995

     occupation numbers 
     1.0000   1.0000   1.0000   1.0000   1.0000   1.0000   1.0000   1.0000
     1.0000   1.0000   1.0000   1.0000   1.0000   1.0000   1.0000   1.0000
     1.0000   1.0000   1.0000   1.0000   1.0000   1.0000   1.0000   1.0000
     1.0000   1.0000   1.0000   1.0000   1.0000   1.0000   1.0000   1.0000
     1.0000   1.0000   1.0000   1.0000

          k = 0.1667 0.2887 0.0000 (  3691 PWs)   bands (ev):

   -10.1499  -9.8506  -9.8506  -9.5639   1.5390   1.5390   1.7129   1.9857
     2.1749   2.1749   2.1842   2.2922   2.3350   2.3350   2.5370   2.6118
     3.1159   3.2361   3.3932   3.3932   3.4609   3.4609   3.5267   3.7154
     3.9559   5.0649   5.0649   5.2084   5.4482   5.9474   6.3600   6.3601
     6.6890   6.6890   7.0476   7.1446

     occupation numbers 
     1.0000   1.0000   1.0000   1.0000   1.0000   1.0000   1.0000   1.0000
     1.0000   1.0000   1.0000   1.0000   1.0000   1.0000   1.0000   1.0000
     1.0000   1.0000   1.0000   1.0000   1.0000   1.0000   1.0000   1.0000
     1.0000   1.0000   1.0000   1.0000   1.0000   1.0000   1.0000   1.0000
     1.0000   1.0000   1.0000   1.0000

          k = 0.1667 0.2887 0.0549 (  3700 PWs)   bands (ev):

   -10.1396  -9.9272  -9.7748  -9.5733   1.5458   1.5734   1.7029   1.9597
     2.1773   2.1776   2.1817   2.2805   2.3222   2.3649   2.5242   2.5575
     3.1340   3.2479   3.3630   3.3800   3.4404   3.5167   3.5222   3.6872
     4.0749   4.9286   5.1883   5.2487   5.4503   5.9342   6.2131   6.2796
     6.5929   6.9487   7.0256   7.1664

     occupation numbers 
     1.0000   1.0000   1.0000   1.0000   1.0000   1.0000   1.0000   1.0000
     1.0000   1.0000   1.0000   1.0000   1.0000   1.0000   1.0000   1.0000
     1.0000   1.0000   1.0000   1.0000   1.0000   1.0000   1.0000   1.0000
     1.0000   1.0000   1.0000   1.0000   1.0000   1.0000   1.0000   1.0000
     1.0000   1.0000   1.0000   1.0000

          k = 0.1667 0.2887 0.1098 (  3716 PWs)   bands (ev):

   -10.1094  -9.9992  -9.7051  -9.6012   1.5818   1.6522   1.6737   1.8802
     2.1779   2.1784   2.1912   2.2511   2.3347   2.4049   2.4565   2.4914
     3.1813   3.2717   3.3144   3.3304   3.4654   3.5096   3.5675   3.6491
     4.3194   4.7691   5.2999   5.3783   5.4405   5.9237   5.9355   6.0708
     6.7287   6.9612   7.1281   7.2055

     occupation numbers 
     1.0000   1.0000   1.0000   1.0000   1.0000   1.0000   1.0000   1.0000
     1.0000   1.0000   1.0000   1.0000   1.0000   1.0000   1.0000   1.0000
     1.0000   1.0000   1.0000   1.0000   1.0000   1.0000   1.0000   1.0000
     1.0000   1.0000   1.0000   1.0000   1.0000   1.0000   1.0000   1.0000
     1.0000   1.0000   1.0000   1.0000

          k = 0.1667 0.2887-0.1647 (  3714 PWs)   bands (ev):

   -10.0615 -10.0614  -9.6460  -9.6460   1.6299   1.6299   1.7646   1.7646
     2.1774   2.1774   2.2174   2.2174   2.3781   2.3781   2.4490   2.4490
     3.2450   3.2450   3.2996   3.2997   3.4901   3.4901   3.6110   3.6110
     4.5678   4.5678   5.3901   5.3902   5.6124   5.6124   5.9664   5.9664
     6.8593   6.8593   7.2078   7.2078

     occupation numbers 
     1.0000   1.0000   1.0000   1.0000   1.0000   1.0000   1.0000   1.0000
     1.0000   1.0000   1.0000   1.0000   1.0000   1.0000   1.0000   1.0000
     1.0000   1.0000   1.0000   1.0000   1.0000   1.0000   1.0000   1.0000
     1.0000   1.0000   1.0000   1.0000   1.0000   1.0000   1.0000   1.0000
     1.0000   1.0000   1.0000   1.0000

          k = 0.1667 0.4811 0.0000 (  3716 PWs)   bands (ev):

    -9.8396  -9.6804  -9.6803  -9.5540   1.5798   1.5798   1.8243   2.0515
     2.2485   2.3313   2.3313   2.4466   2.5198   2.5199   2.8074   2.9145
     3.1664   3.3180   3.3876   3.3876   3.5476   3.5990   3.5990   3.6923
     3.8782   4.2559   4.2559   4.5060   4.7197   5.2170   5.6169   5.6170
     6.4153   6.5949   6.7092   6.7092

     occupation numbers 
     1.0000   1.0000   1.0000   1.0000   1.0000   1.0000   1.0000   1.0000
     1.0000   1.0000   1.0000   1.0000   1.0000   1.0000   1.0000   1.0000
     1.0000   1.0000   1.0000   1.0000   1.0000   1.0000   1.0000   1.0000
     1.0000   1.0000   1.0000   1.0000   1.0000   1.0000   1.0000   1.0000
     1.0000   1.0000   1.0000   1.0000

          k = 0.1667 0.4811 0.0549 (  3716 PWs)   bands (ev):

    -9.8337  -9.7187  -9.6443  -9.5577   1.5878   1.6196   1.8089   2.0247
     2.2445   2.3015   2.3557   2.4356   2.5131   2.5584   2.7817   2.8570
     3.1870   3.3409   3.3714   3.3942   3.5429   3.5644   3.6367   3.7050
     3.8925   4.1805   4.3272   4.5128   4.7473   5.2850   5.4040   5.8199
     6.4008   6.4704   6.6237   6.8500

     occupation numbers 
     1.0000   1.0000   1.0000   1.0000   1.0000   1.0000   1.0000   1.0000
     1.0000   1.0000   1.0000   1.0000   1.0000   1.0000   1.0000   1.0000
     1.0000   1.0000   1.0000   1.0000   1.0000   1.0000   1.0000   1.0000
     1.0000   1.0000   1.0000   1.0000   1.0000   1.0000   1.0000   1.0000
     1.0000   1.0000   1.0000   1.0000

          k = 0.1667 0.4811 0.1098 (  3715 PWs)   bands (ev):

    -9.8166  -9.7563  -9.6127  -9.5688   1.6341   1.7058   1.7647   1.9426
     2.2420   2.2727   2.3736   2.4127   2.5436   2.6183   2.7036   2.7649
     3.2373   3.3409   3.3707   3.3941   3.5337   3.5398   3.6721   3.7146
     3.9427   4.1008   4.3942   4.4999   4.8465   5.1960   5.4820   5.9617
     6.2059   6.3370   6.7121   6.8799

     occupation numbers 
     1.0000   1.0000   1.0000   1.0000   1.0000   1.0000   1.0000   1.0000
     1.0000   1.0000   1.0000   1.0000   1.0000   1.0000   1.0000   1.0000
     1.0000   1.0000   1.0000   1.0000   1.0000   1.0000   1.0000   1.0000
     1.0000   1.0000   1.0000   1.0000   1.0000   1.0000   1.0000   1.0000
     1.0000   1.0000   1.0000   1.0000

          k = 0.1667 0.4811-0.1647 (  3714 PWs)   bands (ev):

    -9.7900  -9.7900  -9.5873  -9.5872   1.7005   1.7005   1.8236   1.8236
     2.2514   2.2514   2.3910   2.3910   2.6098   2.6098   2.6890   2.6890
     3.2939   3.2939   3.3871   3.3872   3.5302   3.5302   3.7007   3.7007
     4.0189   4.0189   4.4547   4.4548   5.0051   5.0051   5.7669   5.7669
     6.2279   6.2280   6.8183   6.8183

     occupation numbers 
     1.0000   1.0000   1.0000   1.0000   1.0000   1.0000   1.0000   1.0000
     1.0000   1.0000   1.0000   1.0000   1.0000   1.0000   1.0000   1.0000
     1.0000   1.0000   1.0000   1.0000   1.0000   1.0000   1.0000   1.0000
     1.0000   1.0000   1.0000   1.0000   1.0000   1.0000   1.0000   1.0000
     1.0000   1.0000   1.0000   1.0000

          k = 0.3333 0.5774 0.0000 (  3705 PWs)   bands (ev):

    -9.6439  -9.6438  -9.6244  -9.6244   1.8067   1.8067   2.0305   2.2404
     2.2404   2.2407   2.2407   2.6563   2.6563   2.7063   3.1530   3.1531
     3.1569   3.2146   3.2146   3.2519   3.2520   3.3240   3.8024   3.8025
     3.8364   4.1187   4.1187   4.2373   4.2373   4.9135   4.9135   5.8757
     5.8859   5.8859   6.7595   6.7596

     occupation numbers 
     1.0000   1.0000   1.0000   1.0000   1.0000   1.0000   1.0000   1.0000
     1.0000   1.0000   1.0000   1.0000   1.0000   1.0000   1.0000   1.0000
     1.0000   1.0000   1.0000   1.0000   1.0000   1.0000   1.0000   1.0000
     1.0000   1.0000   1.0000   1.0000   1.0000   1.0000   1.0000   1.0000
     1.0000   1.0000   1.0000   1.0000

          k = 0.3333 0.5774 0.0549 (  3699 PWs)   bands (ev):

    -9.6426  -9.6425  -9.6258  -9.6257   1.8354   1.8354   2.0362   2.1746
     2.2143   2.2143   2.3198   2.6656   2.6656   2.6762   3.0019   3.0019
     3.1628   3.2320   3.2711   3.3217   3.3653   3.3653   3.7835   3.7836
     3.8829   4.1267   4.1267   4.2279   4.2279   4.6624   5.1605   5.8420
     5.9477   5.9477   6.7030   6.7030

     occupation numbers 
     1.0000   1.0000   1.0000   1.0000   1.0000   1.0000   1.0000   1.0000
     1.0000   1.0000   1.0000   1.0000   1.0000   1.0000   1.0000   1.0000
     1.0000   1.0000   1.0000   1.0000   1.0000   1.0000   1.0000   1.0000
     1.0000   1.0000   1.0000   1.0000   1.0000   1.0000   1.0000   1.0000
     1.0000   1.0000   1.0000   1.0000

          k = 0.3333 0.5774 0.1098 (  3690 PWs)   bands (ev):

    -9.6390  -9.6390  -9.6293  -9.6293   1.9155   1.9155   2.0529   2.1217
     2.1379   2.1379   2.4098   2.6012   2.6957   2.6957   2.8544   2.8544
     3.1766   3.2122   3.2887   3.3146   3.5190   3.5191   3.7288   3.7289
     4.0112   4.1474   4.1474   4.2042   4.2042   4.4192   5.3902   5.7436
     6.1131   6.1131   6.5477   6.5477

     occupation numbers 
     1.0000   1.0000   1.0000   1.0000   1.0000   1.0000   1.0000   1.0000
     1.0000   1.0000   1.0000   1.0000   1.0000   1.0000   1.0000   1.0000
     1.0000   1.0000   1.0000   1.0000   1.0000   1.0000   1.0000   1.0000
     1.0000   1.0000   1.0000   1.0000   1.0000   1.0000   1.0000   1.0000
     1.0000   1.0000   1.0000   1.0000

          k = 0.3333 0.5774-0.1647 (  3708 PWs)   bands (ev):

    -9.6342  -9.6342  -9.6341  -9.6341   2.0272   2.0272   2.0272   2.0272
     2.0811   2.0811   2.5065   2.5065   2.7542   2.7543   2.7543   2.7543
     3.1935   3.1935   3.3033   3.3033   3.6406   3.6406   3.6406   3.6406
     4.1749   4.1749   4.1749   4.1749   4.1967   4.1968   5.5890   5.5890
     6.3328   6.3328   6.3329   6.3329

     occupation numbers 
     1.0000   1.0000   1.0000   1.0000   1.0000   1.0000   1.0000   1.0000
     1.0000   1.0000   1.0000   1.0000   1.0000   1.0000   1.0000   1.0000
     1.0000   1.0000   1.0000   1.0000   1.0000   1.0000   1.0000   1.0000
     1.0000   1.0000   1.0000   1.0000   1.0000   1.0000   1.0000   1.0000
     1.0000   1.0000   1.0000   1.0000

          k = 0.0000-0.1925 0.0549 (  3687 PWs)   bands (ev):

   -10.3856 -10.1157  -9.9153  -9.6392   1.6342   1.6583   1.7706   2.0224
     2.0332   2.0672   2.1149   2.1193   2.1374   2.2149   2.2479   2.3075
     3.1757   3.2232   3.3500   3.3600   3.4260   3.4581   3.5055   3.6024
     3.9323   5.2577   5.7950   6.0501   6.5597   6.6143   6.6410   6.9325
     7.0856   7.1964   7.4858   7.5443

     occupation numbers 
     1.0000   1.0000   1.0000   1.0000   1.0000   1.0000   1.0000   1.0000
     1.0000   1.0000   1.0000   1.0000   1.0000   1.0000   1.0000   1.0000
     1.0000   1.0000   1.0000   1.0000   1.0000   1.0000   1.0000   1.0000
     1.0000   1.0000   1.0000   1.0000   1.0000   1.0000   1.0000   1.0000
     1.0000   1.0000   1.0000   1.0000

          k = 0.0000-0.1925 0.1098 (  3674 PWs)   bands (ev):

   -10.3478 -10.2083  -9.8213  -9.6783   1.6701   1.7197   1.7498   1.9308
     2.0359   2.0518   2.1343   2.1443   2.1672   2.1980   2.2037   2.2587
     3.2079   3.2430   3.3060   3.3100   3.4567   3.4962   3.4976   3.5617
     4.2212   4.9267   6.0053   6.1019   6.4567   6.4840   6.6133   6.8070
     7.2781   7.3168   7.4786   7.4960

     occupation numbers 
     1.0000   1.0000   1.0000   1.0000   1.0000   1.0000   1.0000   1.0000
     1.0000   1.0000   1.0000   1.0000   1.0000   1.0000   1.0000   1.0000
     1.0000   1.0000   1.0000   1.0000   1.0000   1.0000   1.0000   1.0000
     1.0000   1.0000   1.0000   1.0000   1.0000   1.0000   1.0000   1.0000
     1.0000   1.0000   1.0000   1.0000

          k = 0.0000-0.3849 0.0549 (  3712 PWs)   bands (ev):

   -10.0461  -9.8597  -9.7286  -9.5593   1.4629   1.5171   1.6124   1.9436
     2.2172   2.3032   2.3159   2.3746   2.3867   2.4182   2.5365   2.7279
     3.1248   3.2891   3.3740   3.4025   3.4362   3.5277   3.5282   3.6842
     4.0612   4.6034   4.7164   4.8084   5.4168   5.7678   6.2528   6.2726
     6.6137   6.8618   6.9955   7.0559

     occupation numbers 
     1.0000   1.0000   1.0000   1.0000   1.0000   1.0000   1.0000   1.0000
     1.0000   1.0000   1.0000   1.0000   1.0000   1.0000   1.0000   1.0000
     1.0000   1.0000   1.0000   1.0000   1.0000   1.0000   1.0000   1.0000
     1.0000   1.0000   1.0000   1.0000   1.0000   1.0000   1.0000   1.0000
     1.0000   1.0000   1.0000   1.0000

          k = 0.0000-0.3849 0.1098 (  3709 PWs)   bands (ev):

   -10.0194  -9.9225  -9.6695  -9.5824   1.4903   1.5807   1.6075   1.8530
     2.2276   2.2705   2.3158   2.3750   2.4326   2.4329   2.5124   2.6150
     3.1865   3.3013   3.3315   3.3453   3.4662   3.5143   3.5793   3.6578
     4.2237   4.4926   4.8396   4.8926   5.4176   5.8429   5.8794   6.1066
     6.7671   6.9947   7.0225   7.0493

     occupation numbers 
     1.0000   1.0000   1.0000   1.0000   1.0000   1.0000   1.0000   1.0000
     1.0000   1.0000   1.0000   1.0000   1.0000   1.0000   1.0000   1.0000
     1.0000   1.0000   1.0000   1.0000   1.0000   1.0000   1.0000   1.0000
     1.0000   1.0000   1.0000   1.0000   1.0000   1.0000   1.0000   1.0000
     1.0000   1.0000   1.0000   1.0000

          k =-0.1667-0.4811 0.0549 (  3716 PWs)   bands (ev):

    -9.8337  -9.7187  -9.6443  -9.5577   1.5878   1.6196   1.8089   2.0247
     2.2445   2.3015   2.3557   2.4356   2.5131   2.5584   2.7817   2.8570
     3.1870   3.3409   3.3714   3.3942   3.5429   3.5644   3.6367   3.7050
     3.8925   4.1805   4.3272   4.5129   4.7473   5.2850   5.4040   5.8199
     6.4008   6.4704   6.6237   6.8500

     occupation numbers 
     1.0000   1.0000   1.0000   1.0000   1.0000   1.0000   1.0000   1.0000
     1.0000   1.0000   1.0000   1.0000   1.0000   1.0000   1.0000   1.0000
     1.0000   1.0000   1.0000   1.0000   1.0000   1.0000   1.0000   1.0000
     1.0000   1.0000   1.0000   1.0000   1.0000   1.0000   1.0000   1.0000
     1.0000   1.0000   1.0000   1.0000

          k =-0.1667-0.4811 0.1098 (  3715 PWs)   bands (ev):

    -9.8166  -9.7563  -9.6127  -9.5688   1.6341   1.7057   1.7647   1.9427
     2.2420   2.2727   2.3736   2.4127   2.5436   2.6183   2.7036   2.7649
     3.2373   3.3409   3.3707   3.3941   3.5337   3.5398   3.6721   3.7146
     3.9427   4.1008   4.3942   4.4999   4.8465   5.1960   5.4820   5.9618
     6.2059   6.3370   6.7121   6.8799

     occupation numbers 
     1.0000   1.0000   1.0000   1.0000   1.0000   1.0000   1.0000   1.0000
     1.0000   1.0000   1.0000   1.0000   1.0000   1.0000   1.0000   1.0000
     1.0000   1.0000   1.0000   1.0000   1.0000   1.0000   1.0000   1.0000
     1.0000   1.0000   1.0000   1.0000   1.0000   1.0000   1.0000   1.0000
     1.0000   1.0000   1.0000   1.0000

     highest occupied level (ev):     7.7816

!    total energy              =    -723.25372111 Ry
     estimated scf accuracy    <          4.0E-09 Ry

     The total energy is the sum of the following terms:
     one-electron contribution =    -294.92496290 Ry
     hartree contribution      =     231.64667366 Ry
     xc contribution           =    -219.34821487 Ry
     ewald contribution        =    -440.62721699 Ry

     convergence has been achieved in  34 iterations

     Forces acting on atoms (cartesian axes, Ry/au):

     atom    1 type  1   force =     0.00000000    0.00000000    0.00423030
     atom    2 type  2   force =     0.00000000    0.00000000   -0.00423865
     atom    3 type  1   force =     0.00000000    0.00000000    0.00423295
     atom    4 type  2   force =     0.00000000   -0.00000000   -0.00423709
     atom    5 type  1   force =     0.00000000    0.00000000    0.00425323
     atom    6 type  2   force =     0.00000000    0.00000000   -0.00423966
     atom    7 type  1   force =     0.00000000   -0.00000000    0.00423575
     atom    8 type  2   force =     0.00000000   -0.00000000   -0.00423682
     The non-local contrib.  to forces
     atom    1 type  1   force =     0.00000000    0.00000000    0.10027128
     atom    2 type  2   force =     0.00000000    0.00000000    0.07381438
     atom    3 type  1   force =     0.00000000    0.00000000    0.10026414
     atom    4 type  2   force =     0.00000000    0.00000000    0.07381885
     atom    5 type  1   force =     0.00000000   -0.00000000    0.10028303
     atom    6 type  2   force =     0.00000000    0.00000000    0.07380292
     atom    7 type  1   force =     0.00000000   -0.00000000    0.10026982
     atom    8 type  2   force =     0.00000000    0.00000000    0.07381669
     The ionic contribution  to forces
     atom    1 type  1   force =    -0.00000000    0.00000000    0.64744003
     atom    2 type  2   force =     0.00000000   -0.00000000   -0.64744003
     atom    3 type  1   force =     0.00000000   -0.00000000    0.64744003
     atom    4 type  2   force =    -0.00000000    0.00000000   -0.64744003
     atom    5 type  1   force =    -0.00000000    0.00000000    0.64744003
     atom    6 type  2   force =     0.00000000   -0.00000000   -0.64744003
     atom    7 type  1   force =     0.00000000   -0.00000000    0.64744003
     atom    8 type  2   force =    -0.00000000    0.00000000   -0.64744003
     The local contribution  to forces
     atom    1 type  1   force =     0.00000000    0.00000000   -0.73628853
     atom    2 type  2   force =     0.00000001   -0.00000001    0.56994822
     atom    3 type  1   force =     0.00000004   -0.00000002   -0.73627446
     atom    4 type  2   force =     0.00000000   -0.00000000    0.56994646
     atom    5 type  1   force =    -0.00000000   -0.00000000   -0.73630936
     atom    6 type  2   force =     0.00000001   -0.00000001    0.56992362
     atom    7 type  1   force =     0.00000004   -0.00000002   -0.73628913
     atom    8 type  2   force =     0.00000000   -0.00000000    0.56994906
     The core correction contribution to forces
     atom    1 type  1   force =     0.00000000   -0.00000000   -0.00717925
     atom    2 type  2   force =    -0.00000000    0.00000000   -0.00055259
     atom    3 type  1   force =     0.00000001   -0.00000000   -0.00717950
     atom    4 type  2   force =    -0.00000000    0.00000000   -0.00055264
     atom    5 type  1   force =     0.00000000   -0.00000000   -0.00717991
     atom    6 type  2   force =    -0.00000000    0.00000000   -0.00055250
     atom    7 type  1   force =     0.00000001   -0.00000000   -0.00717900
     atom    8 type  2   force =    -0.00000000    0.00000000   -0.00055259
     The Hubbard contrib.    to forces
     atom    1 type  1   force =     0.00000000    0.00000000    0.00000000
     atom    2 type  2   force =     0.00000000    0.00000000    0.00000000
     atom    3 type  1   force =     0.00000000    0.00000000    0.00000000
     atom    4 type  2   force =     0.00000000    0.00000000    0.00000000
     atom    5 type  1   force =     0.00000000    0.00000000    0.00000000
     atom    6 type  2   force =     0.00000000    0.00000000    0.00000000
     atom    7 type  1   force =     0.00000000    0.00000000    0.00000000
     atom    8 type  2   force =     0.00000000    0.00000000    0.00000000
     The SCF correction term to forces
     atom    1 type  1   force =    -0.00000000    0.00000000   -0.00001015
     atom    2 type  2   force =     0.00000000   -0.00000000   -0.00000554
     atom    3 type  1   force =     0.00000000   -0.00000000   -0.00001418
     atom    4 type  2   force =    -0.00000000    0.00000000   -0.00000664
     atom    5 type  1   force =    -0.00000000    0.00000000    0.00002254
     atom    6 type  2   force =     0.00000000   -0.00000000    0.00002942
     atom    7 type  1   force =     0.00000000   -0.00000000   -0.00000288
     atom    8 type  2   force =    -0.00000000    0.00000000   -0.00000686

     Total force =     0.011987     Total SCF correction =     0.000043

     init_run     :      3.74s CPU      3.89s WALL (       1 calls)
     electrons    :    201.81s CPU    209.76s WALL (       1 calls)
     forces       :      1.06s CPU      1.07s WALL (       1 calls)

     Called by init_run:
     wfcinit      :      2.02s CPU      2.10s WALL (       1 calls)
     wfcinit:atom :      0.03s CPU      0.03s WALL (      17 calls)
     wfcinit:wfcr :      1.87s CPU      1.95s WALL (      17 calls)
     potinit      :      0.53s CPU      0.55s WALL (       1 calls)
     hinit0       :      1.05s CPU      1.07s WALL (       1 calls)

     Called by electrons:
     c_bands      :    172.27s CPU    178.83s WALL (      34 calls)
     sum_band     :     24.21s CPU     25.47s WALL (      34 calls)
     v_of_rho     :      1.91s CPU      1.98s WALL (      35 calls)
     v_h          :      0.12s CPU      0.13s WALL (      35 calls)
     v_xc         :      1.84s CPU      1.90s WALL (      36 calls)
     newd         :      3.03s CPU      3.08s WALL (      35 calls)
     mix_rho      :      0.34s CPU      0.37s WALL (      34 calls)

     Called by c_bands:
     init_us_2    :      1.36s CPU      1.39s WALL (    1190 calls)
     init_us_2:cp :      1.35s CPU      1.39s WALL (    1190 calls)
     cegterg      :    153.96s CPU    160.49s WALL (     578 calls)

     Called by sum_band:
     sum_band:wei :      0.00s CPU      0.00s WALL (      34 calls)
     sum_band:loo :     19.74s CPU     20.86s WALL (      34 calls)
     sum_band:buf :      0.10s CPU      0.11s WALL (     578 calls)
     sum_band:ini :      0.65s CPU      0.67s WALL (     578 calls)
     sum_band:cal :      2.33s CPU      2.41s WALL (     578 calls)
     sum_band:bec :      0.06s CPU      0.06s WALL (     578 calls)
     addusdens    :      3.45s CPU      3.55s WALL (      34 calls)
                                        0.00s GPU  (      34 calls)
     addusd:skk   :      0.03s CPU      0.03s WALL (      68 calls)
                                        0.00s GPU  (      68 calls)

     Called by *egterg:
     cdiaghg      :     11.77s CPU     11.79s WALL (    2799 calls)
     cegterg:over :      7.15s CPU      7.32s WALL (    2221 calls)
     cegterg:upda :      4.40s CPU      4.41s WALL (    2221 calls)
     cegterg:last :      9.92s CPU      9.93s WALL (    1572 calls)
     h_psi        :    111.18s CPU    117.48s WALL (    2816 calls)
     s_psi        :      8.02s CPU      8.05s WALL (    2816 calls)
     g_psi        :      0.44s CPU      0.44s WALL (    2221 calls)

     Called by h_psi:
     h_psi:calbec :      7.64s CPU      7.92s WALL (    2816 calls)
     vloc_psi     :     95.07s CPU    101.05s WALL (    2816 calls)
     add_vuspsi   :      8.18s CPU      8.20s WALL (    2816 calls)

     General routines
     calbec       :     10.23s CPU     10.59s WALL (    3462 calls)
     fft          :      1.42s CPU      1.53s WALL (     464 calls)
     ffts         :      0.19s CPU      0.20s WALL (      69 calls)
     fftw         :     96.41s CPU    102.56s WALL (  149030 calls)
     interpolate  :      0.25s CPU      0.26s WALL (      35 calls)

     Parallel routines

     PWSCF        :   3m27.21s CPU   3m35.33s WALL


   This run was terminated on:  13:37:58  13Jul2025            

=------------------------------------------------------------------------------=
   JOB DONE.
=------------------------------------------------------------------------------=
Note: The following floating-point exceptions are signalling: IEEE_INVALID_FLAG
Note: The following floating-point exceptions are signalling: IEEE_INVALID_FLAG
