Authorization required, but no authorization protocol specified

Authorization required, but no authorization protocol specified

Authorization required, but no authorization protocol specified

Authorization required, but no authorization protocol specified

Authorization required, but no authorization protocol specified

Authorization required, but no authorization protocol specified

Authorization required, but no authorization protocol specified

Authorization required, but no authorization protocol specified

Authorization required, but no authorization protocol specified

Authorization required, but no authorization protocol specified


     Program PWSCF v.7.2 starts on 13Jul2025 at 13:58:19 

     This program is part of the open-source Quantum ESPRESSO suite
     for quantum simulation of materials; please cite
         "P. Giannozzi et al., J. Phys.:Condens. Matter 21 395502 (2009);
         "P. Giannozzi et al., J. Phys.:Condens. Matter 29 465901 (2017);
         "P. Giannozzi et al., J. Chem. Phys. 152 154105 (2020);
          URL http://www.quantum-espresso.org", 
     in publications or presentations arising from this work. More details at
     http://www.quantum-espresso.org/quote

     Parallel version (MPI), running on     8 processors

     MPI processes distributed on     1 nodes
     56486 MiB available memory on the printing compute node when the environment starts

     Reading input from /home/jvc/QEspresso7.2/ZnO_database/scripts/cell112.in/ZnO-3.27-1.71-112.in
Warning: card &CELL ignored
Warning: card / ignored
Warning: card &FCP ignored
Warning: card / ignored
Warning: card &RISM ignored
Warning: card / ignored

     Current dimensions of program PWSCF are:
     Max number of different atomic species (ntypx) = 10
     Max number of k-points (npk) =  40000
     Max angular momentum in pseudopotentials (lmaxx) =  4
     file Zn.upf: wavefunction(s)  3D renormalized
     Found identity + (  0.0000  0.0000 -0.5000) symmetry
     This is a supercell, fractional translations are disabled
     Message from routine setup:
     using ibrav=0 with symmetry is DISCOURAGED, use correct ibrav instead

     K-points division:     npool     =       2
     R & G space division:  proc/nbgrp/npool/nimage =       4
     Subspace diagonalization in iterative solution of the eigenvalue problem:
     a serial algorithm will be used


     Parallelization info
     --------------------
     sticks:   dense  smooth     PW     G-vecs:    dense   smooth      PW
     Min         261     129     40                23589     8323    1382
     Max         262     130     41                23591     8330    1389
     Sum        1045     517    163                94359    33311    5543

     Using Slab Decomposition



     bravais-lattice index     =            0
     lattice parameter (alat)  =       6.1789  a.u.
     unit-cell volume          =     699.1820 (a.u.)^3
     number of atoms/cell      =            8
     number of atomic types    =            2
     number of electrons       =        72.00
     number of Kohn-Sham states=           36
     kinetic-energy cutoff     =      50.0000  Ry
     charge density cutoff     =     400.0000  Ry
     scf convergence threshold =      1.0E-08
     mixing beta               =       0.3000
     number of iterations used =            8  plain     mixing
     Exchange-correlation= PBE
                           (   1   4   3   4   0   0   0)

     celldm(1)=   6.178854  celldm(2)=   0.000000  celldm(3)=   0.000000
     celldm(4)=   0.000000  celldm(5)=   0.000000  celldm(6)=   0.000000

     crystal axes: (cart. coord. in units of alat)
               a(1) = (   1.000000   0.000000   0.000000 )  
               a(2) = (  -0.500000   0.866025   0.000000 )  
               a(3) = (   0.000000   0.000000   3.422440 )  

     reciprocal axes: (cart. coord. in units 2 pi/alat)
               b(1) = (  1.000000  0.577350 -0.000000 )  
               b(2) = (  0.000000  1.154701  0.000000 )  
               b(3) = (  0.000000 -0.000000  0.292189 )  


     PseudoPot. # 1 for Zn read from file:
     /home/jvc/QEspresso7.2/ZnO_database/pseudos/Zn.upf
     MD5 check sum: 7f56cabf9682ed8c977c2f7d0c5985c5
     Pseudo is Ultrasoft + core correction, Zval = 12.0
     Generated using &quot;atomic&quot; code by A. Dal Corso  v.6.2.2
     Using radial grid of 1201 points,  6 beta functions with: 
                l(1) =   0
                l(2) =   0
                l(3) =   1
                l(4) =   1
                l(5) =   2
                l(6) =   2
     Q(r) pseudized with 0 coefficients 


     PseudoPot. # 2 for O  read from file:
     /home/jvc/QEspresso7.2/ZnO_database/pseudos/O.upf
     MD5 check sum: 91400c9766925bcf19f520983a725ff0
     Pseudo is Ultrasoft + core correction, Zval =  6.0
     Generated using &quot;atomic&quot; code by A. Dal Corso  v.6.3MaX
     Using radial grid of 1095 points,  4 beta functions with: 
                l(1) =   0
                l(2) =   0
                l(3) =   1
                l(4) =   1
     Q(r) pseudized with 0 coefficients 


     atomic species   valence    mass     pseudopotential
        Zn            12.00    65.38000     Zn( 1.00)
        O              6.00    15.99900     O ( 1.00)

      6 Sym. Ops. (no inversion) found


                                    s                        frac. trans.

      isym =  1     identity                                     

 cryst.   s( 1) = (     1          0          0      )
                  (     0          1          0      )
                  (     0          0          1      )

 cart.    s( 1) = (  1.0000000  0.0000000  0.0000000 )
                  (  0.0000000  1.0000000  0.0000000 )
                  (  0.0000000  0.0000000  1.0000000 )


      isym =  2     120 deg rotation - cryst. axis [0,0,1]       

 cryst.   s( 2) = (     0          1          0      )
                  (    -1         -1          0      )
                  (     0          0          1      )

 cart.    s( 2) = ( -0.5000000 -0.8660254  0.0000000 )
                  (  0.8660254 -0.5000000  0.0000000 )
                  (  0.0000000  0.0000000  1.0000000 )


      isym =  3     120 deg rotation - cryst. axis [0,0,-1]      

 cryst.   s( 3) = (    -1         -1          0      )
                  (     1          0          0      )
                  (     0          0          1      )

 cart.    s( 3) = ( -0.5000000  0.8660254  0.0000000 )
                  ( -0.8660254 -0.5000000  0.0000000 )
                  (  0.0000000  0.0000000  1.0000000 )


      isym =  4     inv. 180 deg rotation - cart. axis [1,0,0]   

 cryst.   s( 4) = (    -1          0          0      )
                  (     1          1          0      )
                  (     0          0          1      )

 cart.    s( 4) = ( -1.0000000  0.0000000  0.0000000 )
                  (  0.0000000  1.0000000  0.0000000 )
                  (  0.0000000  0.0000000  1.0000000 )


      isym =  5     inv. 180 deg rotation - cryst. axis [0,1,0]  

 cryst.   s( 5) = (     1          1          0      )
                  (     0         -1          0      )
                  (     0          0          1      )

 cart.    s( 5) = (  0.5000000  0.8660254  0.0000000 )
                  (  0.8660254 -0.5000000  0.0000000 )
                  (  0.0000000  0.0000000  1.0000000 )


      isym =  6     inv. 180 deg rotation - cryst. axis [1,1,0]  

 cryst.   s( 6) = (     0         -1          0      )
                  (    -1          0          0      )
                  (     0          0          1      )

 cart.    s( 6) = (  0.5000000 -0.8660254  0.0000000 )
                  ( -0.8660254 -0.5000000  0.0000000 )
                  (  0.0000000  0.0000000  1.0000000 )


   Cartesian axes

     site n.     atom                  positions (alat units)
         1           Zn  tau(   1) = (   0.0000000   0.0000000   0.0000000  )
         2           O   tau(   2) = (  -0.0000000   0.5773503   0.2330121  )
         3           Zn  tau(   3) = (  -0.0000000   0.5773503   0.8556099  )
         4           O   tau(   4) = (   0.0000000   0.0000000   1.0886221  )
         5           Zn  tau(   5) = (   0.0000000   0.0000000   1.7112199  )
         6           O   tau(   6) = (  -0.0000000   0.5773503   1.9442320  )
         7           Zn  tau(   7) = (  -0.0000000   0.5773503   2.5668298  )
         8           O   tau(   8) = (   0.0000000   0.0000000   2.7998419  )

   Crystallographic axes

     site n.     atom                  positions (cryst. coord.)
         1           Zn  tau(   1) = (  0.0000000  0.0000000  0.0000000  )
         2           O   tau(   2) = (  0.3333333  0.6666667  0.0680836  )
         3           Zn  tau(   3) = (  0.3333333  0.6666667  0.2500000  )
         4           O   tau(   4) = (  0.0000000  0.0000000  0.3180836  )
         5           Zn  tau(   5) = (  0.0000000  0.0000000  0.5000000  )
         6           O   tau(   6) = (  0.3333333  0.6666667  0.5680836  )
         7           Zn  tau(   7) = (  0.3333333  0.6666667  0.7500000  )
         8           O   tau(   8) = (  0.0000000  0.0000000  0.8180836  )

     number of k points=    34
                       cart. coord. in units 2pi/alat
        k(    1) = (   0.0000000   0.0000000   0.0000000), wk =   0.0092593
        k(    2) = (   0.0000000   0.0000000   0.0486982), wk =   0.0185185
        k(    3) = (   0.0000000   0.0000000   0.0973964), wk =   0.0185185
        k(    4) = (   0.0000000   0.0000000  -0.1460946), wk =   0.0092593
        k(    5) = (   0.0000000   0.1924501   0.0000000), wk =   0.0555556
        k(    6) = (   0.0000000   0.1924501   0.0486982), wk =   0.0555556
        k(    7) = (   0.0000000   0.1924501   0.0973964), wk =   0.0555556
        k(    8) = (   0.0000000   0.1924501  -0.1460946), wk =   0.0555556
        k(    9) = (   0.0000000   0.3849002   0.0000000), wk =   0.0555556
        k(   10) = (   0.0000000   0.3849002   0.0486982), wk =   0.0555556
        k(   11) = (   0.0000000   0.3849002   0.0973964), wk =   0.0555556
        k(   12) = (   0.0000000   0.3849002  -0.1460946), wk =   0.0555556
        k(   13) = (   0.0000000  -0.5773503   0.0000000), wk =   0.0277778
        k(   14) = (   0.0000000  -0.5773503   0.0486982), wk =   0.0555556
        k(   15) = (   0.0000000  -0.5773503   0.0973964), wk =   0.0555556
        k(   16) = (   0.0000000  -0.5773503  -0.1460946), wk =   0.0277778
        k(   17) = (   0.1666667   0.2886751   0.0000000), wk =   0.0555556
        k(   18) = (   0.1666667   0.2886751   0.0486982), wk =   0.1111111
        k(   19) = (   0.1666667   0.2886751   0.0973964), wk =   0.1111111
        k(   20) = (   0.1666667   0.2886751  -0.1460946), wk =   0.0555556
        k(   21) = (   0.1666667   0.4811252   0.0000000), wk =   0.1111111
        k(   22) = (   0.1666667   0.4811252   0.0486982), wk =   0.1111111
        k(   23) = (   0.1666667   0.4811252   0.0973964), wk =   0.1111111
        k(   24) = (   0.1666667   0.4811252  -0.1460946), wk =   0.1111111
        k(   25) = (   0.3333333   0.5773503   0.0000000), wk =   0.0185185
        k(   26) = (   0.3333333   0.5773503   0.0486982), wk =   0.0370370
        k(   27) = (   0.3333333   0.5773503   0.0973964), wk =   0.0370370
        k(   28) = (   0.3333333   0.5773503  -0.1460946), wk =   0.0185185
        k(   29) = (   0.0000000  -0.1924501   0.0486982), wk =   0.0555556
        k(   30) = (   0.0000000  -0.1924501   0.0973964), wk =   0.0555556
        k(   31) = (   0.0000000  -0.3849002   0.0486982), wk =   0.0555556
        k(   32) = (   0.0000000  -0.3849002   0.0973964), wk =   0.0555556
        k(   33) = (  -0.1666667  -0.4811252   0.0486982), wk =   0.1111111
        k(   34) = (  -0.1666667  -0.4811252   0.0973964), wk =   0.1111111

                       cryst. coord.
        k(    1) = (   0.0000000   0.0000000   0.0000000), wk =   0.0092593
        k(    2) = (   0.0000000   0.0000000   0.1666667), wk =   0.0185185
        k(    3) = (   0.0000000   0.0000000   0.3333333), wk =   0.0185185
        k(    4) = (   0.0000000   0.0000000  -0.5000000), wk =   0.0092593
        k(    5) = (   0.0000000   0.1666667   0.0000000), wk =   0.0555556
        k(    6) = (   0.0000000   0.1666667   0.1666667), wk =   0.0555556
        k(    7) = (   0.0000000   0.1666667   0.3333333), wk =   0.0555556
        k(    8) = (   0.0000000   0.1666667  -0.5000000), wk =   0.0555556
        k(    9) = (   0.0000000   0.3333333   0.0000000), wk =   0.0555556
        k(   10) = (   0.0000000   0.3333333   0.1666667), wk =   0.0555556
        k(   11) = (   0.0000000   0.3333333   0.3333333), wk =   0.0555556
        k(   12) = (   0.0000000   0.3333333  -0.5000000), wk =   0.0555556
        k(   13) = (   0.0000000  -0.5000000   0.0000000), wk =   0.0277778
        k(   14) = (   0.0000000  -0.5000000   0.1666667), wk =   0.0555556
        k(   15) = (   0.0000000  -0.5000000   0.3333333), wk =   0.0555556
        k(   16) = (   0.0000000  -0.5000000  -0.5000000), wk =   0.0277778
        k(   17) = (   0.1666667   0.1666667   0.0000000), wk =   0.0555556
        k(   18) = (   0.1666667   0.1666667   0.1666667), wk =   0.1111111
        k(   19) = (   0.1666667   0.1666667   0.3333333), wk =   0.1111111
        k(   20) = (   0.1666667   0.1666667  -0.5000000), wk =   0.0555556
        k(   21) = (   0.1666667   0.3333333   0.0000000), wk =   0.1111111
        k(   22) = (   0.1666667   0.3333333   0.1666667), wk =   0.1111111
        k(   23) = (   0.1666667   0.3333333   0.3333333), wk =   0.1111111
        k(   24) = (   0.1666667   0.3333333  -0.5000000), wk =   0.1111111
        k(   25) = (   0.3333333   0.3333333   0.0000000), wk =   0.0185185
        k(   26) = (   0.3333333   0.3333333   0.1666667), wk =   0.0370370
        k(   27) = (   0.3333333   0.3333333   0.3333333), wk =   0.0370370
        k(   28) = (   0.3333333   0.3333333  -0.5000000), wk =   0.0185185
        k(   29) = (   0.0000000  -0.1666667   0.1666667), wk =   0.0555556
        k(   30) = (   0.0000000  -0.1666667   0.3333333), wk =   0.0555556
        k(   31) = (   0.0000000  -0.3333333   0.1666667), wk =   0.0555556
        k(   32) = (   0.0000000  -0.3333333   0.3333333), wk =   0.0555556
        k(   33) = (  -0.1666667  -0.3333333   0.1666667), wk =   0.1111111
        k(   34) = (  -0.1666667  -0.3333333   0.3333333), wk =   0.1111111

     Dense  grid:    94359 G-vectors     FFT dimensions: (  40,  40, 135)

     Smooth grid:    33311 G-vectors     FFT dimensions: (  27,  27,  96)

     Dynamical RAM for                 wfc:       0.57 MB

     Dynamical RAM for     wfc (w. buffer):      10.31 MB

     Dynamical RAM for           str. fact:       0.72 MB

     Dynamical RAM for           local pot:       0.00 MB

     Dynamical RAM for          nlocal pot:       1.66 MB

     Dynamical RAM for                qrad:       3.21 MB

     Dynamical RAM for          rho,v,vnew:       2.32 MB

     Dynamical RAM for               rhoin:       0.77 MB

     Dynamical RAM for            rho*nmix:       5.76 MB

     Dynamical RAM for           G-vectors:       1.41 MB

     Dynamical RAM for          h,s,v(r/c):       0.24 MB

     Dynamical RAM for          <psi|beta>:       0.06 MB

     Dynamical RAM for                 psi:       1.15 MB

     Dynamical RAM for                hpsi:       1.15 MB

     Dynamical RAM for                spsi:       1.15 MB

     Dynamical RAM for      wfcinit/wfcrot:       1.72 MB

     Dynamical RAM for           addusdens:      34.37 MB

     Dynamical RAM for          addusforce:      35.47 MB

     Estimated static dynamical RAM per process >      23.57 MB

     Estimated max dynamical RAM per process >      64.79 MB

     Estimated total dynamical RAM >     495.32 MB

     Check: negative core charge=   -0.000002

     Initial potential from superposition of free atoms

     starting charge      71.9851, renormalised to      72.0000
     Starting wfcs are   52 randomized atomic wfcs

     total cpu time spent up to now is        4.5 secs

     Self-consistent Calculation

     iteration #  1     ecut=    50.00 Ry     beta= 0.30
     Davidson diagonalization with overlap

---- Real-time Memory Report at c_bands before calling an iterative solver
            79 MiB given to the printing process from OS
             0 MiB allocation reported by mallinfo(arena+hblkhd)
         56047 MiB available memory on the node where the printing process lives
------------------
     ethr =  1.00E-02,  avg # of iterations =  1.7

     total cpu time spent up to now is        9.1 secs

     total energy              =    -722.92860808 Ry
     estimated scf accuracy    <       1.42917982 Ry

     iteration #  2     ecut=    50.00 Ry     beta= 0.30
     Davidson diagonalization with overlap

---- Real-time Memory Report at c_bands before calling an iterative solver
            96 MiB given to the printing process from OS
             0 MiB allocation reported by mallinfo(arena+hblkhd)
         55933 MiB available memory on the node where the printing process lives
------------------
     ethr =  1.98E-03,  avg # of iterations =  2.2

     total cpu time spent up to now is       14.7 secs

     total energy              =    -723.15193110 Ry
     estimated scf accuracy    <       0.16454881 Ry

     iteration #  3     ecut=    50.00 Ry     beta= 0.30
     Davidson diagonalization with overlap

---- Real-time Memory Report at c_bands before calling an iterative solver
            96 MiB given to the printing process from OS
             0 MiB allocation reported by mallinfo(arena+hblkhd)
         55933 MiB available memory on the node where the printing process lives
------------------
     ethr =  2.29E-04,  avg # of iterations =  6.6

     total cpu time spent up to now is       24.0 secs

     total energy              =    -723.20269128 Ry
     estimated scf accuracy    <       0.12282487 Ry

     iteration #  4     ecut=    50.00 Ry     beta= 0.30
     Davidson diagonalization with overlap

---- Real-time Memory Report at c_bands before calling an iterative solver
            96 MiB given to the printing process from OS
             0 MiB allocation reported by mallinfo(arena+hblkhd)
         55939 MiB available memory on the node where the printing process lives
------------------
     ethr =  1.71E-04,  avg # of iterations =  8.6

     total cpu time spent up to now is       35.8 secs

     total energy              =    -723.27999023 Ry
     estimated scf accuracy    <       0.46877867 Ry

     iteration #  5     ecut=    50.00 Ry     beta= 0.30
     Davidson diagonalization with overlap

---- Real-time Memory Report at c_bands before calling an iterative solver
            97 MiB given to the printing process from OS
             0 MiB allocation reported by mallinfo(arena+hblkhd)
         55941 MiB available memory on the node where the printing process lives
------------------
     ethr =  1.71E-04,  avg # of iterations =  2.0

     total cpu time spent up to now is       40.4 secs

     total energy              =    -723.07099064 Ry
     estimated scf accuracy    <       0.26945713 Ry

     iteration #  6     ecut=    50.00 Ry     beta= 0.30
     Davidson diagonalization with overlap

---- Real-time Memory Report at c_bands before calling an iterative solver
            97 MiB given to the printing process from OS
             0 MiB allocation reported by mallinfo(arena+hblkhd)
         55942 MiB available memory on the node where the printing process lives
------------------
     ethr =  1.71E-04,  avg # of iterations =  9.9

     total cpu time spent up to now is       52.6 secs

     total energy              =    -723.20604185 Ry
     estimated scf accuracy    <       0.99899706 Ry

     iteration #  7     ecut=    50.00 Ry     beta= 0.30
     Davidson diagonalization with overlap

---- Real-time Memory Report at c_bands before calling an iterative solver
            97 MiB given to the printing process from OS
             0 MiB allocation reported by mallinfo(arena+hblkhd)
         55942 MiB available memory on the node where the printing process lives
------------------
     ethr =  1.71E-04,  avg # of iterations =  5.5

     total cpu time spent up to now is       60.1 secs

     total energy              =    -723.28839204 Ry
     estimated scf accuracy    <       0.14174082 Ry

     iteration #  8     ecut=    50.00 Ry     beta= 0.30
     Davidson diagonalization with overlap

---- Real-time Memory Report at c_bands before calling an iterative solver
            98 MiB given to the printing process from OS
             0 MiB allocation reported by mallinfo(arena+hblkhd)
         55942 MiB available memory on the node where the printing process lives
------------------
     ethr =  1.71E-04,  avg # of iterations =  1.1

     total cpu time spent up to now is       64.4 secs

     total energy              =    -723.29001674 Ry
     estimated scf accuracy    <       0.14842968 Ry

     iteration #  9     ecut=    50.00 Ry     beta= 0.30
     Davidson diagonalization with overlap

---- Real-time Memory Report at c_bands before calling an iterative solver
            98 MiB given to the printing process from OS
             0 MiB allocation reported by mallinfo(arena+hblkhd)
         55942 MiB available memory on the node where the printing process lives
------------------
     ethr =  1.71E-04,  avg # of iterations =  1.1

     total cpu time spent up to now is       68.7 secs

     total energy              =    -723.28922814 Ry
     estimated scf accuracy    <       0.14422611 Ry

     iteration # 10     ecut=    50.00 Ry     beta= 0.30
     Davidson diagonalization with overlap

---- Real-time Memory Report at c_bands before calling an iterative solver
            99 MiB given to the printing process from OS
             0 MiB allocation reported by mallinfo(arena+hblkhd)
         55926 MiB available memory on the node where the printing process lives
------------------
     ethr =  1.71E-04,  avg # of iterations =  1.0

     total cpu time spent up to now is       72.9 secs

     total energy              =    -723.30086235 Ry
     estimated scf accuracy    <       0.13954401 Ry

     iteration # 11     ecut=    50.00 Ry     beta= 0.30
     Davidson diagonalization with overlap

---- Real-time Memory Report at c_bands before calling an iterative solver
            99 MiB given to the printing process from OS
             0 MiB allocation reported by mallinfo(arena+hblkhd)
         55929 MiB available memory on the node where the printing process lives
------------------
     ethr =  1.71E-04,  avg # of iterations =  1.0

     total cpu time spent up to now is       77.1 secs

     total energy              =    -723.23288202 Ry
     estimated scf accuracy    <       0.16134415 Ry

     iteration # 12     ecut=    50.00 Ry     beta= 0.30
     Davidson diagonalization with overlap

---- Real-time Memory Report at c_bands before calling an iterative solver
            99 MiB given to the printing process from OS
             0 MiB allocation reported by mallinfo(arena+hblkhd)
         55934 MiB available memory on the node where the printing process lives
------------------
     ethr =  1.71E-04,  avg # of iterations =  2.3

     total cpu time spent up to now is       81.9 secs

     total energy              =    -723.24388019 Ry
     estimated scf accuracy    <       0.04523418 Ry

     iteration # 13     ecut=    50.00 Ry     beta= 0.30
     Davidson diagonalization with overlap

---- Real-time Memory Report at c_bands before calling an iterative solver
            99 MiB given to the printing process from OS
             0 MiB allocation reported by mallinfo(arena+hblkhd)
         55935 MiB available memory on the node where the printing process lives
------------------
     ethr =  6.28E-05,  avg # of iterations =  4.8

     total cpu time spent up to now is       88.6 secs

     total energy              =    -723.26426843 Ry
     estimated scf accuracy    <       0.00536200 Ry

     iteration # 14     ecut=    50.00 Ry     beta= 0.30
     Davidson diagonalization with overlap

---- Real-time Memory Report at c_bands before calling an iterative solver
            99 MiB given to the printing process from OS
             0 MiB allocation reported by mallinfo(arena+hblkhd)
         55935 MiB available memory on the node where the printing process lives
------------------
     ethr =  7.45E-06,  avg # of iterations =  4.5

     total cpu time spent up to now is       95.4 secs

     total energy              =    -723.25581950 Ry
     estimated scf accuracy    <       0.02135228 Ry

     iteration # 15     ecut=    50.00 Ry     beta= 0.30
     Davidson diagonalization with overlap

---- Real-time Memory Report at c_bands before calling an iterative solver
            99 MiB given to the printing process from OS
             0 MiB allocation reported by mallinfo(arena+hblkhd)
         55935 MiB available memory on the node where the printing process lives
------------------
     ethr =  7.45E-06,  avg # of iterations =  6.4

     total cpu time spent up to now is      104.6 secs

     total energy              =    -723.26038307 Ry
     estimated scf accuracy    <       0.00017488 Ry

     iteration # 16     ecut=    50.00 Ry     beta= 0.30
     Davidson diagonalization with overlap

---- Real-time Memory Report at c_bands before calling an iterative solver
            99 MiB given to the printing process from OS
             0 MiB allocation reported by mallinfo(arena+hblkhd)
         55935 MiB available memory on the node where the printing process lives
------------------
     ethr =  2.43E-07,  avg # of iterations =  6.4

     total cpu time spent up to now is      112.7 secs

     total energy              =    -723.26048190 Ry
     estimated scf accuracy    <       0.00006468 Ry

     iteration # 17     ecut=    50.00 Ry     beta= 0.30
     Davidson diagonalization with overlap

---- Real-time Memory Report at c_bands before calling an iterative solver
            99 MiB given to the printing process from OS
             0 MiB allocation reported by mallinfo(arena+hblkhd)
         55936 MiB available memory on the node where the printing process lives
------------------
     ethr =  8.98E-08,  avg # of iterations =  1.8

     total cpu time spent up to now is      117.2 secs

     total energy              =    -723.26049933 Ry
     estimated scf accuracy    <       0.00004591 Ry

     iteration # 18     ecut=    50.00 Ry     beta= 0.30
     Davidson diagonalization with overlap

---- Real-time Memory Report at c_bands before calling an iterative solver
            99 MiB given to the printing process from OS
             0 MiB allocation reported by mallinfo(arena+hblkhd)
         55934 MiB available memory on the node where the printing process lives
------------------
     ethr =  6.38E-08,  avg # of iterations =  2.4

     total cpu time spent up to now is      122.1 secs

     total energy              =    -723.26047519 Ry
     estimated scf accuracy    <       0.00008590 Ry

     iteration # 19     ecut=    50.00 Ry     beta= 0.30
     Davidson diagonalization with overlap

---- Real-time Memory Report at c_bands before calling an iterative solver
            99 MiB given to the printing process from OS
             0 MiB allocation reported by mallinfo(arena+hblkhd)
         55934 MiB available memory on the node where the printing process lives
------------------
     ethr =  6.38E-08,  avg # of iterations =  2.1

     total cpu time spent up to now is      126.8 secs

     total energy              =    -723.26046970 Ry
     estimated scf accuracy    <       0.00004014 Ry

     iteration # 20     ecut=    50.00 Ry     beta= 0.30
     Davidson diagonalization with overlap

---- Real-time Memory Report at c_bands before calling an iterative solver
            99 MiB given to the printing process from OS
             0 MiB allocation reported by mallinfo(arena+hblkhd)
         55934 MiB available memory on the node where the printing process lives
------------------
     ethr =  5.58E-08,  avg # of iterations =  2.2

     total cpu time spent up to now is      131.8 secs

     total energy              =    -723.26047588 Ry
     estimated scf accuracy    <       0.00001184 Ry

     iteration # 21     ecut=    50.00 Ry     beta= 0.30
     Davidson diagonalization with overlap

---- Real-time Memory Report at c_bands before calling an iterative solver
            99 MiB given to the printing process from OS
             0 MiB allocation reported by mallinfo(arena+hblkhd)
         55934 MiB available memory on the node where the printing process lives
------------------
     ethr =  1.64E-08,  avg # of iterations =  4.3

     total cpu time spent up to now is      137.2 secs

     total energy              =    -723.26047171 Ry
     estimated scf accuracy    <       0.00001110 Ry

     iteration # 22     ecut=    50.00 Ry     beta= 0.30
     Davidson diagonalization with overlap

---- Real-time Memory Report at c_bands before calling an iterative solver
            99 MiB given to the printing process from OS
             0 MiB allocation reported by mallinfo(arena+hblkhd)
         55934 MiB available memory on the node where the printing process lives
------------------
     ethr =  1.54E-08,  avg # of iterations =  5.1

     total cpu time spent up to now is      143.7 secs

     total energy              =    -723.26047509 Ry
     estimated scf accuracy    <       0.00000004 Ry

     iteration # 23     ecut=    50.00 Ry     beta= 0.30
     Davidson diagonalization with overlap

---- Real-time Memory Report at c_bands before calling an iterative solver
            99 MiB given to the printing process from OS
             0 MiB allocation reported by mallinfo(arena+hblkhd)
         55869 MiB available memory on the node where the printing process lives
------------------
     c_bands:  1 eigenvalues not converged
     c_bands:  1 eigenvalues not converged
     c_bands:  1 eigenvalues not converged
     ethr =  6.17E-11,  avg # of iterations = 14.5

     total cpu time spent up to now is      162.6 secs

     total energy              =    -723.26047434 Ry
     estimated scf accuracy    <       0.00000665 Ry

     iteration # 24     ecut=    50.00 Ry     beta= 0.30
     Davidson diagonalization with overlap

---- Real-time Memory Report at c_bands before calling an iterative solver
            99 MiB given to the printing process from OS
             0 MiB allocation reported by mallinfo(arena+hblkhd)
         55882 MiB available memory on the node where the printing process lives
------------------
     ethr =  6.17E-11,  avg # of iterations = 13.2

     total cpu time spent up to now is      180.5 secs

     total energy              =    -723.26047535 Ry
     estimated scf accuracy    <       0.00000006 Ry

     iteration # 25     ecut=    50.00 Ry     beta= 0.30
     Davidson diagonalization with overlap

---- Real-time Memory Report at c_bands before calling an iterative solver
            99 MiB given to the printing process from OS
             0 MiB allocation reported by mallinfo(arena+hblkhd)
         55885 MiB available memory on the node where the printing process lives
------------------
     ethr =  6.17E-11,  avg # of iterations =  3.7

     total cpu time spent up to now is      185.9 secs

     total energy              =    -723.26047551 Ry
     estimated scf accuracy    <       0.00000012 Ry

     iteration # 26     ecut=    50.00 Ry     beta= 0.30
     Davidson diagonalization with overlap

---- Real-time Memory Report at c_bands before calling an iterative solver
            99 MiB given to the printing process from OS
             0 MiB allocation reported by mallinfo(arena+hblkhd)
         55886 MiB available memory on the node where the printing process lives
------------------
     ethr =  6.17E-11,  avg # of iterations =  9.8

     total cpu time spent up to now is      198.6 secs

     total energy              =    -723.26047558 Ry
     estimated scf accuracy    <       0.00000129 Ry

     iteration # 27     ecut=    50.00 Ry     beta= 0.30
     Davidson diagonalization with overlap

---- Real-time Memory Report at c_bands before calling an iterative solver
            99 MiB given to the printing process from OS
             0 MiB allocation reported by mallinfo(arena+hblkhd)
         55889 MiB available memory on the node where the printing process lives
------------------
     ethr =  6.17E-11,  avg # of iterations =  1.1

     total cpu time spent up to now is      202.9 secs

     total energy              =    -723.26047536 Ry
     estimated scf accuracy    <       0.00000118 Ry

     iteration # 28     ecut=    50.00 Ry     beta= 0.30
     Davidson diagonalization with overlap

---- Real-time Memory Report at c_bands before calling an iterative solver
            99 MiB given to the printing process from OS
             0 MiB allocation reported by mallinfo(arena+hblkhd)
         55890 MiB available memory on the node where the printing process lives
------------------
     ethr =  6.17E-11,  avg # of iterations =  6.8

     total cpu time spent up to now is      212.7 secs

     total energy              =    -723.26047534 Ry
     estimated scf accuracy    <       0.00000040 Ry

     iteration # 29     ecut=    50.00 Ry     beta= 0.30
     Davidson diagonalization with overlap

---- Real-time Memory Report at c_bands before calling an iterative solver
            99 MiB given to the printing process from OS
             0 MiB allocation reported by mallinfo(arena+hblkhd)
         55891 MiB available memory on the node where the printing process lives
------------------
     ethr =  6.17E-11,  avg # of iterations =  3.1

     total cpu time spent up to now is      217.8 secs

     total energy              =    -723.26047519 Ry
     estimated scf accuracy    <       0.00000027 Ry

     iteration # 30     ecut=    50.00 Ry     beta= 0.30
     Davidson diagonalization with overlap

---- Real-time Memory Report at c_bands before calling an iterative solver
            99 MiB given to the printing process from OS
             0 MiB allocation reported by mallinfo(arena+hblkhd)
         55891 MiB available memory on the node where the printing process lives
------------------
     ethr =  6.17E-11,  avg # of iterations =  9.7

     total cpu time spent up to now is      230.9 secs

     total energy              =    -723.26047530 Ry
     estimated scf accuracy    <       0.00000012 Ry

     iteration # 31     ecut=    50.00 Ry     beta= 0.30
     Davidson diagonalization with overlap

---- Real-time Memory Report at c_bands before calling an iterative solver
            99 MiB given to the printing process from OS
             0 MiB allocation reported by mallinfo(arena+hblkhd)
         55892 MiB available memory on the node where the printing process lives
------------------
     ethr =  6.17E-11,  avg # of iterations =  2.3

     total cpu time spent up to now is      236.0 secs

     total energy              =    -723.26047529 Ry
     estimated scf accuracy    <       0.00000005 Ry

     iteration # 32     ecut=    50.00 Ry     beta= 0.30
     Davidson diagonalization with overlap

---- Real-time Memory Report at c_bands before calling an iterative solver
            99 MiB given to the printing process from OS
             0 MiB allocation reported by mallinfo(arena+hblkhd)
         55892 MiB available memory on the node where the printing process lives
------------------
     ethr =  6.17E-11,  avg # of iterations =  5.3

     total cpu time spent up to now is      242.8 secs

     End of self-consistent calculation

          k = 0.0000 0.0000 0.0000 (  4157 PWs)   bands (ev):

   -11.3781 -11.1164 -11.1164 -10.8398   0.5039   0.5039   0.6253   0.7706
     0.7706   0.7998   0.8487   0.8487   0.8487   0.8487   0.9572   0.9572
     1.6700   1.6700   1.7555   1.7555   1.7555   1.7555   1.8215   1.8215
     2.0371   3.6979   3.6979   5.4182   5.4182   5.7598   5.7598   5.7598
     5.7598   5.9231   6.0961   6.0961

     occupation numbers 
     1.0000   1.0000   1.0000   1.0000   1.0000   1.0000   1.0000   1.0000
     1.0000   1.0000   1.0000   1.0000   1.0000   1.0000   1.0000   1.0000
     1.0000   1.0000   1.0000   1.0000   1.0000   1.0000   1.0000   1.0000
     1.0000   1.0000   1.0000   1.0000   1.0000   1.0000   1.0000   1.0000
     1.0000   1.0000   1.0000   1.0000

          k = 0.0000 0.0000 0.0487 (  4121 PWs)   bands (ev):

   -11.3694 -11.1855 -11.0463 -10.8495   0.5140   0.5152   0.6180   0.7676
     0.7730   0.7730   0.8260   0.8260   0.8739   0.8739   0.9530   0.9530
     1.6734   1.6734   1.7351   1.7351   1.7749   1.7749   1.8196   1.8196
     2.1127   3.3079   4.0995   5.4300   5.4300   5.6720   5.6720   5.7075
     5.8473   5.8473   6.0848   6.0848

     occupation numbers 
     1.0000   1.0000   1.0000   1.0000   1.0000   1.0000   1.0000   1.0000
     1.0000   1.0000   1.0000   1.0000   1.0000   1.0000   1.0000   1.0000
     1.0000   1.0000   1.0000   1.0000   1.0000   1.0000   1.0000   1.0000
     1.0000   1.0000   1.0000   1.0000   1.0000   1.0000   1.0000   1.0000
     1.0000   1.0000   1.0000   1.0000

          k = 0.0000 0.0000 0.0974 (  4128 PWs)   bands (ev):

   -11.3439 -11.2490 -10.9801 -10.8778   0.5382   0.5518   0.5976   0.6934
     0.7797   0.7797   0.8064   0.8064   0.8989   0.8989   0.9407   0.9407
     1.6827   1.6827   1.7150   1.7150   1.7916   1.7916   1.8141   1.8141
     2.3144   2.9373   4.5070   5.3247   5.4644   5.4644   5.5898   5.5898
     5.9286   5.9286   6.0514   6.0514

     occupation numbers 
     1.0000   1.0000   1.0000   1.0000   1.0000   1.0000   1.0000   1.0000
     1.0000   1.0000   1.0000   1.0000   1.0000   1.0000   1.0000   1.0000
     1.0000   1.0000   1.0000   1.0000   1.0000   1.0000   1.0000   1.0000
     1.0000   1.0000   1.0000   1.0000   1.0000   1.0000   1.0000   1.0000
     1.0000   1.0000   1.0000   1.0000

          k = 0.0000 0.0000-0.1461 (  4068 PWs)   bands (ev):

   -11.3029 -11.3029 -10.9224 -10.9224   0.5691   0.5691   0.6142   0.6142
     0.7911   0.7911   0.7911   0.7911   0.9221   0.9221   0.9221   0.9221
     1.6973   1.6973   1.6973   1.6973   1.8050   1.8050   1.8050   1.8050
     2.5999   2.5999   4.9172   4.9173   5.5189   5.5189   5.5190   5.5190
     5.9981   5.9981   5.9982   5.9982

     occupation numbers 
     1.0000   1.0000   1.0000   1.0000   1.0000   1.0000   1.0000   1.0000
     1.0000   1.0000   1.0000   1.0000   1.0000   1.0000   1.0000   1.0000
     1.0000   1.0000   1.0000   1.0000   1.0000   1.0000   1.0000   1.0000
     1.0000   1.0000   1.0000   1.0000   1.0000   1.0000   1.0000   1.0000
     1.0000   1.0000   1.0000   1.0000

          k = 0.0000 0.1925 0.0000 (  4150 PWs)   bands (ev):

   -11.2482 -11.0157 -11.0156 -10.7738   0.5115   0.5115   0.6485   0.7034
     0.8287   0.8812   0.8812   0.9294   0.9294   0.9335   1.0587   1.0738
     1.6174   1.6719   1.7458   1.7458   1.7544   1.7544   1.8275   1.9063
     2.0069   3.6844   3.6844   4.5192   4.9806   5.1091   5.1091   5.1324
     5.5450   5.5451   5.7719   5.9477

     occupation numbers 
     1.0000   1.0000   1.0000   1.0000   1.0000   1.0000   1.0000   1.0000
     1.0000   1.0000   1.0000   1.0000   1.0000   1.0000   1.0000   1.0000
     1.0000   1.0000   1.0000   1.0000   1.0000   1.0000   1.0000   1.0000
     1.0000   1.0000   1.0000   1.0000   1.0000   1.0000   1.0000   1.0000
     1.0000   1.0000   1.0000   1.0000

          k = 0.0000 0.1925 0.0487 (  4152 PWs)   bands (ev):

   -11.2404 -11.0767 -10.9540 -10.7822   0.5085   0.5407   0.6302   0.7139
     0.8318   0.8538   0.9008   0.9106   0.9109   0.9597   1.0455   1.0537
     1.6231   1.6750   1.7160   1.7338   1.7742   1.7743   1.8251   1.8736
     2.1246   3.3498   3.9955   4.5274   4.9429   4.9710   5.1467   5.2602
     5.4395   5.6499   5.7447   5.9340

     occupation numbers 
     1.0000   1.0000   1.0000   1.0000   1.0000   1.0000   1.0000   1.0000
     1.0000   1.0000   1.0000   1.0000   1.0000   1.0000   1.0000   1.0000
     1.0000   1.0000   1.0000   1.0000   1.0000   1.0000   1.0000   1.0000
     1.0000   1.0000   1.0000   1.0000   1.0000   1.0000   1.0000   1.0000
     1.0000   1.0000   1.0000   1.0000

          k = 0.0000 0.1925 0.0974 (  4151 PWs)   bands (ev):

   -11.2176 -11.1331 -10.8959 -10.8067   0.5261   0.5949   0.5974   0.7184
     0.8305   0.8408   0.8499   0.8758   0.9406   0.9899   1.0032   1.0393
     1.6382   1.6836   1.6868   1.7142   1.7921   1.8004   1.8182   1.8459
     2.3669   3.0064   4.2671   4.5363   4.8525   4.8593   5.1885   5.3404
     5.4125   5.6680   5.7472   5.8941

     occupation numbers 
     1.0000   1.0000   1.0000   1.0000   1.0000   1.0000   1.0000   1.0000
     1.0000   1.0000   1.0000   1.0000   1.0000   1.0000   1.0000   1.0000
     1.0000   1.0000   1.0000   1.0000   1.0000   1.0000   1.0000   1.0000
     1.0000   1.0000   1.0000   1.0000   1.0000   1.0000   1.0000   1.0000
     1.0000   1.0000   1.0000   1.0000

          k = 0.0000 0.1925-0.1461 (  4148 PWs)   bands (ev):

   -11.1810 -11.1810 -10.8456 -10.8456   0.5576   0.5576   0.6717   0.6717
     0.8188   0.8188   0.8557   0.8557   0.9707   0.9707   1.0174   1.0174
     1.6600   1.6600   1.6971   1.6971   1.8071   1.8071   1.8237   1.8237
     2.6714   2.6714   4.4672   4.4673   4.8025   4.8025   5.2547   5.2547
     5.5529   5.5529   5.8304   5.8304

     occupation numbers 
     1.0000   1.0000   1.0000   1.0000   1.0000   1.0000   1.0000   1.0000
     1.0000   1.0000   1.0000   1.0000   1.0000   1.0000   1.0000   1.0000
     1.0000   1.0000   1.0000   1.0000   1.0000   1.0000   1.0000   1.0000
     1.0000   1.0000   1.0000   1.0000   1.0000   1.0000   1.0000   1.0000
     1.0000   1.0000   1.0000   1.0000

          k = 0.0000 0.3849 0.0000 (  4172 PWs)   bands (ev):

   -10.9604 -10.8068 -10.8068 -10.6550   0.4846   0.4846   0.5235   0.7708
     0.9084   1.0765   1.0765   1.0818   1.0818   1.1097   1.2932   1.3276
     1.6375   1.7445   1.7654   1.7654   1.7878   1.7878   1.8433   2.0090
     2.2862   3.0538   3.1162   3.1162   3.9492   4.5480   4.6205   4.6205
     5.1017   5.1018   5.2591   5.6262

     occupation numbers 
     1.0000   1.0000   1.0000   1.0000   1.0000   1.0000   1.0000   1.0000
     1.0000   1.0000   1.0000   1.0000   1.0000   1.0000   1.0000   1.0000
     1.0000   1.0000   1.0000   1.0000   1.0000   1.0000   1.0000   1.0000
     1.0000   1.0000   1.0000   1.0000   1.0000   1.0000   1.0000   1.0000
     1.0000   1.0000   1.0000   1.0000

          k = 0.0000 0.3849 0.0487 (  4178 PWs)   bands (ev):

   -10.9552 -10.8465 -10.7673 -10.6602   0.4640   0.5170   0.5289   0.7600
     0.9138   1.0337   1.0616   1.1000   1.1035   1.1325   1.2853   1.2977
     1.6357   1.7266   1.7458   1.7758   1.8003   1.8053   1.8409   1.9755
     2.3747   2.9964   3.0848   3.2182   3.9362   4.3467   4.5677   4.8676
     4.9625   5.2391   5.2568   5.6085

     occupation numbers 
     1.0000   1.0000   1.0000   1.0000   1.0000   1.0000   1.0000   1.0000
     1.0000   1.0000   1.0000   1.0000   1.0000   1.0000   1.0000   1.0000
     1.0000   1.0000   1.0000   1.0000   1.0000   1.0000   1.0000   1.0000
     1.0000   1.0000   1.0000   1.0000   1.0000   1.0000   1.0000   1.0000
     1.0000   1.0000   1.0000   1.0000

          k = 0.0000 0.3849 0.0974 (  4181 PWs)   bands (ev):

   -10.9398 -10.8835 -10.7306 -10.6752   0.4645   0.4999   0.5934   0.7251
     0.9299   0.9910   1.0580   1.0871   1.1314   1.1821   1.2329   1.2623
     1.6411   1.6906   1.7499   1.7652   1.8130   1.8344   1.8453   1.9277
     2.5460   2.8644   3.1694   3.2803   3.9154   4.0974   4.6252   4.8307
     5.0583   5.2388   5.3659   5.5567

     occupation numbers 
     1.0000   1.0000   1.0000   1.0000   1.0000   1.0000   1.0000   1.0000
     1.0000   1.0000   1.0000   1.0000   1.0000   1.0000   1.0000   1.0000
     1.0000   1.0000   1.0000   1.0000   1.0000   1.0000   1.0000   1.0000
     1.0000   1.0000   1.0000   1.0000   1.0000   1.0000   1.0000   1.0000
     1.0000   1.0000   1.0000   1.0000

          k = 0.0000 0.3849-0.1461 (  4186 PWs)   bands (ev):

   -10.9153 -10.9153 -10.6993 -10.6992   0.4794   0.4794   0.6654   0.6654
     0.9559   0.9560   1.0679   1.0679   1.1737   1.1737   1.2267   1.2267
     1.6607   1.6607   1.7564   1.7565   1.8246   1.8246   1.8856   1.8856
     2.7159   2.7159   3.2616   3.2617   3.9459   3.9459   4.7153   4.7153
     5.1799   5.1799   5.4740   5.4740

     occupation numbers 
     1.0000   1.0000   1.0000   1.0000   1.0000   1.0000   1.0000   1.0000
     1.0000   1.0000   1.0000   1.0000   1.0000   1.0000   1.0000   1.0000
     1.0000   1.0000   1.0000   1.0000   1.0000   1.0000   1.0000   1.0000
     1.0000   1.0000   1.0000   1.0000   1.0000   1.0000   1.0000   1.0000
     1.0000   1.0000   1.0000   1.0000

          k = 0.0000-0.5774 0.0000 (  4170 PWs)   bands (ev):

   -10.7834 -10.6985 -10.6985 -10.6208   0.4900   0.4900   0.5820   0.7918
     0.9267   1.1053   1.1463   1.1463   1.2186   1.2186   1.4240   1.4476
     1.6897   1.8258   1.8356   1.8356   1.8638   1.8953   1.8953   1.9437
     2.3307   2.4867   2.4867   2.9248   3.4322   4.2318   4.6342   4.6343
     4.7645   4.8672   4.8672   5.4527

     occupation numbers 
     1.0000   1.0000   1.0000   1.0000   1.0000   1.0000   1.0000   1.0000
     1.0000   1.0000   1.0000   1.0000   1.0000   1.0000   1.0000   1.0000
     1.0000   1.0000   1.0000   1.0000   1.0000   1.0000   1.0000   1.0000
     1.0000   1.0000   1.0000   1.0000   1.0000   1.0000   1.0000   1.0000
     1.0000   1.0000   1.0000   1.0000

          k = 0.0000-0.5774 0.0487 (  4180 PWs)   bands (ev):

   -10.7804 -10.7198 -10.6777 -10.6233   0.4827   0.5211   0.5735   0.7709
     0.9333   1.0848   1.1090   1.1854   1.2117   1.2579   1.4134   1.4337
     1.7020   1.8258   1.8321   1.8397   1.8619   1.8643   1.9169   1.9434
     2.3297   2.4216   2.5668   2.9013   3.4934   4.2551   4.4161   4.7100
     4.7849   4.7881   5.0213   5.4331

     occupation numbers 
     1.0000   1.0000   1.0000   1.0000   1.0000   1.0000   1.0000   1.0000
     1.0000   1.0000   1.0000   1.0000   1.0000   1.0000   1.0000   1.0000
     1.0000   1.0000   1.0000   1.0000   1.0000   1.0000   1.0000   1.0000
     1.0000   1.0000   1.0000   1.0000   1.0000   1.0000   1.0000   1.0000
     1.0000   1.0000   1.0000   1.0000

          k = 0.0000-0.5774 0.0974 (  4190 PWs)   bands (ev):

   -10.7717 -10.7401 -10.6587 -10.6308   0.4957   0.5508   0.5749   0.7158
     0.9534   1.0305   1.1195   1.1580   1.2765   1.3027   1.3827   1.3979
     1.7350   1.8242   1.8265   1.8296   1.8449   1.8570   1.9305   1.9419
     2.3317   2.3741   2.6575   2.8380   3.6601   4.1590   4.3225   4.5598
     4.8318   4.8649   5.1629   5.3754

     occupation numbers 
     1.0000   1.0000   1.0000   1.0000   1.0000   1.0000   1.0000   1.0000
     1.0000   1.0000   1.0000   1.0000   1.0000   1.0000   1.0000   1.0000
     1.0000   1.0000   1.0000   1.0000   1.0000   1.0000   1.0000   1.0000
     1.0000   1.0000   1.0000   1.0000   1.0000   1.0000   1.0000   1.0000
     1.0000   1.0000   1.0000   1.0000

          k = 0.0000-0.5774-0.1461 (  4192 PWs)   bands (ev):

   -10.7579 -10.7578 -10.6428 -10.6427   0.5216   0.5216   0.6443   0.6444
     0.9862   0.9862   1.1361   1.1361   1.3353   1.3353   1.3510   1.3510
     1.7789   1.7789   1.8276   1.8277   1.8508   1.8508   1.9382   1.9382
     2.3448   2.3448   2.7516   2.7516   3.8950   3.8950   4.4271   4.4272
     4.8710   4.8710   5.2834   5.2835

     occupation numbers 
     1.0000   1.0000   1.0000   1.0000   1.0000   1.0000   1.0000   1.0000
     1.0000   1.0000   1.0000   1.0000   1.0000   1.0000   1.0000   1.0000
     1.0000   1.0000   1.0000   1.0000   1.0000   1.0000   1.0000   1.0000
     1.0000   1.0000   1.0000   1.0000   1.0000   1.0000   1.0000   1.0000
     1.0000   1.0000   1.0000   1.0000

          k = 0.1667 0.2887 0.0000 (  4169 PWs)   bands (ev):

   -11.0382 -10.8604 -10.8604 -10.6816   0.5298   0.5298   0.6344   0.7486
     0.8257   0.9510   0.9510   1.0288   1.0655   1.0655   1.2247   1.3709
     1.5714   1.6851   1.7465   1.7465   1.7854   1.7854   1.8370   2.0001
     2.1673   3.4077   3.4077   3.7607   3.8821   4.6297   4.6973   4.6973
     5.0341   5.0341   5.4581   5.5574

     occupation numbers 
     1.0000   1.0000   1.0000   1.0000   1.0000   1.0000   1.0000   1.0000
     1.0000   1.0000   1.0000   1.0000   1.0000   1.0000   1.0000   1.0000
     1.0000   1.0000   1.0000   1.0000   1.0000   1.0000   1.0000   1.0000
     1.0000   1.0000   1.0000   1.0000   1.0000   1.0000   1.0000   1.0000
     1.0000   1.0000   1.0000   1.0000

          k = 0.1667 0.2887 0.0487 (  4172 PWs)   bands (ev):

   -11.0321 -10.9066 -10.8142 -10.6877   0.5189   0.5660   0.6221   0.7440
     0.8337   0.9273   0.9659   1.0217   1.0540   1.0963   1.2179   1.3119
     1.5782   1.6994   1.7067   1.7595   1.7952   1.8015   1.8346   1.9596
     2.2855   3.2270   3.5601   3.7878   3.8737   4.4473   4.6311   4.8415
     5.0058   5.1598   5.4474   5.5386

     occupation numbers 
     1.0000   1.0000   1.0000   1.0000   1.0000   1.0000   1.0000   1.0000
     1.0000   1.0000   1.0000   1.0000   1.0000   1.0000   1.0000   1.0000
     1.0000   1.0000   1.0000   1.0000   1.0000   1.0000   1.0000   1.0000
     1.0000   1.0000   1.0000   1.0000   1.0000   1.0000   1.0000   1.0000
     1.0000   1.0000   1.0000   1.0000

          k = 0.1667 0.2887 0.0974 (  4174 PWs)   bands (ev):

   -11.0145 -10.9495 -10.7711 -10.7056   0.5306   0.5924   0.6228   0.7255
     0.8526   0.9015   0.9697   1.0019   1.0734   1.1335   1.1987   1.2044
     1.5979   1.6655   1.7196   1.7490   1.8076   1.8284   1.8393   1.9147
     2.5150   3.0141   3.6857   3.8431   3.8705   4.2081   4.6447   4.7629
     5.1778   5.2860   5.4070   5.4837

     occupation numbers 
     1.0000   1.0000   1.0000   1.0000   1.0000   1.0000   1.0000   1.0000
     1.0000   1.0000   1.0000   1.0000   1.0000   1.0000   1.0000   1.0000
     1.0000   1.0000   1.0000   1.0000   1.0000   1.0000   1.0000   1.0000
     1.0000   1.0000   1.0000   1.0000   1.0000   1.0000   1.0000   1.0000
     1.0000   1.0000   1.0000   1.0000

          k = 0.1667 0.2887-0.1461 (  4188 PWs)   bands (ev):

   -10.9863 -10.9863 -10.7340 -10.7340   0.5581   0.5581   0.6835   0.6835
     0.8762   0.8762   0.9795   0.9795   1.1214   1.1214   1.1693   1.1693
     1.6279   1.6280   1.7355   1.7355   1.8190   1.8190   1.8769   1.8769
     2.7708   2.7708   3.7814   3.7814   4.0112   4.0112   4.6870   4.6871
     5.3204   5.3204   5.3971   5.3971

     occupation numbers 
     1.0000   1.0000   1.0000   1.0000   1.0000   1.0000   1.0000   1.0000
     1.0000   1.0000   1.0000   1.0000   1.0000   1.0000   1.0000   1.0000
     1.0000   1.0000   1.0000   1.0000   1.0000   1.0000   1.0000   1.0000
     1.0000   1.0000   1.0000   1.0000   1.0000   1.0000   1.0000   1.0000
     1.0000   1.0000   1.0000   1.0000

          k = 0.1667 0.4811 0.0000 (  4188 PWs)   bands (ev):

   -10.7896 -10.7003 -10.7003 -10.6179   0.6012   0.6012   0.6386   0.8961
     0.9351   1.0405   1.0405   1.2183   1.2442   1.2442   1.3052   1.4319
     1.6483   1.6992   1.7561   1.7561   1.8915   1.9369   1.9369   2.0826
     2.4144   2.7152   2.7153   2.9657   3.5398   3.7975   4.3328   4.3328
     4.7590   4.7590   4.8276   5.1392

     occupation numbers 
     1.0000   1.0000   1.0000   1.0000   1.0000   1.0000   1.0000   1.0000
     1.0000   1.0000   1.0000   1.0000   1.0000   1.0000   1.0000   1.0000
     1.0000   1.0000   1.0000   1.0000   1.0000   1.0000   1.0000   1.0000
     1.0000   1.0000   1.0000   1.0000   1.0000   1.0000   1.0000   1.0000
     1.0000   1.0000   1.0000   1.0000

          k = 0.1667 0.4811 0.0487 (  4190 PWs)   bands (ev):

   -10.7865 -10.7228 -10.6783 -10.6206   0.5900   0.6355   0.6367   0.8656
     0.9496   0.9937   1.0931   1.2052   1.2339   1.2630   1.3002   1.4153
     1.6432   1.7195   1.7311   1.7721   1.8918   1.9175   1.9634   2.0771
     2.4164   2.6265   2.8059   2.9812   3.5610   3.8317   4.1496   4.4408
     4.6443   4.8416   4.8883   5.1177

     occupation numbers 
     1.0000   1.0000   1.0000   1.0000   1.0000   1.0000   1.0000   1.0000
     1.0000   1.0000   1.0000   1.0000   1.0000   1.0000   1.0000   1.0000
     1.0000   1.0000   1.0000   1.0000   1.0000   1.0000   1.0000   1.0000
     1.0000   1.0000   1.0000   1.0000   1.0000   1.0000   1.0000   1.0000
     1.0000   1.0000   1.0000   1.0000

          k = 0.1667 0.4811 0.0974 (  4193 PWs)   bands (ev):

   -10.7773 -10.7442 -10.6582 -10.6285   0.5977   0.6292   0.6896   0.8131
     0.9556   0.9626   1.1359   1.1791   1.2404   1.2864   1.2888   1.3739
     1.6496   1.7010   1.7495   1.7771   1.8932   1.9047   1.9955   2.0588
     2.4340   2.5453   2.8916   2.9925   3.6403   3.9333   3.9607   4.2948
     4.7360   4.8657   4.9643   5.0611

     occupation numbers 
     1.0000   1.0000   1.0000   1.0000   1.0000   1.0000   1.0000   1.0000
     1.0000   1.0000   1.0000   1.0000   1.0000   1.0000   1.0000   1.0000
     1.0000   1.0000   1.0000   1.0000   1.0000   1.0000   1.0000   1.0000
     1.0000   1.0000   1.0000   1.0000   1.0000   1.0000   1.0000   1.0000
     1.0000   1.0000   1.0000   1.0000

          k = 0.1667 0.4811-0.1461 (  4182 PWs)   bands (ev):

   -10.7628 -10.7628 -10.6413 -10.6412   0.6145   0.6145   0.7529   0.7529
     0.9526   0.9526   1.1589   1.1589   1.2644   1.2644   1.3261   1.3262
     1.6715   1.6715   1.7697   1.7697   1.8971   1.8971   2.0295   2.0295
     2.4784   2.4784   2.9601   2.9602   3.7829   3.7830   4.0958   4.0958
     4.8422   4.8422   5.0043   5.0043

     occupation numbers 
     1.0000   1.0000   1.0000   1.0000   1.0000   1.0000   1.0000   1.0000
     1.0000   1.0000   1.0000   1.0000   1.0000   1.0000   1.0000   1.0000
     1.0000   1.0000   1.0000   1.0000   1.0000   1.0000   1.0000   1.0000
     1.0000   1.0000   1.0000   1.0000   1.0000   1.0000   1.0000   1.0000
     1.0000   1.0000   1.0000   1.0000

          k = 0.3333 0.5774 0.0000 (  4167 PWs)   bands (ev):

   -10.6520 -10.6520 -10.6475 -10.6474   0.6332   0.8095   0.8095   0.8925
     0.8926   1.0875   1.0875   1.3603   1.4731   1.4731   1.4792   1.4792
     1.6046   1.6586   1.6586   1.6945   1.9012   1.9012   2.0930   2.0930
     2.5307   2.5308   2.7282   2.7282   2.7834   3.7494   3.7495   4.2584
     4.2584   4.6432   4.7823   4.7823

     occupation numbers 
     1.0000   1.0000   1.0000   1.0000   1.0000   1.0000   1.0000   1.0000
     1.0000   1.0000   1.0000   1.0000   1.0000   1.0000   1.0000   1.0000
     1.0000   1.0000   1.0000   1.0000   1.0000   1.0000   1.0000   1.0000
     1.0000   1.0000   1.0000   1.0000   1.0000   1.0000   1.0000   1.0000
     1.0000   1.0000   1.0000   1.0000

          k = 0.3333 0.5774 0.0487 (  4161 PWs)   bands (ev):

   -10.6517 -10.6517 -10.6478 -10.6477   0.6406   0.8151   0.8251   0.8251
     0.9810   1.0644   1.0644   1.3339   1.4750   1.4750   1.4796   1.4796
     1.6088   1.6485   1.6682   1.6933   1.9156   1.9156   2.0805   2.0805
     2.5434   2.5434   2.7131   2.7131   2.8228   3.5190   3.9772   4.2961
     4.2961   4.6115   4.7489   4.7489

     occupation numbers 
     1.0000   1.0000   1.0000   1.0000   1.0000   1.0000   1.0000   1.0000
     1.0000   1.0000   1.0000   1.0000   1.0000   1.0000   1.0000   1.0000
     1.0000   1.0000   1.0000   1.0000   1.0000   1.0000   1.0000   1.0000
     1.0000   1.0000   1.0000   1.0000   1.0000   1.0000   1.0000   1.0000
     1.0000   1.0000   1.0000   1.0000

          k = 0.3333 0.5774 0.0974 (  4158 PWs)   bands (ev):

   -10.6509 -10.6509 -10.6486 -10.6486   0.6627   0.7503   0.8694   0.8694
     1.0060   1.0060   1.0771   1.2658   1.4782   1.4782   1.4801   1.4801
     1.6181   1.6383   1.6768   1.6898   1.9531   1.9531   2.0469   2.0469
     2.5776   2.5776   2.6741   2.6741   2.9334   3.2975   4.1899   4.3964
     4.3964   4.5193   4.6568   4.6568

     occupation numbers 
     1.0000   1.0000   1.0000   1.0000   1.0000   1.0000   1.0000   1.0000
     1.0000   1.0000   1.0000   1.0000   1.0000   1.0000   1.0000   1.0000
     1.0000   1.0000   1.0000   1.0000   1.0000   1.0000   1.0000   1.0000
     1.0000   1.0000   1.0000   1.0000   1.0000   1.0000   1.0000   1.0000
     1.0000   1.0000   1.0000   1.0000

          k = 0.3333 0.5774-0.1461 (  4188 PWs)   bands (ev):

   -10.6498 -10.6497 -10.6497 -10.6497   0.6991   0.6991   0.9342   0.9342
     0.9342   0.9342   1.1750   1.1751   1.4798   1.4798   1.4798   1.4798
     1.6281   1.6281   1.6841   1.6841   2.0008   2.0008   2.0008   2.0008
     2.6245   2.6245   2.6245   2.6245   3.0974   3.0975   4.3749   4.3749
     4.5286   4.5286   4.5286   4.5286

     occupation numbers 
     1.0000   1.0000   1.0000   1.0000   1.0000   1.0000   1.0000   1.0000
     1.0000   1.0000   1.0000   1.0000   1.0000   1.0000   1.0000   1.0000
     1.0000   1.0000   1.0000   1.0000   1.0000   1.0000   1.0000   1.0000
     1.0000   1.0000   1.0000   1.0000   1.0000   1.0000   1.0000   1.0000
     1.0000   1.0000   1.0000   1.0000

          k = 0.0000-0.1925 0.0487 (  4152 PWs)   bands (ev):

   -11.2404 -11.0767 -10.9540 -10.7822   0.5085   0.5407   0.6302   0.7139
     0.8318   0.8538   0.9008   0.9106   0.9109   0.9597   1.0455   1.0537
     1.6231   1.6750   1.7160   1.7338   1.7742   1.7743   1.8251   1.8736
     2.1246   3.3498   3.9955   4.5274   4.9429   4.9710   5.1467   5.2602
     5.4395   5.6499   5.7447   5.9340

     occupation numbers 
     1.0000   1.0000   1.0000   1.0000   1.0000   1.0000   1.0000   1.0000
     1.0000   1.0000   1.0000   1.0000   1.0000   1.0000   1.0000   1.0000
     1.0000   1.0000   1.0000   1.0000   1.0000   1.0000   1.0000   1.0000
     1.0000   1.0000   1.0000   1.0000   1.0000   1.0000   1.0000   1.0000
     1.0000   1.0000   1.0000   1.0000

          k = 0.0000-0.1925 0.0974 (  4151 PWs)   bands (ev):

   -11.2176 -11.1331 -10.8959 -10.8067   0.5261   0.5949   0.5974   0.7184
     0.8305   0.8408   0.8499   0.8758   0.9406   0.9899   1.0032   1.0393
     1.6382   1.6836   1.6868   1.7142   1.7921   1.8004   1.8182   1.8459
     2.3669   3.0064   4.2671   4.5363   4.8525   4.8594   5.1885   5.3404
     5.4125   5.6680   5.7472   5.8941

     occupation numbers 
     1.0000   1.0000   1.0000   1.0000   1.0000   1.0000   1.0000   1.0000
     1.0000   1.0000   1.0000   1.0000   1.0000   1.0000   1.0000   1.0000
     1.0000   1.0000   1.0000   1.0000   1.0000   1.0000   1.0000   1.0000
     1.0000   1.0000   1.0000   1.0000   1.0000   1.0000   1.0000   1.0000
     1.0000   1.0000   1.0000   1.0000

          k = 0.0000-0.3849 0.0487 (  4178 PWs)   bands (ev):

   -10.9552 -10.8465 -10.7673 -10.6602   0.4640   0.5170   0.5289   0.7600
     0.9138   1.0337   1.0617   1.1000   1.1035   1.1325   1.2853   1.2977
     1.6357   1.7266   1.7458   1.7758   1.8003   1.8053   1.8409   1.9755
     2.3747   2.9964   3.0848   3.2182   3.9362   4.3467   4.5677   4.8676
     4.9625   5.2391   5.2568   5.6085

     occupation numbers 
     1.0000   1.0000   1.0000   1.0000   1.0000   1.0000   1.0000   1.0000
     1.0000   1.0000   1.0000   1.0000   1.0000   1.0000   1.0000   1.0000
     1.0000   1.0000   1.0000   1.0000   1.0000   1.0000   1.0000   1.0000
     1.0000   1.0000   1.0000   1.0000   1.0000   1.0000   1.0000   1.0000
     1.0000   1.0000   1.0000   1.0000

          k = 0.0000-0.3849 0.0974 (  4181 PWs)   bands (ev):

   -10.9398 -10.8835 -10.7306 -10.6752   0.4645   0.4999   0.5934   0.7251
     0.9299   0.9910   1.0581   1.0871   1.1314   1.1821   1.2329   1.2623
     1.6411   1.6906   1.7499   1.7652   1.8130   1.8344   1.8453   1.9277
     2.5460   2.8644   3.1694   3.2803   3.9154   4.0974   4.6252   4.8307
     5.0582   5.2388   5.3659   5.5567

     occupation numbers 
     1.0000   1.0000   1.0000   1.0000   1.0000   1.0000   1.0000   1.0000
     1.0000   1.0000   1.0000   1.0000   1.0000   1.0000   1.0000   1.0000
     1.0000   1.0000   1.0000   1.0000   1.0000   1.0000   1.0000   1.0000
     1.0000   1.0000   1.0000   1.0000   1.0000   1.0000   1.0000   1.0000
     1.0000   1.0000   1.0000   1.0000

          k =-0.1667-0.4811 0.0487 (  4190 PWs)   bands (ev):

   -10.7865 -10.7228 -10.6783 -10.6206   0.5900   0.6355   0.6367   0.8656
     0.9496   0.9937   1.0931   1.2052   1.2339   1.2630   1.3002   1.4153
     1.6432   1.7195   1.7311   1.7721   1.8918   1.9175   1.9634   2.0771
     2.4164   2.6265   2.8059   2.9812   3.5610   3.8317   4.1496   4.4408
     4.6443   4.8416   4.8883   5.1177

     occupation numbers 
     1.0000   1.0000   1.0000   1.0000   1.0000   1.0000   1.0000   1.0000
     1.0000   1.0000   1.0000   1.0000   1.0000   1.0000   1.0000   1.0000
     1.0000   1.0000   1.0000   1.0000   1.0000   1.0000   1.0000   1.0000
     1.0000   1.0000   1.0000   1.0000   1.0000   1.0000   1.0000   1.0000
     1.0000   1.0000   1.0000   1.0000

          k =-0.1667-0.4811 0.0974 (  4193 PWs)   bands (ev):

   -10.7773 -10.7442 -10.6582 -10.6285   0.5977   0.6292   0.6896   0.8131
     0.9556   0.9626   1.1359   1.1791   1.2404   1.2864   1.2888   1.3739
     1.6496   1.7010   1.7495   1.7771   1.8932   1.9047   1.9955   2.0588
     2.4340   2.5453   2.8916   2.9925   3.6403   3.9333   3.9607   4.2948
     4.7360   4.8657   4.9643   5.0611

     occupation numbers 
     1.0000   1.0000   1.0000   1.0000   1.0000   1.0000   1.0000   1.0000
     1.0000   1.0000   1.0000   1.0000   1.0000   1.0000   1.0000   1.0000
     1.0000   1.0000   1.0000   1.0000   1.0000   1.0000   1.0000   1.0000
     1.0000   1.0000   1.0000   1.0000   1.0000   1.0000   1.0000   1.0000
     1.0000   1.0000   1.0000   1.0000

     highest occupied level (ev):     6.0961

!    total energy              =    -723.26047531 Ry
     estimated scf accuracy    <          5.8E-10 Ry

     The total energy is the sum of the following terms:
     one-electron contribution =    -321.44773188 Ry
     hartree contribution      =     240.84294550 Ry
     xc contribution           =    -218.84241142 Ry
     ewald contribution        =    -423.81327750 Ry

     convergence has been achieved in  32 iterations

     Forces acting on atoms (cartesian axes, Ry/au):

     atom    1 type  1   force =     0.00000000    0.00000000    0.00435858
     atom    2 type  2   force =     0.00000000   -0.00000000   -0.00435564
     atom    3 type  1   force =     0.00000000    0.00000000    0.00434384
     atom    4 type  2   force =     0.00000000   -0.00000000   -0.00435262
     atom    5 type  1   force =     0.00000000    0.00000000    0.00434301
     atom    6 type  2   force =     0.00000000    0.00000000   -0.00434985
     atom    7 type  1   force =     0.00000000    0.00000000    0.00436685
     atom    8 type  2   force =     0.00000000    0.00000000   -0.00435417
     The non-local contrib.  to forces
     atom    1 type  1   force =     0.00000000   -0.00000000   -0.07483125
     atom    2 type  2   force =     0.00000000    0.00000000   -0.06965423
     atom    3 type  1   force =     0.00000000   -0.00000000   -0.07484800
     atom    4 type  2   force =     0.00000000    0.00000000   -0.06964544
     atom    5 type  1   force =     0.00000000    0.00000000   -0.07485546
     atom    6 type  2   force =    -0.00000000   -0.00000000   -0.06964522
     atom    7 type  1   force =    -0.00000000    0.00000000   -0.07483169
     atom    8 type  2   force =     0.00000000    0.00000000   -0.06965572
     The ionic contribution  to forces
     atom    1 type  1   force =    -0.00000000    0.00000000   -0.67220833
     atom    2 type  2   force =     0.00000000   -0.00000000    0.67220833
     atom    3 type  1   force =     0.00000000   -0.00000000   -0.67220833
     atom    4 type  2   force =    -0.00000000    0.00000000    0.67220833
     atom    5 type  1   force =    -0.00000000    0.00000000   -0.67220833
     atom    6 type  2   force =     0.00000000   -0.00000000    0.67220833
     atom    7 type  1   force =     0.00000000   -0.00000000   -0.67220833
     atom    8 type  2   force =    -0.00000000    0.00000000    0.67220833
     The local contribution  to forces
     atom    1 type  1   force =    -0.00000000    0.00000000    0.74733778
     atom    2 type  2   force =     0.00000001   -0.00000001   -0.60749700
     atom    3 type  1   force =     0.00000004   -0.00000002    0.74735579
     atom    4 type  2   force =     0.00000000    0.00000000   -0.60749195
     atom    5 type  1   force =     0.00000000   -0.00000000    0.74737142
     atom    6 type  2   force =     0.00000001   -0.00000001   -0.60749258
     atom    7 type  1   force =     0.00000004   -0.00000002    0.74733065
     atom    8 type  2   force =    -0.00000000   -0.00000000   -0.60750005
     The core correction contribution to forces
     atom    1 type  1   force =    -0.00000000   -0.00000000    0.00405319
     atom    2 type  2   force =    -0.00000000    0.00000000    0.00058265
     atom    3 type  1   force =     0.00000001   -0.00000000    0.00405618
     atom    4 type  2   force =    -0.00000000    0.00000000    0.00058218
     atom    5 type  1   force =     0.00000000   -0.00000000    0.00406127
     atom    6 type  2   force =    -0.00000000    0.00000000    0.00058320
     atom    7 type  1   force =     0.00000001   -0.00000000    0.00405871
     atom    8 type  2   force =    -0.00000000    0.00000000    0.00058365
     The Hubbard contrib.    to forces
     atom    1 type  1   force =     0.00000000    0.00000000    0.00000000
     atom    2 type  2   force =     0.00000000    0.00000000    0.00000000
     atom    3 type  1   force =     0.00000000    0.00000000    0.00000000
     atom    4 type  2   force =     0.00000000    0.00000000    0.00000000
     atom    5 type  1   force =     0.00000000    0.00000000    0.00000000
     atom    6 type  2   force =     0.00000000    0.00000000    0.00000000
     atom    7 type  1   force =     0.00000000    0.00000000    0.00000000
     atom    8 type  2   force =     0.00000000    0.00000000    0.00000000
     The SCF correction term to forces
     atom    1 type  1   force =     0.00000000   -0.00000000    0.00000504
     atom    2 type  2   force =    -0.00000000    0.00000000    0.00000247
     atom    3 type  1   force =    -0.00000000    0.00000000   -0.00001394
     atom    4 type  2   force =     0.00000000   -0.00000000   -0.00000787
     atom    5 type  1   force =     0.00000000   -0.00000000   -0.00002803
     atom    6 type  2   force =    -0.00000000    0.00000000   -0.00000572
     atom    7 type  1   force =    -0.00000000    0.00000000    0.00001537
     atom    8 type  2   force =     0.00000000   -0.00000000    0.00000748

     Total force =     0.012312     Total SCF correction =     0.000037

     init_run     :      3.83s CPU      4.01s WALL (       1 calls)
     electrons    :    229.64s CPU    238.29s WALL (       1 calls)
     forces       :      1.20s CPU      1.21s WALL (       1 calls)

     Called by init_run:
     wfcinit      :      2.13s CPU      2.23s WALL (       1 calls)
     wfcinit:atom :      0.03s CPU      0.03s WALL (      17 calls)
     wfcinit:wfcr :      1.96s CPU      2.06s WALL (      17 calls)
     potinit      :      0.56s CPU      0.58s WALL (       1 calls)
     hinit0       :      0.99s CPU      1.01s WALL (       1 calls)

     Called by electrons:
     c_bands      :    199.84s CPU    207.11s WALL (      32 calls)
     sum_band     :     24.25s CPU     25.47s WALL (      32 calls)
     v_of_rho     :      2.05s CPU      2.15s WALL (      33 calls)
     v_h          :      0.13s CPU      0.14s WALL (      33 calls)
     v_xc         :      1.98s CPU      2.07s WALL (      34 calls)
     newd         :      3.10s CPU      3.16s WALL (      33 calls)
     mix_rho      :      0.36s CPU      0.39s WALL (      32 calls)

     Called by c_bands:
     init_us_2    :      1.43s CPU      1.46s WALL (    1122 calls)
     init_us_2:cp :      1.42s CPU      1.45s WALL (    1122 calls)
     cegterg      :    182.55s CPU    189.77s WALL (     544 calls)

     Called by sum_band:
     sum_band:wei :      0.00s CPU      0.00s WALL (      32 calls)
     sum_band:loo :     19.91s CPU     20.97s WALL (      32 calls)
     sum_band:buf :      0.10s CPU      0.11s WALL (     544 calls)
     sum_band:ini :      0.68s CPU      0.70s WALL (     544 calls)
     sum_band:cal :      2.46s CPU      2.52s WALL (     544 calls)
     sum_band:bec :      0.06s CPU      0.06s WALL (     544 calls)
     addusdens    :      3.62s CPU      3.73s WALL (      32 calls)
                                        0.00s GPU  (      32 calls)
     addusd:skk   :      0.03s CPU      0.03s WALL (      64 calls)
                                        0.00s GPU  (      64 calls)

     Called by *egterg:
     cdiaghg      :     14.04s CPU     14.08s WALL (    3275 calls)
     cegterg:over :      9.11s CPU      9.31s WALL (    2731 calls)
     cegterg:upda :      5.81s CPU      5.83s WALL (    2731 calls)
     cegterg:last :     13.23s CPU     13.25s WALL (    1758 calls)
     h_psi        :    128.65s CPU    135.61s WALL (    3292 calls)
     s_psi        :      9.89s CPU      9.92s WALL (    3292 calls)
     g_psi        :      0.57s CPU      0.57s WALL (    2731 calls)

     Called by h_psi:
     h_psi:calbec :      9.19s CPU      9.52s WALL (    3292 calls)
     vloc_psi     :    108.97s CPU    115.57s WALL (    3292 calls)
     add_vuspsi   :     10.13s CPU     10.16s WALL (    3292 calls)

     General routines
     calbec       :     11.94s CPU     12.34s WALL (    3904 calls)
     fft          :      1.50s CPU      1.64s WALL (     438 calls)
     ffts         :      0.22s CPU      0.23s WALL (      65 calls)
     fftw         :    108.25s CPU    114.88s WALL (  156746 calls)
     interpolate  :      0.28s CPU      0.30s WALL (      33 calls)

     Parallel routines

     PWSCF        :   3m55.13s CPU   4m 4.00s WALL


   This run was terminated on:  14: 2:23  13Jul2025            

=------------------------------------------------------------------------------=
   JOB DONE.
=------------------------------------------------------------------------------=
Note: The following floating-point exceptions are signalling: IEEE_INVALID_FLAG
Note: The following floating-point exceptions are signalling: IEEE_INVALID_FLAG
