
     Program PWSCF v.7.2 starts on 14Aug2025 at 11:22: 8 

     This program is part of the open-source Quantum ESPRESSO suite
     for quantum simulation of materials; please cite
         "P. Giannozzi et al., J. Phys.:Condens. Matter 21 395502 (2009);
         "P. Giannozzi et al., J. Phys.:Condens. Matter 29 465901 (2017);
         "P. Giannozzi et al., J. Chem. Phys. 152 154105 (2020);
          URL http://www.quantum-espresso.org", 
     in publications or presentations arising from this work. More details at
     http://www.quantum-espresso.org/quote

     Parallel version (MPI), running on    32 processors

     MPI processes distributed on     1 nodes
     123331 MiB available memory on the printing compute node when the environment starts

     Reading input from /home/jvc/QEspresso7.2/ZnO_database/scripts/cell323.in/ZnO-3.27-1.78-323.in
Warning: card &CELL ignored
Warning: card / ignored
Warning: card &FCP ignored
Warning: card / ignored
Warning: card &RISM ignored
Warning: card / ignored

     Current dimensions of program PWSCF are:
     Max number of different atomic species (ntypx) = 10
     Max number of k-points (npk) =  40000
     Max angular momentum in pseudopotentials (lmaxx) =  4
     file Zn.upf: wavefunction(s)  3D renormalized
     Found identity + (  0.0000  0.0000  0.3333) symmetry
     This is a supercell, fractional translations are disabled

     K-points division:     npool     =       4
     R & G space division:  proc/nbgrp/npool/nimage =       8
     Subspace diagonalization in iterative solution of the eigenvalue problem:
     one sub-group per band group will be used
     custom distributed-memory algorithm (size of sub-group:  2*  2 procs)


     Parallelization info
     --------------------
     sticks:   dense  smooth     PW     G-vecs:    dense   smooth      PW
     Min         788     394    104               100238    35448    4858
     Max         792     395    105               100240    35453    4863
     Sum        6311    3155    839               801909   283605   38887

     Using Slab Decomposition



     bravais-lattice index     =            0
     lattice parameter (alat)  =      18.5365  a.u.
     unit-cell volume          =    5936.3583 (a.u.)^3
     number of atoms/cell      =           72
     number of atomic types    =            2
     number of electrons       =       648.00
     number of Kohn-Sham states=          324
     kinetic-energy cutoff     =      50.0000  Ry
     charge density cutoff     =     400.0000  Ry
     scf convergence threshold =      1.0E-08
     mixing beta               =       0.3000
     number of iterations used =            8  plain     mixing
     Exchange-correlation= PBE
                           (   1   4   3   4   0   0   0)

     celldm(1)=  18.536466  celldm(2)=   0.000000  celldm(3)=   0.000000
     celldm(4)=   0.000000  celldm(5)=   0.000000  celldm(6)=   0.000000

     crystal axes: (cart. coord. in units of alat)
               a(1) = (   1.000000   0.000000   0.000000 )  
               a(2) = (  -0.333333   0.577350   0.000000 )  
               a(3) = (   0.000000   0.000000   1.614358 )  

     reciprocal axes: (cart. coord. in units 2 pi/alat)
               b(1) = (  1.000000  0.577350 -0.000000 )  
               b(2) = (  0.000000  1.732051  0.000000 )  
               b(3) = (  0.000000 -0.000000  0.619441 )  


     PseudoPot. # 1 for Zn read from file:
     /home/jvc/QEspresso7.2/ZnO_database/pseudos/Zn.upf
     MD5 check sum: 7f56cabf9682ed8c977c2f7d0c5985c5
     Pseudo is Ultrasoft + core correction, Zval = 12.0
     Generated using &quot;atomic&quot; code by A. Dal Corso  v.6.2.2
     Using radial grid of 1201 points,  6 beta functions with: 
                l(1) =   0
                l(2) =   0
                l(3) =   1
                l(4) =   1
                l(5) =   2
                l(6) =   2
     Q(r) pseudized with 0 coefficients 


     PseudoPot. # 2 for O  read from file:
     /home/jvc/QEspresso7.2/ZnO_database/pseudos/O.upf
     MD5 check sum: 91400c9766925bcf19f520983a725ff0
     Pseudo is Ultrasoft + core correction, Zval =  6.0
     Generated using &quot;atomic&quot; code by A. Dal Corso  v.6.3MaX
     Using radial grid of 1095 points,  4 beta functions with: 
                l(1) =   0
                l(2) =   0
                l(3) =   1
                l(4) =   1
     Q(r) pseudized with 0 coefficients 


     atomic species   valence    mass     pseudopotential
        Zn            12.00    65.38000     Zn( 1.00)
        O              6.00    15.99900     O ( 1.00)

     No symmetry found


                                    s                        frac. trans.

      isym =  1     identity                                     

 cryst.   s( 1) = (     1          0          0      )
                  (     0          1          0      )
                  (     0          0          1      )

 cart.    s( 1) = (  1.0000000  0.0000000  0.0000000 )
                  (  0.0000000  1.0000000  0.0000000 )
                  (  0.0000000  0.0000000  1.0000000 )


   Cartesian axes

     site n.     atom                  positions (alat units)
         1           Zn  tau(   1) = (   0.1666667   0.0962250   0.2694007  )
         2           Zn  tau(   2) = (   0.0000000   0.1924501   0.0003409  )
         3           O   tau(   3) = (   0.1666667   0.0962250   0.4733710  )
         4           O   tau(   4) = (   0.0000000   0.1924501   0.2043113  )
         5           Zn  tau(   5) = (   0.1666667   0.0962250   0.8075201  )
         6           Zn  tau(   6) = (   0.0000000   0.1924501   0.5384604  )
         7           O   tau(   7) = (   0.1666667   0.0962250   1.0114904  )
         8           O   tau(   8) = (   0.0000000   0.1924501   0.7424307  )
         9           Zn  tau(   9) = (   0.1666667   0.0962250   1.3456396  )
        10           Zn  tau(  10) = (   0.0000000   0.1924501   1.0765798  )
        11           O   tau(  11) = (   0.1666667   0.0962250   1.5496099  )
        12           O   tau(  12) = (   0.0000000   0.1924501   1.2805502  )
        13           Zn  tau(  13) = (   0.0000000   0.3849002   0.2694007  )
        14           Zn  tau(  14) = (  -0.1666667   0.4811252   0.0003409  )
        15           O   tau(  15) = (   0.0000000   0.3849002   0.4733710  )
        16           O   tau(  16) = (  -0.1666667   0.4811252   0.2043113  )
        17           Zn  tau(  17) = (   0.0000000   0.3849002   0.8075201  )
        18           Zn  tau(  18) = (  -0.1666667   0.4811252   0.5384604  )
        19           O   tau(  19) = (   0.0000000   0.3849002   1.0114904  )
        20           O   tau(  20) = (  -0.1666667   0.4811252   0.7424307  )
        21           Zn  tau(  21) = (   0.0000000   0.3849002   1.3456396  )
        22           Zn  tau(  22) = (  -0.1666667   0.4811252   1.0765798  )
        23           O   tau(  23) = (   0.0000000   0.3849002   1.5496099  )
        24           O   tau(  24) = (  -0.1666667   0.4811252   1.2805502  )
        25           Zn  tau(  25) = (   0.5000000   0.0962250   0.2694007  )
        26           Zn  tau(  26) = (   0.3333333   0.1924501   0.0003409  )
        27           O   tau(  27) = (   0.5000000   0.0962250   0.4733710  )
        28           O   tau(  28) = (   0.3333333   0.1924501   0.2043113  )
        29           Zn  tau(  29) = (   0.5000000   0.0962250   0.8075201  )
        30           Zn  tau(  30) = (   0.3333333   0.1924501   0.5384604  )
        31           O   tau(  31) = (   0.5000000   0.0962250   1.0114904  )
        32           O   tau(  32) = (   0.3333333   0.1924501   0.7424307  )
        33           Zn  tau(  33) = (   0.5000000   0.0962250   1.3456396  )
        34           Zn  tau(  34) = (   0.3333333   0.1924501   1.0765798  )
        35           O   tau(  35) = (   0.5000000   0.0962250   1.5496099  )
        36           O   tau(  36) = (   0.3333333   0.1924501   1.2805502  )
        37           Zn  tau(  37) = (   0.3333333   0.3849002   0.2694007  )
        38           Zn  tau(  38) = (   0.1666667   0.4811252   0.0003409  )
        39           O   tau(  39) = (   0.3333333   0.3849002   0.4733710  )
        40           O   tau(  40) = (   0.1666667   0.4811252   0.2043113  )
        41           Zn  tau(  41) = (   0.3333333   0.3849002   0.8075201  )
        42           Zn  tau(  42) = (   0.1666667   0.4811252   0.5384604  )
        43           O   tau(  43) = (   0.3333333   0.3849002   1.0114904  )
        44           O   tau(  44) = (   0.1666667   0.4811252   0.7424307  )
        45           Zn  tau(  45) = (   0.3333333   0.3849002   1.3456396  )
        46           Zn  tau(  46) = (   0.1666667   0.4811252   1.0765798  )
        47           O   tau(  47) = (   0.3333333   0.3849002   1.5496099  )
        48           O   tau(  48) = (   0.1666667   0.4811252   1.2805502  )
        49           Zn  tau(  49) = (   0.8333333   0.0962250   0.2694007  )
        50           Zn  tau(  50) = (   0.6666667   0.1924501   0.0003409  )
        51           O   tau(  51) = (   0.8333333   0.0962250   0.4733710  )
        52           O   tau(  52) = (   0.6666667   0.1924501   0.2043113  )
        53           Zn  tau(  53) = (   0.8333333   0.0962250   0.8075201  )
        54           Zn  tau(  54) = (   0.6666667   0.1924501   0.5384604  )
        55           O   tau(  55) = (   0.8333333   0.0962250   1.0114904  )
        56           O   tau(  56) = (   0.6666667   0.1924501   0.7424307  )
        57           Zn  tau(  57) = (   0.8333333   0.0962250   1.3456396  )
        58           Zn  tau(  58) = (   0.6666667   0.1924501   1.0765798  )
        59           O   tau(  59) = (   0.8333333   0.0962250   1.5496099  )
        60           O   tau(  60) = (   0.6666667   0.1924501   1.2805502  )
        61           Zn  tau(  61) = (   0.6666667   0.3849002   0.2694007  )
        62           Zn  tau(  62) = (   0.5000000   0.4811252   0.0003409  )
        63           O   tau(  63) = (   0.6666667   0.3849002   0.4733710  )
        64           O   tau(  64) = (   0.5000000   0.4811252   0.2043113  )
        65           Zn  tau(  65) = (   0.6666667   0.3849002   0.8075201  )
        66           Zn  tau(  66) = (   0.5000000   0.4811252   0.5384604  )
        67           O   tau(  67) = (   0.6666667   0.3849002   1.0114904  )
        68           O   tau(  68) = (   0.5000000   0.4811252   0.7424307  )
        69           Zn  tau(  69) = (   0.6666667   0.3849002   1.3456396  )
        70           Zn  tau(  70) = (   0.5000000   0.4811252   1.0765798  )
        71           O   tau(  71) = (   0.6666667   0.3849002   1.5496099  )
        72           O   tau(  72) = (   0.5000000   0.4811252   1.2805502  )

   Crystallographic axes

     site n.     atom                  positions (cryst. coord.)
         1           Zn  tau(   1) = (  0.2222222  0.1666667  0.1668779  )
         2           Zn  tau(   2) = (  0.1111111  0.3333333  0.0002112  )
         3           O   tau(   3) = (  0.2222222  0.1666667  0.2932255  )
         4           O   tau(   4) = (  0.1111111  0.3333333  0.1265588  )
         5           Zn  tau(   5) = (  0.2222222  0.1666667  0.5002112  )
         6           Zn  tau(   6) = (  0.1111111  0.3333333  0.3335445  )
         7           O   tau(   7) = (  0.2222222  0.1666667  0.6265588  )
         8           O   tau(   8) = (  0.1111111  0.3333333  0.4598921  )
         9           Zn  tau(   9) = (  0.2222222  0.1666667  0.8335445  )
        10           Zn  tau(  10) = (  0.1111111  0.3333333  0.6668779  )
        11           O   tau(  11) = (  0.2222222  0.1666667  0.9598921  )
        12           O   tau(  12) = (  0.1111111  0.3333333  0.7932255  )
        13           Zn  tau(  13) = (  0.2222222  0.6666667  0.1668779  )
        14           Zn  tau(  14) = (  0.1111111  0.8333333  0.0002112  )
        15           O   tau(  15) = (  0.2222222  0.6666667  0.2932255  )
        16           O   tau(  16) = (  0.1111111  0.8333333  0.1265588  )
        17           Zn  tau(  17) = (  0.2222222  0.6666667  0.5002112  )
        18           Zn  tau(  18) = (  0.1111111  0.8333333  0.3335445  )
        19           O   tau(  19) = (  0.2222222  0.6666667  0.6265588  )
        20           O   tau(  20) = (  0.1111111  0.8333333  0.4598921  )
        21           Zn  tau(  21) = (  0.2222222  0.6666667  0.8335445  )
        22           Zn  tau(  22) = (  0.1111111  0.8333333  0.6668779  )
        23           O   tau(  23) = (  0.2222222  0.6666667  0.9598921  )
        24           O   tau(  24) = (  0.1111111  0.8333333  0.7932255  )
        25           Zn  tau(  25) = (  0.5555556  0.1666667  0.1668779  )
        26           Zn  tau(  26) = (  0.4444444  0.3333333  0.0002112  )
        27           O   tau(  27) = (  0.5555556  0.1666667  0.2932255  )
        28           O   tau(  28) = (  0.4444444  0.3333333  0.1265588  )
        29           Zn  tau(  29) = (  0.5555556  0.1666667  0.5002112  )
        30           Zn  tau(  30) = (  0.4444444  0.3333333  0.3335445  )
        31           O   tau(  31) = (  0.5555556  0.1666667  0.6265588  )
        32           O   tau(  32) = (  0.4444444  0.3333333  0.4598921  )
        33           Zn  tau(  33) = (  0.5555556  0.1666667  0.8335445  )
        34           Zn  tau(  34) = (  0.4444444  0.3333333  0.6668779  )
        35           O   tau(  35) = (  0.5555556  0.1666667  0.9598921  )
        36           O   tau(  36) = (  0.4444444  0.3333333  0.7932255  )
        37           Zn  tau(  37) = (  0.5555556  0.6666667  0.1668779  )
        38           Zn  tau(  38) = (  0.4444444  0.8333333  0.0002112  )
        39           O   tau(  39) = (  0.5555556  0.6666667  0.2932255  )
        40           O   tau(  40) = (  0.4444444  0.8333333  0.1265588  )
        41           Zn  tau(  41) = (  0.5555556  0.6666667  0.5002112  )
        42           Zn  tau(  42) = (  0.4444444  0.8333333  0.3335445  )
        43           O   tau(  43) = (  0.5555556  0.6666667  0.6265588  )
        44           O   tau(  44) = (  0.4444444  0.8333333  0.4598921  )
        45           Zn  tau(  45) = (  0.5555556  0.6666667  0.8335445  )
        46           Zn  tau(  46) = (  0.4444444  0.8333333  0.6668779  )
        47           O   tau(  47) = (  0.5555556  0.6666667  0.9598921  )
        48           O   tau(  48) = (  0.4444444  0.8333333  0.7932255  )
        49           Zn  tau(  49) = (  0.8888889  0.1666667  0.1668779  )
        50           Zn  tau(  50) = (  0.7777778  0.3333333  0.0002112  )
        51           O   tau(  51) = (  0.8888889  0.1666667  0.2932255  )
        52           O   tau(  52) = (  0.7777778  0.3333333  0.1265588  )
        53           Zn  tau(  53) = (  0.8888889  0.1666667  0.5002112  )
        54           Zn  tau(  54) = (  0.7777778  0.3333333  0.3335445  )
        55           O   tau(  55) = (  0.8888889  0.1666667  0.6265588  )
        56           O   tau(  56) = (  0.7777778  0.3333333  0.4598921  )
        57           Zn  tau(  57) = (  0.8888889  0.1666667  0.8335445  )
        58           Zn  tau(  58) = (  0.7777778  0.3333333  0.6668779  )
        59           O   tau(  59) = (  0.8888889  0.1666667  0.9598921  )
        60           O   tau(  60) = (  0.7777778  0.3333333  0.7932255  )
        61           Zn  tau(  61) = (  0.8888889  0.6666667  0.1668779  )
        62           Zn  tau(  62) = (  0.7777778  0.8333333  0.0002112  )
        63           O   tau(  63) = (  0.8888889  0.6666667  0.2932255  )
        64           O   tau(  64) = (  0.7777778  0.8333333  0.1265588  )
        65           Zn  tau(  65) = (  0.8888889  0.6666667  0.5002112  )
        66           Zn  tau(  66) = (  0.7777778  0.8333333  0.3335445  )
        67           O   tau(  67) = (  0.8888889  0.6666667  0.6265588  )
        68           O   tau(  68) = (  0.7777778  0.8333333  0.4598921  )
        69           Zn  tau(  69) = (  0.8888889  0.6666667  0.8335445  )
        70           Zn  tau(  70) = (  0.7777778  0.8333333  0.6668779  )
        71           O   tau(  71) = (  0.8888889  0.6666667  0.9598921  )
        72           O   tau(  72) = (  0.7777778  0.8333333  0.7932255  )

     number of k points=     8
                       cart. coord. in units 2pi/alat
        k(    1) = (   0.0000000   0.0000000   0.0000000), wk =   0.1666667
        k(    2) = (   0.0000000   0.0000000  -0.3097206), wk =   0.1666667
        k(    3) = (   0.0000000   0.5773503   0.0000000), wk =   0.3333333
        k(    4) = (   0.0000000   0.5773503  -0.3097206), wk =   0.3333333
        k(    5) = (  -0.5000000  -0.2886751   0.0000000), wk =   0.1666667
        k(    6) = (  -0.5000000  -0.2886751  -0.3097206), wk =   0.1666667
        k(    7) = (  -0.5000000   0.2886751   0.0000000), wk =   0.3333333
        k(    8) = (  -0.5000000   0.2886751  -0.3097206), wk =   0.3333333

                       cryst. coord.
        k(    1) = (   0.0000000   0.0000000   0.0000000), wk =   0.1666667
        k(    2) = (   0.0000000   0.0000000  -0.5000000), wk =   0.1666667
        k(    3) = (   0.0000000   0.3333333   0.0000000), wk =   0.3333333
        k(    4) = (   0.0000000   0.3333333  -0.5000000), wk =   0.3333333
        k(    5) = (  -0.5000000  -0.0000000   0.0000000), wk =   0.1666667
        k(    6) = (  -0.5000000  -0.0000000  -0.5000000), wk =   0.1666667
        k(    7) = (  -0.5000000   0.3333333   0.0000000), wk =   0.3333333
        k(    8) = (  -0.5000000   0.3333333  -0.5000000), wk =   0.3333333

     Dense  grid:   801909 G-vectors     FFT dimensions: ( 120,  80, 192)

     Smooth grid:   283605 G-vectors     FFT dimensions: (  90,  60, 135)

     Dynamical RAM for                 wfc:      21.90 MB

     Dynamical RAM for     wfc (w. buffer):      65.70 MB

     Dynamical RAM for           str. fact:       3.06 MB

     Dynamical RAM for           local pot:       0.00 MB

     Dynamical RAM for          nlocal pot:      63.27 MB

     Dynamical RAM for                qrad:       3.21 MB

     Dynamical RAM for          rho,v,vnew:       9.86 MB

     Dynamical RAM for               rhoin:       3.29 MB

     Dynamical RAM for            rho*nmix:      24.47 MB

     Dynamical RAM for           G-vectors:       6.01 MB

     Dynamical RAM for          h,s,v(r/c):       4.81 MB

     Dynamical RAM for          <psi|beta>:       4.63 MB

     Dynamical RAM for                 psi:      43.80 MB

     Dynamical RAM for                hpsi:      43.80 MB

     Dynamical RAM for                spsi:      43.80 MB

     Dynamical RAM for      wfcinit/wfcrot:      68.29 MB

     Dynamical RAM for           addusdens:      86.04 MB

     Dynamical RAM for          addusforce:     112.56 MB

     Estimated static dynamical RAM per process >     167.78 MB

     Estimated max dynamical RAM per process >     333.09 MB

     Estimated total dynamical RAM >       9.84 GB

     Check: negative core charge=   -0.000002

     Initial potential from superposition of free atoms

     starting charge     647.8659, renormalised to     648.0000
     Starting wfcs are  468 randomized atomic wfcs

     total cpu time spent up to now is       29.3 secs

     Self-consistent Calculation

     iteration #  1     ecut=    50.00 Ry     beta= 0.30
     Davidson diagonalization with overlap

---- Real-time Memory Report at c_bands before calling an iterative solver
           258 MiB given to the printing process from OS
             0 MiB allocation reported by mallinfo(arena+hblkhd)
        118278 MiB available memory on the node where the printing process lives
------------------
     ethr =  1.00E-02,  avg # of iterations =  2.0

     total cpu time spent up to now is       64.5 secs

     total energy              =   -6506.63553669 Ry
     estimated scf accuracy    <      12.42249587 Ry

     iteration #  2     ecut=    50.00 Ry     beta= 0.30
     Davidson diagonalization with overlap

---- Real-time Memory Report at c_bands before calling an iterative solver
           353 MiB given to the printing process from OS
             0 MiB allocation reported by mallinfo(arena+hblkhd)
        115408 MiB available memory on the node where the printing process lives
------------------
     ethr =  1.92E-03,  avg # of iterations =  2.0

     total cpu time spent up to now is      109.5 secs

     total energy              =   -6508.44604783 Ry
     estimated scf accuracy    <       1.56901133 Ry

     iteration #  3     ecut=    50.00 Ry     beta= 0.30
     Davidson diagonalization with overlap

---- Real-time Memory Report at c_bands before calling an iterative solver
           371 MiB given to the printing process from OS
             0 MiB allocation reported by mallinfo(arena+hblkhd)
        115340 MiB available memory on the node where the printing process lives
------------------
     ethr =  2.42E-04,  avg # of iterations =  8.8

     total cpu time spent up to now is      199.6 secs

     total energy              =   -6509.03710284 Ry
     estimated scf accuracy    <       0.95457503 Ry

     iteration #  4     ecut=    50.00 Ry     beta= 0.30
     Davidson diagonalization with overlap

---- Real-time Memory Report at c_bands before calling an iterative solver
           373 MiB given to the printing process from OS
             0 MiB allocation reported by mallinfo(arena+hblkhd)
        115436 MiB available memory on the node where the printing process lives
------------------
     ethr =  1.47E-04,  avg # of iterations =  9.6

     total cpu time spent up to now is      307.6 secs

     total energy              =   -6509.56186780 Ry
     estimated scf accuracy    <       3.49517160 Ry

     iteration #  5     ecut=    50.00 Ry     beta= 0.30
     Davidson diagonalization with overlap

---- Real-time Memory Report at c_bands before calling an iterative solver
           374 MiB given to the printing process from OS
             0 MiB allocation reported by mallinfo(arena+hblkhd)
        115088 MiB available memory on the node where the printing process lives
------------------
     ethr =  1.47E-04,  avg # of iterations =  2.0

     total cpu time spent up to now is      343.9 secs

     total energy              =   -6508.18561199 Ry
     estimated scf accuracy    <       1.88627673 Ry

     iteration #  6     ecut=    50.00 Ry     beta= 0.30
     Davidson diagonalization with overlap

---- Real-time Memory Report at c_bands before calling an iterative solver
           375 MiB given to the printing process from OS
             0 MiB allocation reported by mallinfo(arena+hblkhd)
        115322 MiB available memory on the node where the printing process lives
------------------
     ethr =  1.47E-04,  avg # of iterations = 13.0

     total cpu time spent up to now is      483.2 secs

     total energy              =   -6507.08767380 Ry
     estimated scf accuracy    <      22.51931594 Ry

     iteration #  7     ecut=    50.00 Ry     beta= 0.30
     Davidson diagonalization with overlap

---- Real-time Memory Report at c_bands before calling an iterative solver
           376 MiB given to the printing process from OS
             0 MiB allocation reported by mallinfo(arena+hblkhd)
        115516 MiB available memory on the node where the printing process lives
------------------
     ethr =  1.47E-04,  avg # of iterations = 12.8

     total cpu time spent up to now is      610.0 secs

     total energy              =   -6509.44457268 Ry
     estimated scf accuracy    <       1.01731812 Ry

     iteration #  8     ecut=    50.00 Ry     beta= 0.30
     Davidson diagonalization with overlap

---- Real-time Memory Report at c_bands before calling an iterative solver
           377 MiB given to the printing process from OS
             0 MiB allocation reported by mallinfo(arena+hblkhd)
        115293 MiB available memory on the node where the printing process lives
------------------
     ethr =  1.47E-04,  avg # of iterations =  2.0

     total cpu time spent up to now is      645.8 secs

     total energy              =   -6509.38591519 Ry
     estimated scf accuracy    <       0.58230722 Ry

     iteration #  9     ecut=    50.00 Ry     beta= 0.30
     Davidson diagonalization with overlap

---- Real-time Memory Report at c_bands before calling an iterative solver
           378 MiB given to the printing process from OS
             0 MiB allocation reported by mallinfo(arena+hblkhd)
        115232 MiB available memory on the node where the printing process lives
------------------
     ethr =  8.99E-05,  avg # of iterations =  3.0

     total cpu time spent up to now is      688.9 secs

     total energy              =   -6509.39905446 Ry
     estimated scf accuracy    <       0.20347838 Ry

     iteration # 10     ecut=    50.00 Ry     beta= 0.30
     Davidson diagonalization with overlap

---- Real-time Memory Report at c_bands before calling an iterative solver
           379 MiB given to the printing process from OS
             0 MiB allocation reported by mallinfo(arena+hblkhd)
        115310 MiB available memory on the node where the printing process lives
------------------
     ethr =  3.14E-05,  avg # of iterations =  6.8

     total cpu time spent up to now is      746.5 secs

     total energy              =   -6509.45683657 Ry
     estimated scf accuracy    <       0.01067222 Ry

     iteration # 11     ecut=    50.00 Ry     beta= 0.30
     Davidson diagonalization with overlap

---- Real-time Memory Report at c_bands before calling an iterative solver
           380 MiB given to the printing process from OS
             0 MiB allocation reported by mallinfo(arena+hblkhd)
        115316 MiB available memory on the node where the printing process lives
------------------
     ethr =  1.65E-06,  avg # of iterations =  7.1

     total cpu time spent up to now is      817.5 secs

     total energy              =   -6509.46746243 Ry
     estimated scf accuracy    <       0.00106259 Ry

     iteration # 12     ecut=    50.00 Ry     beta= 0.30
     Davidson diagonalization with overlap

---- Real-time Memory Report at c_bands before calling an iterative solver
           380 MiB given to the printing process from OS
             0 MiB allocation reported by mallinfo(arena+hblkhd)
        115328 MiB available memory on the node where the printing process lives
------------------
     ethr =  1.64E-07,  avg # of iterations = 11.2

     total cpu time spent up to now is      943.8 secs

     total energy              =   -6509.46391158 Ry
     estimated scf accuracy    <       0.02531315 Ry

     iteration # 13     ecut=    50.00 Ry     beta= 0.30
     Davidson diagonalization with overlap

---- Real-time Memory Report at c_bands before calling an iterative solver
           380 MiB given to the printing process from OS
             0 MiB allocation reported by mallinfo(arena+hblkhd)
        115220 MiB available memory on the node where the printing process lives
------------------
     ethr =  1.64E-07,  avg # of iterations =  9.2

     total cpu time spent up to now is     1044.7 secs

     total energy              =   -6509.46421497 Ry
     estimated scf accuracy    <       0.00577121 Ry

     iteration # 14     ecut=    50.00 Ry     beta= 0.30
     Davidson diagonalization with overlap

---- Real-time Memory Report at c_bands before calling an iterative solver
           380 MiB given to the printing process from OS
             0 MiB allocation reported by mallinfo(arena+hblkhd)
        115047 MiB available memory on the node where the printing process lives
------------------
     ethr =  1.64E-07,  avg # of iterations =  6.9

     total cpu time spent up to now is     1090.0 secs

     total energy              =   -6509.46279643 Ry
     estimated scf accuracy    <       0.00350858 Ry

     iteration # 15     ecut=    50.00 Ry     beta= 0.30
     Davidson diagonalization with overlap

---- Real-time Memory Report at c_bands before calling an iterative solver
           380 MiB given to the printing process from OS
             0 MiB allocation reported by mallinfo(arena+hblkhd)
        115367 MiB available memory on the node where the printing process lives
------------------
     ethr =  1.64E-07,  avg # of iterations =  9.0

     total cpu time spent up to now is     1187.3 secs

     total energy              =   -6509.46394670 Ry
     estimated scf accuracy    <       0.00016876 Ry

     iteration # 16     ecut=    50.00 Ry     beta= 0.30
     Davidson diagonalization with overlap

---- Real-time Memory Report at c_bands before calling an iterative solver
           380 MiB given to the printing process from OS
             0 MiB allocation reported by mallinfo(arena+hblkhd)
        115559 MiB available memory on the node where the printing process lives
------------------
     ethr =  2.60E-08,  avg # of iterations =  4.5

     total cpu time spent up to now is     1235.2 secs

     total energy              =   -6509.46396276 Ry
     estimated scf accuracy    <       0.00003663 Ry

     iteration # 17     ecut=    50.00 Ry     beta= 0.30
     Davidson diagonalization with overlap

---- Real-time Memory Report at c_bands before calling an iterative solver
           380 MiB given to the printing process from OS
             0 MiB allocation reported by mallinfo(arena+hblkhd)
        115437 MiB available memory on the node where the printing process lives
------------------
     ethr =  5.65E-09,  avg # of iterations =  7.2

     total cpu time spent up to now is     1306.1 secs

     total energy              =   -6509.46399058 Ry
     estimated scf accuracy    <       0.00000234 Ry

     iteration # 18     ecut=    50.00 Ry     beta= 0.30
     Davidson diagonalization with overlap

---- Real-time Memory Report at c_bands before calling an iterative solver
           380 MiB given to the printing process from OS
             0 MiB allocation reported by mallinfo(arena+hblkhd)
        115392 MiB available memory on the node where the printing process lives
------------------
     ethr =  3.61E-10,  avg # of iterations = 17.8

     total cpu time spent up to now is     1458.0 secs

     total energy              =   -6509.46400463 Ry
     estimated scf accuracy    <       0.00010908 Ry

     iteration # 19     ecut=    50.00 Ry     beta= 0.30
     Davidson diagonalization with overlap

---- Real-time Memory Report at c_bands before calling an iterative solver
           380 MiB given to the printing process from OS
             0 MiB allocation reported by mallinfo(arena+hblkhd)
        115366 MiB available memory on the node where the printing process lives
------------------
     ethr =  3.61E-10,  avg # of iterations =  2.0

     total cpu time spent up to now is     1496.0 secs

     total energy              =   -6509.46400278 Ry
     estimated scf accuracy    <       0.00009826 Ry

     iteration # 20     ecut=    50.00 Ry     beta= 0.30
     Davidson diagonalization with overlap

---- Real-time Memory Report at c_bands before calling an iterative solver
           380 MiB given to the printing process from OS
             0 MiB allocation reported by mallinfo(arena+hblkhd)
        115111 MiB available memory on the node where the printing process lives
------------------
     ethr =  3.61E-10,  avg # of iterations =  5.4

     total cpu time spent up to now is     1553.1 secs

     total energy              =   -6509.46398463 Ry
     estimated scf accuracy    <       0.00008537 Ry

     iteration # 21     ecut=    50.00 Ry     beta= 0.30
     Davidson diagonalization with overlap

---- Real-time Memory Report at c_bands before calling an iterative solver
           380 MiB given to the printing process from OS
             0 MiB allocation reported by mallinfo(arena+hblkhd)
        115363 MiB available memory on the node where the printing process lives
------------------
     ethr =  3.61E-10,  avg # of iterations =  9.8

     total cpu time spent up to now is     1660.6 secs

     total energy              =   -6509.46398464 Ry
     estimated scf accuracy    <       0.00002509 Ry

     iteration # 22     ecut=    50.00 Ry     beta= 0.30
     Davidson diagonalization with overlap

---- Real-time Memory Report at c_bands before calling an iterative solver
           380 MiB given to the printing process from OS
             0 MiB allocation reported by mallinfo(arena+hblkhd)
        115273 MiB available memory on the node where the printing process lives
------------------
     ethr =  3.61E-10,  avg # of iterations =  6.5

     total cpu time spent up to now is     1704.8 secs

     total energy              =   -6509.46397259 Ry
     estimated scf accuracy    <       0.00001748 Ry

     iteration # 23     ecut=    50.00 Ry     beta= 0.30
     Davidson diagonalization with overlap

---- Real-time Memory Report at c_bands before calling an iterative solver
           380 MiB given to the printing process from OS
             0 MiB allocation reported by mallinfo(arena+hblkhd)
        115118 MiB available memory on the node where the printing process lives
------------------
     ethr =  3.61E-10,  avg # of iterations = 16.2

     total cpu time spent up to now is     1853.5 secs

     total energy              =   -6509.46399772 Ry
     estimated scf accuracy    <       0.00002906 Ry

     iteration # 24     ecut=    50.00 Ry     beta= 0.30
     Davidson diagonalization with overlap

---- Real-time Memory Report at c_bands before calling an iterative solver
           381 MiB given to the printing process from OS
             0 MiB allocation reported by mallinfo(arena+hblkhd)
        115293 MiB available memory on the node where the printing process lives
------------------
     ethr =  3.61E-10,  avg # of iterations =  6.6

     total cpu time spent up to now is     1931.8 secs

     total energy              =   -6509.46398577 Ry
     estimated scf accuracy    <       0.00006434 Ry

     iteration # 25     ecut=    50.00 Ry     beta= 0.30
     Davidson diagonalization with overlap

---- Real-time Memory Report at c_bands before calling an iterative solver
           381 MiB given to the printing process from OS
             0 MiB allocation reported by mallinfo(arena+hblkhd)
        115303 MiB available memory on the node where the printing process lives
------------------
     ethr =  3.61E-10,  avg # of iterations =  7.4

     total cpu time spent up to now is     2022.6 secs

     total energy              =   -6509.46398341 Ry
     estimated scf accuracy    <       0.00002327 Ry

     iteration # 26     ecut=    50.00 Ry     beta= 0.30
     Davidson diagonalization with overlap

---- Real-time Memory Report at c_bands before calling an iterative solver
           381 MiB given to the printing process from OS
             0 MiB allocation reported by mallinfo(arena+hblkhd)
        115293 MiB available memory on the node where the printing process lives
------------------
     ethr =  3.61E-10,  avg # of iterations =  6.4

     total cpu time spent up to now is     2083.0 secs

     total energy              =   -6509.46398169 Ry
     estimated scf accuracy    <       0.00000961 Ry

     iteration # 27     ecut=    50.00 Ry     beta= 0.30
     Davidson diagonalization with overlap

---- Real-time Memory Report at c_bands before calling an iterative solver
           381 MiB given to the printing process from OS
             0 MiB allocation reported by mallinfo(arena+hblkhd)
        115298 MiB available memory on the node where the printing process lives
------------------
     ethr =  3.61E-10,  avg # of iterations =  6.4

     total cpu time spent up to now is     2148.6 secs

     total energy              =   -6509.46398182 Ry
     estimated scf accuracy    <       0.00000212 Ry

     iteration # 28     ecut=    50.00 Ry     beta= 0.30
     Davidson diagonalization with overlap

---- Real-time Memory Report at c_bands before calling an iterative solver
           381 MiB given to the printing process from OS
             0 MiB allocation reported by mallinfo(arena+hblkhd)
        115341 MiB available memory on the node where the printing process lives
------------------
     ethr =  3.28E-10,  avg # of iterations =  4.8

     total cpu time spent up to now is     2196.7 secs

     total energy              =   -6509.46398183 Ry
     estimated scf accuracy    <       0.00000051 Ry

     iteration # 29     ecut=    50.00 Ry     beta= 0.30
     Davidson diagonalization with overlap

---- Real-time Memory Report at c_bands before calling an iterative solver
           381 MiB given to the printing process from OS
             0 MiB allocation reported by mallinfo(arena+hblkhd)
        115202 MiB available memory on the node where the printing process lives
------------------
     ethr =  7.93E-11,  avg # of iterations =  8.9

     total cpu time spent up to now is     2284.4 secs

     total energy              =   -6509.46398228 Ry
     estimated scf accuracy    <       0.00000036 Ry

     iteration # 30     ecut=    50.00 Ry     beta= 0.30
     Davidson diagonalization with overlap

---- Real-time Memory Report at c_bands before calling an iterative solver
           381 MiB given to the printing process from OS
             0 MiB allocation reported by mallinfo(arena+hblkhd)
        115537 MiB available memory on the node where the printing process lives
------------------
     ethr =  5.61E-11,  avg # of iterations =  1.6

     total cpu time spent up to now is     2318.9 secs

     total energy              =   -6509.46398217 Ry
     estimated scf accuracy    <       0.00000023 Ry

     iteration # 31     ecut=    50.00 Ry     beta= 0.30
     Davidson diagonalization with overlap

---- Real-time Memory Report at c_bands before calling an iterative solver
           381 MiB given to the printing process from OS
             0 MiB allocation reported by mallinfo(arena+hblkhd)
        115321 MiB available memory on the node where the printing process lives
------------------
     ethr =  3.49E-11,  avg # of iterations =  5.9

     total cpu time spent up to now is     2383.2 secs

     End of self-consistent calculation

          k = 0.0000 0.0000 0.0000 ( 35443 PWs)   bands (ev):

   -10.9984 -10.8351 -10.8350 -10.5469 -10.5469 -10.4951 -10.4950 -10.4470
   -10.4470 -10.4470 -10.4470 -10.3566 -10.3566 -10.3492 -10.3181 -10.2961
   -10.2961 -10.2960 -10.2960 -10.2913 -10.2913 -10.2518 -10.2518 -10.2518
   -10.2518 -10.1867 -10.1867 -10.1858 -10.1858 -10.1857 -10.1857 -10.1573
   -10.1573 -10.1406 -10.1366 -10.1366   0.9559   0.9559   0.9559   0.9559
     0.9826   0.9826   1.0420   1.0420   1.0471   1.0471   1.0907   1.0907
     1.0907   1.0907   1.1038   1.1038   1.1038   1.1038   1.1141   1.1614
     1.1614   1.1968   1.1968   1.1968   1.1968   1.2062   1.2062   1.2098
     1.2098   1.3159   1.3159   1.3230   1.3451   1.3451   1.3451   1.3451
     1.3565   1.3780   1.3781   1.4366   1.4366   1.4366   1.4366   1.4393
     1.4530   1.4530   1.5014   1.5014   1.5196   1.5196   1.5609   1.5839
     1.5839   1.5839   1.5839   1.5839   1.5839   1.5967   1.5967   1.5967
     1.5967   1.6641   1.6641   1.6674   1.6674   1.6674   1.6674   1.7197
     1.7197   1.7338   1.7338   1.7338   1.7339   1.7583   1.7583   1.7583
     1.7583   1.7846   1.7846   1.7846   1.7846   1.7927   1.7927   1.8687
     1.8687   1.8803   1.8803   1.8904   1.8904   1.8904   1.8904   1.9005
     1.9005   1.9133   1.9133   1.9133   1.9134   1.9178   1.9178   1.9413
     1.9538   2.0312   2.0312   2.0460   2.0460   2.0753   2.1149   2.1149
     2.3484   2.3484   2.4055   2.4055   2.4282   2.4282   2.4641   2.4730
     2.4730   2.4787   2.4787   2.4787   2.4787   2.4918   2.4918   2.4918
     2.4918   2.4958   2.4958   2.4958   2.4958   2.4988   2.4988   2.5338
     2.5338   2.5339   2.5339   2.5677   2.5677   2.5677   2.5677   2.5909
     2.5917   2.5917   2.5917   2.5917   2.6003   2.6003   2.6096   2.6096
     2.6096   2.6096   2.6248   2.6248   2.6268   2.6268   2.6329   2.6329
     2.6552   2.6552   2.6705   2.6819   2.6819   2.6819   2.6819   2.6836
     2.6836   2.6913   2.6913   2.6913   2.6913   2.7317   2.7317   2.7417
     2.8116   2.8116   2.8116   2.8116   2.8131   2.8131   2.8732   2.8732
     2.8918   3.0747   3.0747   3.0838   3.0838   3.1456   3.1456   3.2047
     3.2568   3.2568   3.2568   3.2568   3.2754   3.2754   3.4269   3.5916
     3.5916   3.5916   3.5916   3.6415   3.6415   3.6415   3.6415   3.6813
     3.6813   3.7941   3.7941   3.8753   3.8753   4.0473   4.0473   4.0473
     4.0473   4.1031   4.1031   4.1406   4.4221   4.4221   4.5350   4.5350
     4.5350   4.5350   4.6507   4.6507   4.7140   4.9084   4.9084   4.9084
     4.9084   5.0142   5.0142   5.0818   5.0818   5.0818   5.0818   5.0928
     5.0928   5.0973   5.0973   5.3814   5.3814   5.3814   5.3814   5.4186
     5.4186   5.4186   5.4186   5.4566   5.4566   5.6136   5.6136   5.6403
     5.7660   5.7660   5.7927   5.7927   5.7976   5.7976   5.8448   5.8448
     5.8448   5.8448   5.9793   5.9793   5.9793   5.9793   6.0155   6.0155
     6.0155   6.0155   6.0831   6.0931   6.0932   6.1252   6.1252   6.3017
     6.3017   6.3190   6.3190   6.3190   6.3190   6.7004   6.7004   6.7004
     6.7004   6.8050   6.8874   6.8874

     occupation numbers 
     1.0000   1.0000   1.0000   1.0000   1.0000   1.0000   1.0000   1.0000
     1.0000   1.0000   1.0000   1.0000   1.0000   1.0000   1.0000   1.0000
     1.0000   1.0000   1.0000   1.0000   1.0000   1.0000   1.0000   1.0000
     1.0000   1.0000   1.0000   1.0000   1.0000   1.0000   1.0000   1.0000
     1.0000   1.0000   1.0000   1.0000   1.0000   1.0000   1.0000   1.0000
     1.0000   1.0000   1.0000   1.0000   1.0000   1.0000   1.0000   1.0000
     1.0000   1.0000   1.0000   1.0000   1.0000   1.0000   1.0000   1.0000
     1.0000   1.0000   1.0000   1.0000   1.0000   1.0000   1.0000   1.0000
     1.0000   1.0000   1.0000   1.0000   1.0000   1.0000   1.0000   1.0000
     1.0000   1.0000   1.0000   1.0000   1.0000   1.0000   1.0000   1.0000
     1.0000   1.0000   1.0000   1.0000   1.0000   1.0000   1.0000   1.0000
     1.0000   1.0000   1.0000   1.0000   1.0000   1.0000   1.0000   1.0000
     1.0000   1.0000   1.0000   1.0000   1.0000   1.0000   1.0000   1.0000
     1.0000   1.0000   1.0000   1.0000   1.0000   1.0000   1.0000   1.0000
     1.0000   1.0000   1.0000   1.0000   1.0000   1.0000   1.0000   1.0000
     1.0000   1.0000   1.0000   1.0000   1.0000   1.0000   1.0000   1.0000
     1.0000   1.0000   1.0000   1.0000   1.0000   1.0000   1.0000   1.0000
     1.0000   1.0000   1.0000   1.0000   1.0000   1.0000   1.0000   1.0000
     1.0000   1.0000   1.0000   1.0000   1.0000   1.0000   1.0000   1.0000
     1.0000   1.0000   1.0000   1.0000   1.0000   1.0000   1.0000   1.0000
     1.0000   1.0000   1.0000   1.0000   1.0000   1.0000   1.0000   1.0000
     1.0000   1.0000   1.0000   1.0000   1.0000   1.0000   1.0000   1.0000
     1.0000   1.0000   1.0000   1.0000   1.0000   1.0000   1.0000   1.0000
     1.0000   1.0000   1.0000   1.0000   1.0000   1.0000   1.0000   1.0000
     1.0000   1.0000   1.0000   1.0000   1.0000   1.0000   1.0000   1.0000
     1.0000   1.0000   1.0000   1.0000   1.0000   1.0000   1.0000   1.0000
     1.0000   1.0000   1.0000   1.0000   1.0000   1.0000   1.0000   1.0000
     1.0000   1.0000   1.0000   1.0000   1.0000   1.0000   1.0000   1.0000
     1.0000   1.0000   1.0000   1.0000   1.0000   1.0000   1.0000   1.0000
     1.0000   1.0000   1.0000   1.0000   1.0000   1.0000   1.0000   1.0000
     1.0000   1.0000   1.0000   1.0000   1.0000   1.0000   1.0000   1.0000
     1.0000   1.0000   1.0000   1.0000   1.0000   1.0000   1.0000   1.0000
     1.0000   1.0000   1.0000   1.0000   1.0000   1.0000   1.0000   1.0000
     1.0000   1.0000   1.0000   1.0000   1.0000   1.0000   1.0000   1.0000
     1.0000   1.0000   1.0000   1.0000   1.0000   1.0000   1.0000   1.0000
     1.0000   1.0000   1.0000   1.0000   1.0000   1.0000   1.0000   1.0000
     1.0000   1.0000   1.0000   1.0000   1.0000   1.0000   1.0000   1.0000
     1.0000   1.0000   1.0000   1.0000   1.0000   1.0000   1.0000   1.0000
     1.0000   1.0000   1.0000   1.0000   1.0000   1.0000   1.0000   1.0000
     1.0000   1.0000   1.0000   1.0000   1.0000   1.0000   1.0000   1.0000
     1.0000   1.0000   1.0000   1.0000

          k = 0.0000 0.0000-0.3097 ( 35412 PWs)   bands (ev):

   -10.9550 -10.9550 -10.6673 -10.6673 -10.5200 -10.5200 -10.5200 -10.5200
   -10.3660 -10.3660 -10.3485 -10.3485 -10.3485 -10.3485 -10.3401 -10.3401
   -10.3400 -10.3400 -10.3333 -10.3333 -10.2390 -10.2390 -10.2390 -10.2390
   -10.2370 -10.2370 -10.1824 -10.1824 -10.1824 -10.1824 -10.1525 -10.1525
   -10.1494 -10.1494 -10.1494 -10.1493   0.9527   0.9527   0.9620   0.9620
     0.9620   0.9620   1.0114   1.0114   1.0114   1.0114   1.0698   1.0698
     1.0857   1.0857   1.0857   1.0857   1.1298   1.1298   1.1780   1.1780
     1.1781   1.1781   1.2255   1.2255   1.2878   1.2878   1.2878   1.2878
     1.3102   1.3102   1.3169   1.3169   1.3225   1.3225   1.3225   1.3225
     1.3763   1.3763   1.3763   1.3763   1.3852   1.3852   1.3852   1.3852
     1.4826   1.4826   1.4826   1.4826   1.5395   1.5395   1.5395   1.5395
     1.5637   1.5637   1.5637   1.5637   1.5871   1.5872   1.6623   1.6623
     1.6623   1.6623   1.6841   1.6841   1.6841   1.6842   1.6874   1.6874
     1.6874   1.6875   1.6945   1.6945   1.6945   1.6946   1.7730   1.7730
     1.7730   1.7730   1.7821   1.7821   1.8587   1.8587   1.8597   1.8597
     1.8597   1.8597   1.8679   1.8679   1.8679   1.8679   1.8969   1.8970
     1.8970   1.8970   1.9133   1.9133   1.9195   1.9195   1.9824   1.9824
     1.9824   1.9824   2.0290   2.0290   2.0291   2.0291   2.0308   2.0308
     2.3852   2.3852   2.3853   2.3853   2.4171   2.4171   2.4171   2.4172
     2.4460   2.4460   2.4460   2.4460   2.5083   2.5083   2.5083   2.5083
     2.5266   2.5266   2.5393   2.5393   2.5393   2.5393   2.5468   2.5468
     2.5468   2.5468   2.5531   2.5531   2.5531   2.5531   2.5701   2.5701
     2.5701   2.5701   2.5851   2.5851   2.5851   2.5851   2.5930   2.5930
     2.6133   2.6133   2.6171   2.6171   2.6172   2.6172   2.6424   2.6424
     2.6425   2.6425   2.6574   2.6574   2.6804   2.6804   2.6804   2.6804
     2.6978   2.6978   2.7389   2.7389   2.7389   2.7389   2.7410   2.7411
     2.7606   2.7606   2.7606   2.7606   2.8696   2.8696   2.8696   2.8696
     3.1154   3.1154   3.1154   3.1154   3.1660   3.1660   3.1878   3.1878
     3.2007   3.2007   3.3424   3.3424   3.3424   3.3424   3.3762   3.3762
     3.4275   3.4275   3.4275   3.4275   3.6971   3.6971   3.6971   3.6971
     3.8758   3.8758   3.8758   3.8758   3.9352   3.9352   3.9352   3.9352
     4.2092   4.2092   4.2092   4.2092   4.4237   4.4238   4.6168   4.6168
     4.6168   4.6168   4.6229   4.6229   4.6230   4.6230   4.6601   4.6601
     4.8201   4.8201   4.9299   4.9299   4.9299   4.9299   5.1857   5.1857
     5.1857   5.1857   5.4386   5.4386   5.5304   5.5304   5.5304   5.5304
     5.5540   5.5540   5.5973   5.5973   5.5973   5.5973   5.6423   5.6423
     5.6423   5.6423   5.7225   5.7225   5.7225   5.7225   5.7267   5.7268
     5.7987   5.7987   5.7987   5.7987   5.9987   5.9988   6.1085   6.1085
     6.1086   6.1086   6.1773   6.1773   6.1773   6.1773   6.2255   6.2255
     6.2255   6.2256   6.2430   6.2430   6.5109   6.5109   6.5109   6.5109
     6.8375   6.8375   6.8376   6.8376

     occupation numbers 
     1.0000   1.0000   1.0000   1.0000   1.0000   1.0000   1.0000   1.0000
     1.0000   1.0000   1.0000   1.0000   1.0000   1.0000   1.0000   1.0000
     1.0000   1.0000   1.0000   1.0000   1.0000   1.0000   1.0000   1.0000
     1.0000   1.0000   1.0000   1.0000   1.0000   1.0000   1.0000   1.0000
     1.0000   1.0000   1.0000   1.0000   1.0000   1.0000   1.0000   1.0000
     1.0000   1.0000   1.0000   1.0000   1.0000   1.0000   1.0000   1.0000
     1.0000   1.0000   1.0000   1.0000   1.0000   1.0000   1.0000   1.0000
     1.0000   1.0000   1.0000   1.0000   1.0000   1.0000   1.0000   1.0000
     1.0000   1.0000   1.0000   1.0000   1.0000   1.0000   1.0000   1.0000
     1.0000   1.0000   1.0000   1.0000   1.0000   1.0000   1.0000   1.0000
     1.0000   1.0000   1.0000   1.0000   1.0000   1.0000   1.0000   1.0000
     1.0000   1.0000   1.0000   1.0000   1.0000   1.0000   1.0000   1.0000
     1.0000   1.0000   1.0000   1.0000   1.0000   1.0000   1.0000   1.0000
     1.0000   1.0000   1.0000   1.0000   1.0000   1.0000   1.0000   1.0000
     1.0000   1.0000   1.0000   1.0000   1.0000   1.0000   1.0000   1.0000
     1.0000   1.0000   1.0000   1.0000   1.0000   1.0000   1.0000   1.0000
     1.0000   1.0000   1.0000   1.0000   1.0000   1.0000   1.0000   1.0000
     1.0000   1.0000   1.0000   1.0000   1.0000   1.0000   1.0000   1.0000
     1.0000   1.0000   1.0000   1.0000   1.0000   1.0000   1.0000   1.0000
     1.0000   1.0000   1.0000   1.0000   1.0000   1.0000   1.0000   1.0000
     1.0000   1.0000   1.0000   1.0000   1.0000   1.0000   1.0000   1.0000
     1.0000   1.0000   1.0000   1.0000   1.0000   1.0000   1.0000   1.0000
     1.0000   1.0000   1.0000   1.0000   1.0000   1.0000   1.0000   1.0000
     1.0000   1.0000   1.0000   1.0000   1.0000   1.0000   1.0000   1.0000
     1.0000   1.0000   1.0000   1.0000   1.0000   1.0000   1.0000   1.0000
     1.0000   1.0000   1.0000   1.0000   1.0000   1.0000   1.0000   1.0000
     1.0000   1.0000   1.0000   1.0000   1.0000   1.0000   1.0000   1.0000
     1.0000   1.0000   1.0000   1.0000   1.0000   1.0000   1.0000   1.0000
     1.0000   1.0000   1.0000   1.0000   1.0000   1.0000   1.0000   1.0000
     1.0000   1.0000   1.0000   1.0000   1.0000   1.0000   1.0000   1.0000
     1.0000   1.0000   1.0000   1.0000   1.0000   1.0000   1.0000   1.0000
     1.0000   1.0000   1.0000   1.0000   1.0000   1.0000   1.0000   1.0000
     1.0000   1.0000   1.0000   1.0000   1.0000   1.0000   1.0000   1.0000
     1.0000   1.0000   1.0000   1.0000   1.0000   1.0000   1.0000   1.0000
     1.0000   1.0000   1.0000   1.0000   1.0000   1.0000   1.0000   1.0000
     1.0000   1.0000   1.0000   1.0000   1.0000   1.0000   1.0000   1.0000
     1.0000   1.0000   1.0000   1.0000   1.0000   1.0000   1.0000   1.0000
     1.0000   1.0000   1.0000   1.0000   1.0000   1.0000   1.0000   1.0000
     1.0000   1.0000   1.0000   1.0000   1.0000   1.0000   1.0000   1.0000
     1.0000   1.0000   1.0000   1.0000   1.0000   1.0000   1.0000   1.0000
     1.0000   1.0000   1.0000   1.0000

          k = 0.0000 0.5774 0.0000 ( 35452 PWs)   bands (ev):

   -10.8592 -10.7127 -10.7127 -10.6321 -10.5469 -10.5469 -10.5178 -10.5177
   -10.4470 -10.4470 -10.4470 -10.4470 -10.4120 -10.4119 -10.3566 -10.2961
   -10.2960 -10.2904 -10.2903 -10.2580 -10.2518 -10.2518 -10.2518 -10.2518
   -10.1942 -10.1942 -10.1871 -10.1871 -10.1871 -10.1871 -10.1858 -10.1857
   -10.1781 -10.1573 -10.1573 -10.1366   0.9559   0.9559   0.9559   0.9559
     1.0368   1.0368   1.0420   1.0420   1.0821   1.0821   1.0907   1.0907
     1.0907   1.0907   1.1038   1.1038   1.1268   1.1268   1.1443   1.1443
     1.1448   1.1787   1.1968   1.1968   1.2098   1.2800   1.3348   1.3780
     1.3781   1.3917   1.3917   1.3939   1.4031   1.4031   1.4031   1.4031
     1.4175   1.4331   1.4332   1.4425   1.4425   1.4530   1.4978   1.5169
     1.5169   1.5196   1.5196   1.5221   1.5221   1.5272   1.5381   1.5381
     1.5437   1.5437   1.5839   1.5839   1.5839   1.5845   1.5967   1.5967
     1.5967   1.5967   1.6182   1.6647   1.6674   1.6674   1.6674   1.6674
     1.6688   1.6688   1.6853   1.6853   1.7171   1.7171   1.7197   1.7197
     1.7338   1.7339   1.7417   1.7418   1.7583   1.7583   1.7583   1.7583
     1.7846   1.7846   1.7846   1.7846   1.7927   1.8373   1.8904   1.8904
     1.9005   1.9005   1.9133   1.9134   1.9688   2.0259   2.0312   2.0312
     2.0460   2.0771   2.0771   2.0771   2.0771   2.1149   2.2690   2.2690
     2.3225   2.3484   2.3484   2.3627   2.3719   2.4055   2.4064   2.4064
     2.4269   2.4472   2.4607   2.4607   2.4609   2.4609   2.4695   2.4695
     2.4730   2.4787   2.4787   2.4787   2.4787   2.4858   2.4884   2.4884
     2.4958   2.4958   2.4988   2.4988   2.5183   2.5183   2.5316   2.5316
     2.5338   2.5338   2.5339   2.5339   2.5677   2.5677   2.5934   2.5935
     2.6056   2.6056   2.6096   2.6096   2.6096   2.6096   2.6172   2.6172
     2.6358   2.6484   2.6552   2.6552   2.6725   2.6725   2.6819   2.6819
     2.6819   2.6819   2.6836   2.6913   2.6913   2.7479   2.8116   2.8116
     2.8131   2.8131   2.8198   2.8530   2.8530   2.8530   2.8530   2.8613
     2.8732   3.0203   3.0747   3.0838   3.0838   3.2411   3.2568   3.2568
     3.2873   3.2873   3.2873   3.2873   3.4120   3.4120   3.5916   3.5916
     3.6415   3.6415   3.6415   3.6415   3.6813   3.7941   3.7941   3.8035
     3.8036   3.8660   3.8660   3.9343   3.9343   4.0473   4.0473   4.0473
     4.0473   4.1031   4.4221   4.4227   4.4657   4.4657   4.5350   4.5350
     4.6354   4.6507   4.6507   4.7453   4.7453   4.9084   4.9084   4.9084
     4.9084   4.9826   4.9826   5.0284   5.0284   5.0818   5.0818   5.0973
     5.0973   5.1229   5.1229   5.2183   5.2257   5.2291   5.3665   5.3665
     5.3814   5.3814   5.4186   5.4186   5.4186   5.4186   5.5234   5.5235
     5.5235   5.5235   5.5975   5.5975   5.6136   5.7794   5.7886   5.7976
     5.8448   5.8448   5.9570   5.9571   5.9793   5.9793   5.9793   5.9793
     6.0155   6.0155   6.0155   6.0155   6.0235   6.0235   6.0905   6.0905
     6.0932   6.0932   6.2537   6.2838   6.2838   6.2864   6.3017   6.3017
     6.4801   6.4801   6.6257   6.7031

     occupation numbers 
     1.0000   1.0000   1.0000   1.0000   1.0000   1.0000   1.0000   1.0000
     1.0000   1.0000   1.0000   1.0000   1.0000   1.0000   1.0000   1.0000
     1.0000   1.0000   1.0000   1.0000   1.0000   1.0000   1.0000   1.0000
     1.0000   1.0000   1.0000   1.0000   1.0000   1.0000   1.0000   1.0000
     1.0000   1.0000   1.0000   1.0000   1.0000   1.0000   1.0000   1.0000
     1.0000   1.0000   1.0000   1.0000   1.0000   1.0000   1.0000   1.0000
     1.0000   1.0000   1.0000   1.0000   1.0000   1.0000   1.0000   1.0000
     1.0000   1.0000   1.0000   1.0000   1.0000   1.0000   1.0000   1.0000
     1.0000   1.0000   1.0000   1.0000   1.0000   1.0000   1.0000   1.0000
     1.0000   1.0000   1.0000   1.0000   1.0000   1.0000   1.0000   1.0000
     1.0000   1.0000   1.0000   1.0000   1.0000   1.0000   1.0000   1.0000
     1.0000   1.0000   1.0000   1.0000   1.0000   1.0000   1.0000   1.0000
     1.0000   1.0000   1.0000   1.0000   1.0000   1.0000   1.0000   1.0000
     1.0000   1.0000   1.0000   1.0000   1.0000   1.0000   1.0000   1.0000
     1.0000   1.0000   1.0000   1.0000   1.0000   1.0000   1.0000   1.0000
     1.0000   1.0000   1.0000   1.0000   1.0000   1.0000   1.0000   1.0000
     1.0000   1.0000   1.0000   1.0000   1.0000   1.0000   1.0000   1.0000
     1.0000   1.0000   1.0000   1.0000   1.0000   1.0000   1.0000   1.0000
     1.0000   1.0000   1.0000   1.0000   1.0000   1.0000   1.0000   1.0000
     1.0000   1.0000   1.0000   1.0000   1.0000   1.0000   1.0000   1.0000
     1.0000   1.0000   1.0000   1.0000   1.0000   1.0000   1.0000   1.0000
     1.0000   1.0000   1.0000   1.0000   1.0000   1.0000   1.0000   1.0000
     1.0000   1.0000   1.0000   1.0000   1.0000   1.0000   1.0000   1.0000
     1.0000   1.0000   1.0000   1.0000   1.0000   1.0000   1.0000   1.0000
     1.0000   1.0000   1.0000   1.0000   1.0000   1.0000   1.0000   1.0000
     1.0000   1.0000   1.0000   1.0000   1.0000   1.0000   1.0000   1.0000
     1.0000   1.0000   1.0000   1.0000   1.0000   1.0000   1.0000   1.0000
     1.0000   1.0000   1.0000   1.0000   1.0000   1.0000   1.0000   1.0000
     1.0000   1.0000   1.0000   1.0000   1.0000   1.0000   1.0000   1.0000
     1.0000   1.0000   1.0000   1.0000   1.0000   1.0000   1.0000   1.0000
     1.0000   1.0000   1.0000   1.0000   1.0000   1.0000   1.0000   1.0000
     1.0000   1.0000   1.0000   1.0000   1.0000   1.0000   1.0000   1.0000
     1.0000   1.0000   1.0000   1.0000   1.0000   1.0000   1.0000   1.0000
     1.0000   1.0000   1.0000   1.0000   1.0000   1.0000   1.0000   1.0000
     1.0000   1.0000   1.0000   1.0000   1.0000   1.0000   1.0000   1.0000
     1.0000   1.0000   1.0000   1.0000   1.0000   1.0000   1.0000   1.0000
     1.0000   1.0000   1.0000   1.0000   1.0000   1.0000   1.0000   1.0000
     1.0000   1.0000   1.0000   1.0000   1.0000   1.0000   1.0000   1.0000
     1.0000   1.0000   1.0000   1.0000   1.0000   1.0000   1.0000   1.0000
     1.0000   1.0000   1.0000   1.0000   1.0000   1.0000   1.0000   1.0000
     1.0000   1.0000   1.0000   1.0000

          k = 0.0000 0.5774-0.3097 ( 35404 PWs)   bands (ev):

   -10.8202 -10.8202 -10.6015 -10.6014 -10.5636 -10.5635 -10.5200 -10.5200
   -10.5200 -10.5200 -10.4037 -10.4037 -10.3485 -10.3485 -10.3485 -10.3485
   -10.3401 -10.3400 -10.2995 -10.2995 -10.2390 -10.2390 -10.2080 -10.2080
   -10.1918 -10.1918 -10.1918 -10.1918 -10.1847 -10.1847 -10.1824 -10.1824
   -10.1824 -10.1824 -10.1494 -10.1493   0.9620   0.9620   0.9620   0.9620
     1.0114   1.0114   1.0114   1.0114   1.0209   1.0209   1.0549   1.0549
     1.0857   1.0857   1.1086   1.1086   1.1496   1.1496   1.1780   1.1781
     1.2850   1.2850   1.2878   1.2878   1.2878   1.2878   1.3081   1.3081
     1.3212   1.3212   1.3367   1.3367   1.3763   1.3763   1.4035   1.4035
     1.4548   1.4548   1.4698   1.4698   1.4827   1.4827   1.5188   1.5188
     1.5306   1.5306   1.5328   1.5328   1.5395   1.5395   1.5395   1.5395
     1.5573   1.5573   1.5637   1.5637   1.5787   1.5787   1.5787   1.5787
     1.5905   1.5905   1.5969   1.5969   1.6623   1.6623   1.6781   1.6781
     1.6841   1.6841   1.6841   1.6842   1.6874   1.6874   1.6875   1.6875
     1.6945   1.6945   1.6945   1.6946   1.7730   1.7730   1.8092   1.8092
     1.8094   1.8094   1.8597   1.8597   1.8679   1.8679   1.8679   1.8679
     1.8969   1.8969   1.8970   1.8970   1.9187   1.9187   1.9824   1.9824
     2.0290   2.0291   2.0556   2.0556   2.1585   2.1585   2.1585   2.1585
     2.3642   2.3642   2.3793   2.3793   2.3852   2.3852   2.3853   2.3853
     2.4013   2.4014   2.4171   2.4171   2.4346   2.4346   2.4440   2.4440
     2.4789   2.4789   2.4791   2.4792   2.5083   2.5083   2.5083   2.5083
     2.5393   2.5393   2.5440   2.5440   2.5485   2.5485   2.5519   2.5519
     2.5531   2.5531   2.5701   2.5701   2.5701   2.5701   2.5835   2.5835
     2.5851   2.5851   2.5851   2.5851   2.6255   2.6255   2.6363   2.6363
     2.6424   2.6424   2.6425   2.6425   2.6724   2.6724   2.6804   2.6804
     2.6812   2.6812   2.6812   2.6812   2.7389   2.7389   2.7500   2.7500
     2.7606   2.7606   2.7606   2.7606   2.8696   2.8696   2.9254   2.9254
     3.1154   3.1154   3.2429   3.2429   3.2560   3.2560   3.3424   3.3424
     3.3424   3.3424   3.3685   3.3685   3.3685   3.3685   3.3752   3.3752
     3.4090   3.4090   3.4275   3.4275   3.6971   3.6971   3.8758   3.8758
     3.8758   3.8758   3.9352   3.9352   3.9352   3.9352   4.2092   4.2092
     4.2135   4.2135   4.2827   4.2827   4.5551   4.5551   4.6008   4.6008
     4.6101   4.6101   4.6168   4.6168   4.6229   4.6229   4.6230   4.6230
     4.9299   4.9299   5.0893   5.0894   5.1857   5.1857   5.1857   5.1857
     5.1983   5.1983   5.1983   5.1983   5.2328   5.2328   5.2751   5.2751
     5.5301   5.5301   5.5304   5.5304   5.5304   5.5304   5.5973   5.5973
     5.6315   5.6315   5.6423   5.6423   5.6819   5.6819   5.7225   5.7225
     5.7225   5.7225   5.7237   5.7237   5.7987   5.7987   5.8520   5.8521
     5.9120   5.9120   6.1085   6.1085   6.1086   6.1086   6.1733   6.1733
     6.2255   6.2255   6.2255   6.2256   6.2538   6.2538   6.2739   6.2739
     6.5473   6.5473   6.6436   6.6437

     occupation numbers 
     1.0000   1.0000   1.0000   1.0000   1.0000   1.0000   1.0000   1.0000
     1.0000   1.0000   1.0000   1.0000   1.0000   1.0000   1.0000   1.0000
     1.0000   1.0000   1.0000   1.0000   1.0000   1.0000   1.0000   1.0000
     1.0000   1.0000   1.0000   1.0000   1.0000   1.0000   1.0000   1.0000
     1.0000   1.0000   1.0000   1.0000   1.0000   1.0000   1.0000   1.0000
     1.0000   1.0000   1.0000   1.0000   1.0000   1.0000   1.0000   1.0000
     1.0000   1.0000   1.0000   1.0000   1.0000   1.0000   1.0000   1.0000
     1.0000   1.0000   1.0000   1.0000   1.0000   1.0000   1.0000   1.0000
     1.0000   1.0000   1.0000   1.0000   1.0000   1.0000   1.0000   1.0000
     1.0000   1.0000   1.0000   1.0000   1.0000   1.0000   1.0000   1.0000
     1.0000   1.0000   1.0000   1.0000   1.0000   1.0000   1.0000   1.0000
     1.0000   1.0000   1.0000   1.0000   1.0000   1.0000   1.0000   1.0000
     1.0000   1.0000   1.0000   1.0000   1.0000   1.0000   1.0000   1.0000
     1.0000   1.0000   1.0000   1.0000   1.0000   1.0000   1.0000   1.0000
     1.0000   1.0000   1.0000   1.0000   1.0000   1.0000   1.0000   1.0000
     1.0000   1.0000   1.0000   1.0000   1.0000   1.0000   1.0000   1.0000
     1.0000   1.0000   1.0000   1.0000   1.0000   1.0000   1.0000   1.0000
     1.0000   1.0000   1.0000   1.0000   1.0000   1.0000   1.0000   1.0000
     1.0000   1.0000   1.0000   1.0000   1.0000   1.0000   1.0000   1.0000
     1.0000   1.0000   1.0000   1.0000   1.0000   1.0000   1.0000   1.0000
     1.0000   1.0000   1.0000   1.0000   1.0000   1.0000   1.0000   1.0000
     1.0000   1.0000   1.0000   1.0000   1.0000   1.0000   1.0000   1.0000
     1.0000   1.0000   1.0000   1.0000   1.0000   1.0000   1.0000   1.0000
     1.0000   1.0000   1.0000   1.0000   1.0000   1.0000   1.0000   1.0000
     1.0000   1.0000   1.0000   1.0000   1.0000   1.0000   1.0000   1.0000
     1.0000   1.0000   1.0000   1.0000   1.0000   1.0000   1.0000   1.0000
     1.0000   1.0000   1.0000   1.0000   1.0000   1.0000   1.0000   1.0000
     1.0000   1.0000   1.0000   1.0000   1.0000   1.0000   1.0000   1.0000
     1.0000   1.0000   1.0000   1.0000   1.0000   1.0000   1.0000   1.0000
     1.0000   1.0000   1.0000   1.0000   1.0000   1.0000   1.0000   1.0000
     1.0000   1.0000   1.0000   1.0000   1.0000   1.0000   1.0000   1.0000
     1.0000   1.0000   1.0000   1.0000   1.0000   1.0000   1.0000   1.0000
     1.0000   1.0000   1.0000   1.0000   1.0000   1.0000   1.0000   1.0000
     1.0000   1.0000   1.0000   1.0000   1.0000   1.0000   1.0000   1.0000
     1.0000   1.0000   1.0000   1.0000   1.0000   1.0000   1.0000   1.0000
     1.0000   1.0000   1.0000   1.0000   1.0000   1.0000   1.0000   1.0000
     1.0000   1.0000   1.0000   1.0000   1.0000   1.0000   1.0000   1.0000
     1.0000   1.0000   1.0000   1.0000   1.0000   1.0000   1.0000   1.0000
     1.0000   1.0000   1.0000   1.0000   1.0000   1.0000   1.0000   1.0000
     1.0000   1.0000   1.0000   1.0000   1.0000   1.0000   1.0000   1.0000
     1.0000   1.0000   1.0000   1.0000

          k =-0.5000-0.2887 0.0000 ( 35424 PWs)   bands (ev):

   -10.8592 -10.8592 -10.7127 -10.7127 -10.7127 -10.7127 -10.4120 -10.4120
   -10.4119 -10.4119 -10.3566 -10.3566 -10.3492 -10.3492 -10.2961 -10.2961
   -10.2960 -10.2960 -10.2913 -10.2913 -10.2913 -10.2913 -10.2580 -10.2580
   -10.1867 -10.1867 -10.1867 -10.1867 -10.1858 -10.1858 -10.1857 -10.1857
   -10.1406 -10.1406 -10.1366 -10.1366   0.9826   0.9826   0.9826   0.9826
     1.0471   1.0471   1.0471   1.0471   1.0821   1.0821   1.0821   1.0821
     1.1038   1.1038   1.1038   1.1038   1.1141   1.1141   1.1443   1.1443
     1.1443   1.1443   1.1787   1.1787   1.1968   1.1968   1.1968   1.1968
     1.2098   1.2098   1.3230   1.3230   1.3939   1.3939   1.4175   1.4175
     1.4331   1.4332   1.4332   1.4332   1.4425   1.4425   1.4425   1.4425
     1.4530   1.4530   1.4978   1.4978   1.5221   1.5221   1.5221   1.5221
     1.5437   1.5437   1.5437   1.5437   1.5609   1.5609   1.5839   1.5839
     1.5839   1.5839   1.5839   1.5839   1.6182   1.6182   1.6641   1.6641
     1.6641   1.6641   1.6647   1.6647   1.7338   1.7338   1.7338   1.7339
     1.7927   1.7927   1.8687   1.8687   1.8687   1.8687   1.8803   1.8803
     1.8803   1.8803   1.8904   1.8904   1.8904   1.8904   1.9133   1.9133
     1.9133   1.9134   1.9178   1.9178   1.9178   1.9178   1.9413   1.9413
     1.9538   1.9538   2.0460   2.0460   2.0753   2.0753   2.1149   2.1149
     2.3719   2.3719   2.4055   2.4055   2.4269   2.4269   2.4641   2.4641
     2.4695   2.4695   2.4695   2.4695   2.4730   2.4730   2.4884   2.4884
     2.4884   2.4884   2.4958   2.4958   2.4958   2.4958   2.5677   2.5677
     2.5677   2.5677   2.5909   2.5909   2.5934   2.5934   2.5934   2.5935
     2.6003   2.6003   2.6003   2.6003   2.6172   2.6172   2.6172   2.6172
     2.6268   2.6268   2.6268   2.6268   2.6329   2.6329   2.6329   2.6329
     2.6358   2.6358   2.6705   2.6705   2.6836   2.6836   2.6913   2.6913
     2.6913   2.6913   2.7317   2.7317   2.7317   2.7317   2.7417   2.7417
     2.7479   2.7479   2.8116   2.8116   2.8116   2.8116   2.8613   2.8614
     2.8732   2.8732   3.0747   3.0747   3.1456   3.1456   3.1456   3.1456
     3.2047   3.2047   3.2568   3.2568   3.2568   3.2568   3.2754   3.2754
     3.2754   3.2754   3.4268   3.4269   3.5916   3.5916   3.5916   3.5916
     3.6813   3.6813   3.9343   3.9343   3.9343   3.9343   4.1031   4.1031
     4.1406   4.1406   4.4221   4.4221   4.5350   4.5350   4.5350   4.5350
     4.7140   4.7140   5.0141   5.0142   5.0142   5.0142   5.0818   5.0818
     5.0818   5.0818   5.0928   5.0928   5.0928   5.0928   5.1229   5.1229
     5.1229   5.1229   5.2257   5.2257   5.3814   5.3814   5.3814   5.3814
     5.5975   5.5975   5.5975   5.5975   5.6136   5.6136   5.6403   5.6403
     5.7660   5.7660   5.7660   5.7660   5.7794   5.7794   5.7886   5.7886
     5.7927   5.7927   5.7927   5.7927   5.7976   5.7976   5.8448   5.8448
     5.8448   5.8448   6.0235   6.0235   6.0235   6.0235   6.0831   6.0831
     6.2838   6.2838   6.2838   6.2838   6.4801   6.4801   6.4801   6.4801
     6.6257   6.6257   6.7031   6.7031

     occupation numbers 
     1.0000   1.0000   1.0000   1.0000   1.0000   1.0000   1.0000   1.0000
     1.0000   1.0000   1.0000   1.0000   1.0000   1.0000   1.0000   1.0000
     1.0000   1.0000   1.0000   1.0000   1.0000   1.0000   1.0000   1.0000
     1.0000   1.0000   1.0000   1.0000   1.0000   1.0000   1.0000   1.0000
     1.0000   1.0000   1.0000   1.0000   1.0000   1.0000   1.0000   1.0000
     1.0000   1.0000   1.0000   1.0000   1.0000   1.0000   1.0000   1.0000
     1.0000   1.0000   1.0000   1.0000   1.0000   1.0000   1.0000   1.0000
     1.0000   1.0000   1.0000   1.0000   1.0000   1.0000   1.0000   1.0000
     1.0000   1.0000   1.0000   1.0000   1.0000   1.0000   1.0000   1.0000
     1.0000   1.0000   1.0000   1.0000   1.0000   1.0000   1.0000   1.0000
     1.0000   1.0000   1.0000   1.0000   1.0000   1.0000   1.0000   1.0000
     1.0000   1.0000   1.0000   1.0000   1.0000   1.0000   1.0000   1.0000
     1.0000   1.0000   1.0000   1.0000   1.0000   1.0000   1.0000   1.0000
     1.0000   1.0000   1.0000   1.0000   1.0000   1.0000   1.0000   1.0000
     1.0000   1.0000   1.0000   1.0000   1.0000   1.0000   1.0000   1.0000
     1.0000   1.0000   1.0000   1.0000   1.0000   1.0000   1.0000   1.0000
     1.0000   1.0000   1.0000   1.0000   1.0000   1.0000   1.0000   1.0000
     1.0000   1.0000   1.0000   1.0000   1.0000   1.0000   1.0000   1.0000
     1.0000   1.0000   1.0000   1.0000   1.0000   1.0000   1.0000   1.0000
     1.0000   1.0000   1.0000   1.0000   1.0000   1.0000   1.0000   1.0000
     1.0000   1.0000   1.0000   1.0000   1.0000   1.0000   1.0000   1.0000
     1.0000   1.0000   1.0000   1.0000   1.0000   1.0000   1.0000   1.0000
     1.0000   1.0000   1.0000   1.0000   1.0000   1.0000   1.0000   1.0000
     1.0000   1.0000   1.0000   1.0000   1.0000   1.0000   1.0000   1.0000
     1.0000   1.0000   1.0000   1.0000   1.0000   1.0000   1.0000   1.0000
     1.0000   1.0000   1.0000   1.0000   1.0000   1.0000   1.0000   1.0000
     1.0000   1.0000   1.0000   1.0000   1.0000   1.0000   1.0000   1.0000
     1.0000   1.0000   1.0000   1.0000   1.0000   1.0000   1.0000   1.0000
     1.0000   1.0000   1.0000   1.0000   1.0000   1.0000   1.0000   1.0000
     1.0000   1.0000   1.0000   1.0000   1.0000   1.0000   1.0000   1.0000
     1.0000   1.0000   1.0000   1.0000   1.0000   1.0000   1.0000   1.0000
     1.0000   1.0000   1.0000   1.0000   1.0000   1.0000   1.0000   1.0000
     1.0000   1.0000   1.0000   1.0000   1.0000   1.0000   1.0000   1.0000
     1.0000   1.0000   1.0000   1.0000   1.0000   1.0000   1.0000   1.0000
     1.0000   1.0000   1.0000   1.0000   1.0000   1.0000   1.0000   1.0000
     1.0000   1.0000   1.0000   1.0000   1.0000   1.0000   1.0000   1.0000
     1.0000   1.0000   1.0000   1.0000   1.0000   1.0000   1.0000   1.0000
     1.0000   1.0000   1.0000   1.0000   1.0000   1.0000   1.0000   1.0000
     1.0000   1.0000   1.0000   1.0000   1.0000   1.0000   1.0000   1.0000
     1.0000   1.0000   1.0000   1.0000   1.0000   1.0000   1.0000   1.0000
     1.0000   1.0000   1.0000   1.0000

          k =-0.5000-0.2887-0.3097 ( 35428 PWs)   bands (ev):

   -10.8202 -10.8202 -10.8202 -10.8202 -10.5636 -10.5636 -10.5636 -10.5635
   -10.3401 -10.3401 -10.3400 -10.3400 -10.3334 -10.3333 -10.3333 -10.3333
   -10.2995 -10.2995 -10.2995 -10.2994 -10.2390 -10.2390 -10.2390 -10.2390
   -10.2371 -10.2370 -10.2370 -10.2370 -10.1525 -10.1525 -10.1525 -10.1525
   -10.1494 -10.1494 -10.1494 -10.1493   0.9527   0.9527   0.9527   0.9527
     1.0549   1.0549   1.0549   1.0549   1.0698   1.0698   1.0698   1.0698
     1.0857   1.0857   1.0857   1.0857   1.1496   1.1496   1.1496   1.1496
     1.1780   1.1780   1.1781   1.1781   1.2255   1.2255   1.2255   1.2255
     1.3367   1.3367   1.3367   1.3367   1.3763   1.3763   1.3763   1.3763
     1.4035   1.4035   1.4035   1.4035   1.4548   1.4548   1.4548   1.4548
     1.4698   1.4698   1.4698   1.4698   1.4827   1.4827   1.4827   1.4827
     1.5637   1.5637   1.5637   1.5637   1.5871   1.5871   1.5872   1.5872
     1.5905   1.5905   1.5905   1.5905   1.5969   1.5969   1.5969   1.5969
     1.6623   1.6623   1.6623   1.6623   1.7730   1.7730   1.7730   1.7730
     1.7821   1.7821   1.7821   1.7821   1.8587   1.8587   1.8587   1.8587
     1.8597   1.8597   1.8597   1.8597   1.9133   1.9133   1.9133   1.9133
     1.9195   1.9195   1.9195   1.9195   1.9824   1.9824   1.9824   1.9824
     2.0290   2.0290   2.0291   2.0291   2.0308   2.0308   2.0308   2.0308
     2.4013   2.4013   2.4013   2.4014   2.4171   2.4171   2.4171   2.4172
     2.4440   2.4440   2.4440   2.4440   2.5266   2.5266   2.5266   2.5266
     2.5393   2.5393   2.5393   2.5393   2.5440   2.5440   2.5440   2.5440
     2.5485   2.5485   2.5485   2.5485   2.5531   2.5531   2.5531   2.5531
     2.5930   2.5930   2.5930   2.5930   2.6133   2.6133   2.6133   2.6133
     2.6255   2.6255   2.6255   2.6255   2.6574   2.6574   2.6574   2.6574
     2.6724   2.6724   2.6724   2.6724   2.6804   2.6804   2.6804   2.6804
     2.6978   2.6978   2.6978   2.6978   2.7389   2.7389   2.7389   2.7389
     2.7410   2.7410   2.7411   2.7411   2.8696   2.8696   2.8696   2.8696
     3.1154   3.1154   3.1154   3.1154   3.1660   3.1660   3.1660   3.1660
     3.1878   3.1878   3.1878   3.1878   3.2560   3.2560   3.2560   3.2560
     3.3762   3.3762   3.3762   3.3762   3.4275   3.4275   3.4275   3.4275
     3.6971   3.6971   3.6971   3.6971   4.2092   4.2092   4.2092   4.2092
     4.4237   4.4238   4.4238   4.4238   4.6008   4.6008   4.6008   4.6008
     4.6168   4.6168   4.6168   4.6168   4.8201   4.8201   4.8201   4.8201
     4.9299   4.9299   4.9299   4.9299   5.2751   5.2751   5.2751   5.2751
     5.4386   5.4386   5.4386   5.4386   5.5540   5.5540   5.5540   5.5540
     5.5973   5.5973   5.5973   5.5973   5.6315   5.6315   5.6315   5.6315
     5.6423   5.6423   5.6423   5.6423   5.7267   5.7268   5.7268   5.7268
     5.7987   5.7987   5.7987   5.7987   5.8520   5.8520   5.8521   5.8521
     5.9120   5.9120   5.9120   5.9120   5.9987   5.9987   5.9988   5.9988
     6.2538   6.2538   6.2538   6.2538   6.5473   6.5473   6.5473   6.5473
     6.6436   6.6436   6.6437   6.6437

     occupation numbers 
     1.0000   1.0000   1.0000   1.0000   1.0000   1.0000   1.0000   1.0000
     1.0000   1.0000   1.0000   1.0000   1.0000   1.0000   1.0000   1.0000
     1.0000   1.0000   1.0000   1.0000   1.0000   1.0000   1.0000   1.0000
     1.0000   1.0000   1.0000   1.0000   1.0000   1.0000   1.0000   1.0000
     1.0000   1.0000   1.0000   1.0000   1.0000   1.0000   1.0000   1.0000
     1.0000   1.0000   1.0000   1.0000   1.0000   1.0000   1.0000   1.0000
     1.0000   1.0000   1.0000   1.0000   1.0000   1.0000   1.0000   1.0000
     1.0000   1.0000   1.0000   1.0000   1.0000   1.0000   1.0000   1.0000
     1.0000   1.0000   1.0000   1.0000   1.0000   1.0000   1.0000   1.0000
     1.0000   1.0000   1.0000   1.0000   1.0000   1.0000   1.0000   1.0000
     1.0000   1.0000   1.0000   1.0000   1.0000   1.0000   1.0000   1.0000
     1.0000   1.0000   1.0000   1.0000   1.0000   1.0000   1.0000   1.0000
     1.0000   1.0000   1.0000   1.0000   1.0000   1.0000   1.0000   1.0000
     1.0000   1.0000   1.0000   1.0000   1.0000   1.0000   1.0000   1.0000
     1.0000   1.0000   1.0000   1.0000   1.0000   1.0000   1.0000   1.0000
     1.0000   1.0000   1.0000   1.0000   1.0000   1.0000   1.0000   1.0000
     1.0000   1.0000   1.0000   1.0000   1.0000   1.0000   1.0000   1.0000
     1.0000   1.0000   1.0000   1.0000   1.0000   1.0000   1.0000   1.0000
     1.0000   1.0000   1.0000   1.0000   1.0000   1.0000   1.0000   1.0000
     1.0000   1.0000   1.0000   1.0000   1.0000   1.0000   1.0000   1.0000
     1.0000   1.0000   1.0000   1.0000   1.0000   1.0000   1.0000   1.0000
     1.0000   1.0000   1.0000   1.0000   1.0000   1.0000   1.0000   1.0000
     1.0000   1.0000   1.0000   1.0000   1.0000   1.0000   1.0000   1.0000
     1.0000   1.0000   1.0000   1.0000   1.0000   1.0000   1.0000   1.0000
     1.0000   1.0000   1.0000   1.0000   1.0000   1.0000   1.0000   1.0000
     1.0000   1.0000   1.0000   1.0000   1.0000   1.0000   1.0000   1.0000
     1.0000   1.0000   1.0000   1.0000   1.0000   1.0000   1.0000   1.0000
     1.0000   1.0000   1.0000   1.0000   1.0000   1.0000   1.0000   1.0000
     1.0000   1.0000   1.0000   1.0000   1.0000   1.0000   1.0000   1.0000
     1.0000   1.0000   1.0000   1.0000   1.0000   1.0000   1.0000   1.0000
     1.0000   1.0000   1.0000   1.0000   1.0000   1.0000   1.0000   1.0000
     1.0000   1.0000   1.0000   1.0000   1.0000   1.0000   1.0000   1.0000
     1.0000   1.0000   1.0000   1.0000   1.0000   1.0000   1.0000   1.0000
     1.0000   1.0000   1.0000   1.0000   1.0000   1.0000   1.0000   1.0000
     1.0000   1.0000   1.0000   1.0000   1.0000   1.0000   1.0000   1.0000
     1.0000   1.0000   1.0000   1.0000   1.0000   1.0000   1.0000   1.0000
     1.0000   1.0000   1.0000   1.0000   1.0000   1.0000   1.0000   1.0000
     1.0000   1.0000   1.0000   1.0000   1.0000   1.0000   1.0000   1.0000
     1.0000   1.0000   1.0000   1.0000   1.0000   1.0000   1.0000   1.0000
     1.0000   1.0000   1.0000   1.0000   1.0000   1.0000   1.0000   1.0000
     1.0000   1.0000   1.0000   1.0000

          k =-0.5000 0.2887 0.0000 ( 35468 PWs)   bands (ev):

   -10.8592 -10.7127 -10.7127 -10.6321 -10.6321 -10.5178 -10.5178 -10.5178
   -10.5177 -10.4120 -10.4119 -10.3566 -10.3566 -10.3566 -10.2961 -10.2961
   -10.2961 -10.2960 -10.2960 -10.2960 -10.2904 -10.2904 -10.2904 -10.2903
   -10.2580 -10.1858 -10.1858 -10.1857 -10.1857 -10.1857 -10.1857 -10.1781
   -10.1781 -10.1366 -10.1366 -10.1366   1.0368   1.0368   1.0368   1.0368
     1.0821   1.0821   1.1038   1.1038   1.1038   1.1038   1.1038   1.1038
     1.1268   1.1268   1.1268   1.1268   1.1443   1.1443   1.1448   1.1448
     1.1787   1.1968   1.1968   1.1968   1.1968   1.1968   1.1968   1.2098
     1.2098   1.2098   1.3347   1.3348   1.3939   1.4175   1.4331   1.4332
     1.4425   1.4425   1.4530   1.4530   1.4530   1.4978   1.5169   1.5169
     1.5169   1.5169   1.5221   1.5221   1.5272   1.5272   1.5381   1.5381
     1.5381   1.5381   1.5437   1.5437   1.5839   1.5839   1.5839   1.5839
     1.5839   1.5839   1.5839   1.5839   1.5839   1.5845   1.5845   1.6182
     1.6647   1.6853   1.6853   1.6853   1.6853   1.7338   1.7338   1.7338
     1.7339   1.7339   1.7339   1.7417   1.7418   1.7418   1.7418   1.7927
     1.7927   1.7927   1.8373   1.8373   1.8904   1.8904   1.8904   1.8904
     1.8904   1.8904   1.9133   1.9133   1.9133   1.9133   1.9134   1.9134
     1.9688   1.9688   2.0460   2.0460   2.0460   2.1149   2.1149   2.1149
     2.3225   2.3225   2.3719   2.4055   2.4055   2.4055   2.4269   2.4472
     2.4472   2.4609   2.4609   2.4609   2.4609   2.4695   2.4695   2.4730
     2.4730   2.4730   2.4884   2.4884   2.4958   2.4958   2.4958   2.4958
     2.4958   2.4958   2.5183   2.5183   2.5183   2.5183   2.5677   2.5677
     2.5677   2.5677   2.5677   2.5677   2.5934   2.5935   2.6056   2.6056
     2.6056   2.6056   2.6172   2.6172   2.6358   2.6484   2.6484   2.6725
     2.6725   2.6725   2.6725   2.6836   2.6836   2.6836   2.6913   2.6913
     2.6913   2.6913   2.6913   2.6913   2.7479   2.8116   2.8116   2.8116
     2.8116   2.8116   2.8116   2.8198   2.8199   2.8613   2.8732   2.8732
     2.8732   3.0203   3.0203   3.0747   3.0747   3.0747   3.2568   3.2568
     3.2568   3.2568   3.2568   3.2568   3.5916   3.5916   3.5916   3.5916
     3.5916   3.5916   3.6813   3.6813   3.6813   3.8660   3.8660   3.8660
     3.8660   3.9343   3.9343   4.1031   4.1031   4.1031   4.4221   4.4221
     4.4221   4.4227   4.4227   4.4657   4.4657   4.4657   4.4657   4.5350
     4.5350   4.5350   4.5350   4.5350   4.5350   4.6354   4.6354   4.9826
     4.9826   4.9826   4.9826   5.0818   5.0818   5.0818   5.0818   5.0818
     5.0818   5.1229   5.1229   5.2257   5.2291   5.2291   5.3664   5.3665
     5.3665   5.3665   5.3814   5.3814   5.3814   5.3814   5.3814   5.3814
     5.5975   5.5975   5.6136   5.6136   5.6136   5.7794   5.7886   5.7976
     5.7976   5.7976   5.8448   5.8448   5.8448   5.8448   5.8448   5.8448
     5.9570   5.9571   5.9571   5.9571   6.0235   6.0235   6.0905   6.0905
     6.0905   6.0905   6.2537   6.2537   6.2838   6.2838   6.2864   6.2864
     6.4801   6.4801   6.6257   6.7031

     occupation numbers 
     1.0000   1.0000   1.0000   1.0000   1.0000   1.0000   1.0000   1.0000
     1.0000   1.0000   1.0000   1.0000   1.0000   1.0000   1.0000   1.0000
     1.0000   1.0000   1.0000   1.0000   1.0000   1.0000   1.0000   1.0000
     1.0000   1.0000   1.0000   1.0000   1.0000   1.0000   1.0000   1.0000
     1.0000   1.0000   1.0000   1.0000   1.0000   1.0000   1.0000   1.0000
     1.0000   1.0000   1.0000   1.0000   1.0000   1.0000   1.0000   1.0000
     1.0000   1.0000   1.0000   1.0000   1.0000   1.0000   1.0000   1.0000
     1.0000   1.0000   1.0000   1.0000   1.0000   1.0000   1.0000   1.0000
     1.0000   1.0000   1.0000   1.0000   1.0000   1.0000   1.0000   1.0000
     1.0000   1.0000   1.0000   1.0000   1.0000   1.0000   1.0000   1.0000
     1.0000   1.0000   1.0000   1.0000   1.0000   1.0000   1.0000   1.0000
     1.0000   1.0000   1.0000   1.0000   1.0000   1.0000   1.0000   1.0000
     1.0000   1.0000   1.0000   1.0000   1.0000   1.0000   1.0000   1.0000
     1.0000   1.0000   1.0000   1.0000   1.0000   1.0000   1.0000   1.0000
     1.0000   1.0000   1.0000   1.0000   1.0000   1.0000   1.0000   1.0000
     1.0000   1.0000   1.0000   1.0000   1.0000   1.0000   1.0000   1.0000
     1.0000   1.0000   1.0000   1.0000   1.0000   1.0000   1.0000   1.0000
     1.0000   1.0000   1.0000   1.0000   1.0000   1.0000   1.0000   1.0000
     1.0000   1.0000   1.0000   1.0000   1.0000   1.0000   1.0000   1.0000
     1.0000   1.0000   1.0000   1.0000   1.0000   1.0000   1.0000   1.0000
     1.0000   1.0000   1.0000   1.0000   1.0000   1.0000   1.0000   1.0000
[...]
     atom   13 type  1   force =    -0.00000003   -0.00000002    0.00046407
     atom   14 type  1   force =     0.00000030   -0.00000014    0.00046401
     atom   15 type  2   force =     0.00000000   -0.00000001   -0.00006504
     atom   16 type  2   force =    -0.00000002   -0.00000000   -0.00006502
     atom   17 type  1   force =    -0.00000014    0.00000021    0.00046390
     atom   18 type  1   force =    -0.00000017   -0.00000013    0.00046417
     atom   19 type  2   force =    -0.00000001   -0.00000000   -0.00006505
     atom   20 type  2   force =    -0.00000000   -0.00000000   -0.00006508
     atom   21 type  1   force =    -0.00000003    0.00000004    0.00046429
     atom   22 type  1   force =    -0.00000001    0.00000002    0.00046416
     atom   23 type  2   force =    -0.00000000   -0.00000001   -0.00006504
     atom   24 type  2   force =     0.00000000   -0.00000000   -0.00006503
     atom   25 type  1   force =    -0.00000003    0.00000005    0.00046431
     atom   26 type  1   force =     0.00000002    0.00000002    0.00046415
     atom   27 type  2   force =     0.00000001   -0.00000000   -0.00006504
     atom   28 type  2   force =     0.00000001    0.00000001   -0.00006504
     atom   29 type  1   force =     0.00000006    0.00000001    0.00046407
     atom   30 type  1   force =     0.00000017    0.00000002    0.00046390
     atom   31 type  2   force =     0.00000001    0.00000002   -0.00006507
     atom   32 type  2   force =    -0.00000000    0.00000000   -0.00006507
     atom   33 type  1   force =    -0.00000005   -0.00000018    0.00046405
     atom   34 type  1   force =     0.00000005   -0.00000012    0.00046393
     atom   35 type  2   force =     0.00000000    0.00000000   -0.00006503
     atom   36 type  2   force =     0.00000000    0.00000001   -0.00006504
     atom   37 type  1   force =    -0.00000007   -0.00000003    0.00046428
     atom   38 type  1   force =    -0.00000025   -0.00000018    0.00046401
     atom   39 type  2   force =     0.00000000   -0.00000001   -0.00006504
     atom   40 type  2   force =     0.00000001   -0.00000000   -0.00006504
     atom   41 type  1   force =    -0.00000007    0.00000003    0.00046400
     atom   42 type  1   force =     0.00000018    0.00000010    0.00046394
     atom   43 type  2   force =    -0.00000000    0.00000000   -0.00006506
     atom   44 type  2   force =     0.00000001    0.00000001   -0.00006508
     atom   45 type  1   force =     0.00000018    0.00000026    0.00046397
     atom   46 type  1   force =     0.00000001    0.00000006    0.00046423
     atom   47 type  2   force =     0.00000000   -0.00000000   -0.00006503
     atom   48 type  2   force =     0.00000000   -0.00000001   -0.00006503
     atom   49 type  1   force =    -0.00000001    0.00000005    0.00046406
     atom   50 type  1   force =     0.00000016   -0.00000013    0.00046407
     atom   51 type  2   force =    -0.00000000   -0.00000001   -0.00006504
     atom   52 type  2   force =     0.00000000    0.00000001   -0.00006503
     atom   53 type  1   force =    -0.00000012    0.00000007    0.00046403
     atom   54 type  1   force =    -0.00000013    0.00000005    0.00046397
     atom   55 type  2   force =     0.00000001   -0.00000000   -0.00006506
     atom   56 type  2   force =    -0.00000001    0.00000000   -0.00006509
     atom   57 type  1   force =     0.00000008   -0.00000031    0.00046416
     atom   58 type  1   force =    -0.00000005   -0.00000012    0.00046391
     atom   59 type  2   force =     0.00000003   -0.00000001   -0.00006503
     atom   60 type  2   force =     0.00000001    0.00000000   -0.00006503
     atom   61 type  1   force =     0.00000002   -0.00000004    0.00046430
     atom   62 type  1   force =    -0.00000002    0.00000016    0.00046401
     atom   63 type  2   force =     0.00000001    0.00000001   -0.00006504
     atom   64 type  2   force =    -0.00000001   -0.00000001   -0.00006503
     atom   65 type  1   force =     0.00000017    0.00000003    0.00046392
     atom   66 type  1   force =     0.00000009   -0.00000023    0.00046390
     atom   67 type  2   force =    -0.00000000   -0.00000000   -0.00006506
     atom   68 type  2   force =    -0.00000000    0.00000001   -0.00006507
     atom   69 type  1   force =    -0.00000025    0.00000030    0.00046390
     atom   70 type  1   force =    -0.00000002   -0.00000000    0.00046444
     atom   71 type  2   force =     0.00000000    0.00000001   -0.00006503
     atom   72 type  2   force =     0.00000000    0.00000001   -0.00006503
     The Hubbard contrib.    to forces
     atom    1 type  1   force =     0.00000000    0.00000000    0.00000000
     atom    2 type  1   force =     0.00000000    0.00000000    0.00000000
     atom    3 type  2   force =     0.00000000    0.00000000    0.00000000
     atom    4 type  2   force =     0.00000000    0.00000000    0.00000000
     atom    5 type  1   force =     0.00000000    0.00000000    0.00000000
     atom    6 type  1   force =     0.00000000    0.00000000    0.00000000
     atom    7 type  2   force =     0.00000000    0.00000000    0.00000000
     atom    8 type  2   force =     0.00000000    0.00000000    0.00000000
     atom    9 type  1   force =     0.00000000    0.00000000    0.00000000
     atom   10 type  1   force =     0.00000000    0.00000000    0.00000000
     atom   11 type  2   force =     0.00000000    0.00000000    0.00000000
     atom   12 type  2   force =     0.00000000    0.00000000    0.00000000
     atom   13 type  1   force =     0.00000000    0.00000000    0.00000000
     atom   14 type  1   force =     0.00000000    0.00000000    0.00000000
     atom   15 type  2   force =     0.00000000    0.00000000    0.00000000
     atom   16 type  2   force =     0.00000000    0.00000000    0.00000000
     atom   17 type  1   force =     0.00000000    0.00000000    0.00000000
     atom   18 type  1   force =     0.00000000    0.00000000    0.00000000
     atom   19 type  2   force =     0.00000000    0.00000000    0.00000000
     atom   20 type  2   force =     0.00000000    0.00000000    0.00000000
     atom   21 type  1   force =     0.00000000    0.00000000    0.00000000
     atom   22 type  1   force =     0.00000000    0.00000000    0.00000000
     atom   23 type  2   force =     0.00000000    0.00000000    0.00000000
     atom   24 type  2   force =     0.00000000    0.00000000    0.00000000
     atom   25 type  1   force =     0.00000000    0.00000000    0.00000000
     atom   26 type  1   force =     0.00000000    0.00000000    0.00000000
     atom   27 type  2   force =     0.00000000    0.00000000    0.00000000
     atom   28 type  2   force =     0.00000000    0.00000000    0.00000000
     atom   29 type  1   force =     0.00000000    0.00000000    0.00000000
     atom   30 type  1   force =     0.00000000    0.00000000    0.00000000
     atom   31 type  2   force =     0.00000000    0.00000000    0.00000000
     atom   32 type  2   force =     0.00000000    0.00000000    0.00000000
     atom   33 type  1   force =     0.00000000    0.00000000    0.00000000
     atom   34 type  1   force =     0.00000000    0.00000000    0.00000000
     atom   35 type  2   force =     0.00000000    0.00000000    0.00000000
     atom   36 type  2   force =     0.00000000    0.00000000    0.00000000
     atom   37 type  1   force =     0.00000000    0.00000000    0.00000000
     atom   38 type  1   force =     0.00000000    0.00000000    0.00000000
     atom   39 type  2   force =     0.00000000    0.00000000    0.00000000
     atom   40 type  2   force =     0.00000000    0.00000000    0.00000000
     atom   41 type  1   force =     0.00000000    0.00000000    0.00000000
     atom   42 type  1   force =     0.00000000    0.00000000    0.00000000
     atom   43 type  2   force =     0.00000000    0.00000000    0.00000000
     atom   44 type  2   force =     0.00000000    0.00000000    0.00000000
     atom   45 type  1   force =     0.00000000    0.00000000    0.00000000
     atom   46 type  1   force =     0.00000000    0.00000000    0.00000000
     atom   47 type  2   force =     0.00000000    0.00000000    0.00000000
     atom   48 type  2   force =     0.00000000    0.00000000    0.00000000
     atom   49 type  1   force =     0.00000000    0.00000000    0.00000000
     atom   50 type  1   force =     0.00000000    0.00000000    0.00000000
     atom   51 type  2   force =     0.00000000    0.00000000    0.00000000
     atom   52 type  2   force =     0.00000000    0.00000000    0.00000000
     atom   53 type  1   force =     0.00000000    0.00000000    0.00000000
     atom   54 type  1   force =     0.00000000    0.00000000    0.00000000
     atom   55 type  2   force =     0.00000000    0.00000000    0.00000000
     atom   56 type  2   force =     0.00000000    0.00000000    0.00000000
     atom   57 type  1   force =     0.00000000    0.00000000    0.00000000
     atom   58 type  1   force =     0.00000000    0.00000000    0.00000000
     atom   59 type  2   force =     0.00000000    0.00000000    0.00000000
     atom   60 type  2   force =     0.00000000    0.00000000    0.00000000
     atom   61 type  1   force =     0.00000000    0.00000000    0.00000000
     atom   62 type  1   force =     0.00000000    0.00000000    0.00000000
     atom   63 type  2   force =     0.00000000    0.00000000    0.00000000
     atom   64 type  2   force =     0.00000000    0.00000000    0.00000000
     atom   65 type  1   force =     0.00000000    0.00000000    0.00000000
     atom   66 type  1   force =     0.00000000    0.00000000    0.00000000
     atom   67 type  2   force =     0.00000000    0.00000000    0.00000000
     atom   68 type  2   force =     0.00000000    0.00000000    0.00000000
     atom   69 type  1   force =     0.00000000    0.00000000    0.00000000
     atom   70 type  1   force =     0.00000000    0.00000000    0.00000000
     atom   71 type  2   force =     0.00000000    0.00000000    0.00000000
     atom   72 type  2   force =     0.00000000    0.00000000    0.00000000
     The SCF correction term to forces
     atom    1 type  1   force =     0.00000723    0.00000030    0.00001069
     atom    2 type  1   force =    -0.00000599    0.00001136   -0.00000191
     atom    3 type  2   force =     0.00000498   -0.00000152    0.00000086
     atom    4 type  2   force =     0.00000063    0.00000158    0.00000611
     atom    5 type  1   force =     0.00000550   -0.00001476   -0.00002497
     atom    6 type  1   force =    -0.00000101    0.00000044   -0.00000490
     atom    7 type  2   force =     0.00000121   -0.00000388   -0.00000162
     atom    8 type  2   force =    -0.00000134   -0.00000147   -0.00001143
     atom    9 type  1   force =    -0.00000927   -0.00000487    0.00000495
     atom   10 type  1   force =    -0.00000034   -0.00000592    0.00000086
     atom   11 type  2   force =    -0.00000229    0.00000097    0.00000569
     atom   12 type  2   force =    -0.00000166   -0.00000163    0.00000906
     atom   13 type  1   force =     0.00000256    0.00000359    0.00000605
     atom   14 type  1   force =     0.00001355   -0.00000590    0.00000240
     atom   15 type  2   force =     0.00000062    0.00000404    0.00000007
     atom   16 type  2   force =     0.00000401    0.00000048    0.00000908
     atom   17 type  1   force =    -0.00000826    0.00001193   -0.00002695
     atom   18 type  1   force =    -0.00000600   -0.00000120    0.00000269
     atom   19 type  2   force =    -0.00000023    0.00000371   -0.00000171
     atom   20 type  2   force =    -0.00000100    0.00000041   -0.00001210
     atom   21 type  1   force =     0.00000275   -0.00000007    0.00001797
     atom   22 type  1   force =    -0.00000108    0.00000702   -0.00000213
     atom   23 type  2   force =     0.00000149   -0.00000145    0.00000515
     atom   24 type  2   force =     0.00000003    0.00000135    0.00000547
     atom   25 type  1   force =     0.00000255    0.00000120    0.00002479
     atom   26 type  1   force =    -0.00000685   -0.00000101    0.00001172
     atom   27 type  2   force =     0.00000222    0.00000338    0.00000189
     atom   28 type  2   force =     0.00000020   -0.00000120    0.00001365
     atom   29 type  1   force =     0.00000249   -0.00000044   -0.00002825
     atom   30 type  1   force =     0.00001691    0.00000031   -0.00001055
     atom   31 type  2   force =     0.00000024   -0.00000248   -0.00000627
     atom   32 type  2   force =     0.00000667   -0.00000269   -0.00001406
     atom   33 type  1   force =     0.00000048   -0.00001584    0.00000518
     atom   34 type  1   force =     0.00000256   -0.00000372   -0.00000984
     atom   35 type  2   force =     0.00000060   -0.00000600    0.00000747
     atom   36 type  2   force =    -0.00000210   -0.00000041    0.00000425
     atom   37 type  1   force =     0.00000193   -0.00000032    0.00002213
     atom   38 type  1   force =    -0.00001016   -0.00000704    0.00000177
     atom   39 type  2   force =     0.00000489    0.00000097    0.00000019
     atom   40 type  2   force =    -0.00000024    0.00000029    0.00001023
     atom   41 type  1   force =     0.00000583    0.00000406   -0.00002703
     atom   42 type  1   force =     0.00000694    0.00001466   -0.00000845
     atom   43 type  2   force =     0.00000176    0.00000285   -0.00000294
     atom   44 type  2   force =     0.00000122    0.00000760   -0.00001236
     atom   45 type  1   force =     0.00000082    0.00001668    0.00000187
     atom   46 type  1   force =     0.00000167    0.00000902   -0.00000454
     atom   47 type  2   force =    -0.00000425    0.00000344    0.00000529
     atom   48 type  2   force =    -0.00000018   -0.00000058    0.00000759
     atom   49 type  1   force =    -0.00000741    0.00000033    0.00001177
     atom   50 type  1   force =     0.00000946   -0.00000797    0.00000886
     atom   51 type  2   force =    -0.00000637   -0.00000275    0.00000073
     atom   52 type  2   force =    -0.00000123   -0.00000333    0.00001360
     atom   53 type  1   force =    -0.00000654   -0.00000423   -0.00002326
     atom   54 type  1   force =    -0.00001815    0.00000404   -0.00000806
     atom   55 type  2   force =    -0.00000114   -0.00000384   -0.00000103
     atom   56 type  2   force =    -0.00000554   -0.00000060   -0.00001489
     atom   57 type  1   force =     0.00001073   -0.00001531    0.00000782
     atom   58 type  1   force =    -0.00000155   -0.00000555   -0.00001296
     atom   59 type  2   force =     0.00000220    0.00000136    0.00000399
     atom   60 type  2   force =     0.00000210   -0.00000305    0.00000428
     atom   61 type  1   force =    -0.00000204   -0.00000501    0.00002366
     atom   62 type  1   force =    -0.00000447    0.00001167   -0.00000010
     atom   63 type  2   force =    -0.00000512   -0.00000410    0.00000395
     atom   64 type  2   force =    -0.00000292    0.00000010    0.00001301
     atom   65 type  1   force =     0.00000270    0.00000002   -0.00003230
     atom   66 type  1   force =    -0.00000379   -0.00001227   -0.00001064
     atom   67 type  2   force =    -0.00000049    0.00000268   -0.00000352
     atom   68 type  2   force =    -0.00000055   -0.00000325   -0.00001315
     atom   69 type  1   force =    -0.00000210    0.00001730    0.00000077
     atom   70 type  1   force =     0.00000001    0.00000622    0.00000422
     atom   71 type  2   force =     0.00000327    0.00000220    0.00000442
     atom   72 type  2   force =    -0.00000056    0.00000520    0.00000417

     Total force =     0.000519     Total SCF correction =     0.000122
     SCF correction compared to forces is large: reduce conv_thr to get better values

     init_run     :     35.78s CPU     28.48s WALL (       1 calls)
     electrons    :   3433.72s CPU   2353.93s WALL (       1 calls)
     forces       :     20.86s CPU     15.35s WALL (       1 calls)

     Called by init_run:
     wfcinit      :     23.97s CPU     16.53s WALL (       1 calls)
     wfcinit:atom :      0.09s CPU      0.17s WALL (       2 calls)
     wfcinit:wfcr :     23.31s CPU     15.70s WALL (       2 calls)
     potinit      :      4.09s CPU      4.15s WALL (       1 calls)
     hinit0       :      6.85s CPU      6.89s WALL (       1 calls)

     Called by electrons:
     c_bands      :   3223.51s CPU   2182.80s WALL (      31 calls)
     sum_band     :    184.40s CPU    145.70s WALL (      31 calls)
     v_of_rho     :     10.67s CPU     11.27s WALL (      32 calls)
     v_h          :      0.72s CPU      0.79s WALL (      32 calls)
     v_xc         :     10.24s CPU     10.79s WALL (      33 calls)
     newd         :     12.84s CPU     11.95s WALL (      32 calls)
     mix_rho      :      1.85s CPU      1.73s WALL (      31 calls)

     Called by c_bands:
     init_us_2    :      6.31s CPU      5.78s WALL (     128 calls)
     init_us_2:cp :      6.30s CPU      5.78s WALL (     128 calls)
     cegterg      :   3131.05s CPU   2091.28s WALL (      62 calls)

     Called by sum_band:
     sum_band:wei :      0.02s CPU      0.02s WALL (      31 calls)
     sum_band:loo :    167.95s CPU    130.86s WALL (      31 calls)
     sum_band:buf :      1.04s CPU      0.97s WALL (      62 calls)
     sum_band:ini :      2.96s CPU      2.64s WALL (      62 calls)
     sum_band:cal :     84.12s CPU     43.14s WALL (      62 calls)
     sum_band:bec :      0.66s CPU      0.56s WALL (      62 calls)
     addusdens    :     12.59s CPU     11.32s WALL (      31 calls)
                                        0.00s GPU  (      31 calls)
     addusd:skk   :      0.63s CPU      0.66s WALL (      62 calls)
                                        0.00s GPU  (      62 calls)

     Called by *egterg:
     cdiaghg      :    469.95s CPU    410.56s WALL (     603 calls)
     cegterg:over :    325.97s CPU    171.05s WALL (     541 calls)
     cegterg:upda :    206.31s CPU    108.23s WALL (     541 calls)
     cegterg:last :    538.00s CPU    287.41s WALL (     245 calls)
     cdiaghg:chol :     11.48s CPU      9.68s WALL (     603 calls)
     cdiaghg:inve :      6.40s CPU      4.35s WALL (     603 calls)
     cdiaghg:para :     87.02s CPU     56.74s WALL (    1206 calls)
     h_psi        :   1206.45s CPU    911.48s WALL (     605 calls)
     s_psi        :    343.39s CPU    175.03s WALL (     605 calls)
     g_psi        :      3.47s CPU      2.91s WALL (     541 calls)

     Called by h_psi:
     h_psi:calbec :    340.35s CPU    182.63s WALL (     605 calls)
     vloc_psi     :    517.44s CPU    546.00s WALL (     605 calls)
     add_vuspsi   :    345.36s CPU    177.56s WALL (     605 calls)

     General routines
     calbec       :    435.42s CPU    231.37s WALL (     675 calls)
     fft          :      7.03s CPU      7.74s WALL (     425 calls)
     ffts         :      0.59s CPU      0.62s WALL (      63 calls)
     fftw         :    474.97s CPU    503.56s WALL (  179356 calls)
     interpolate  :      0.92s CPU      1.02s WALL (      32 calls)

     Parallel routines

     PWSCF        :  58m12.29s CPU  39m59.73s WALL


   This run was terminated on:  12: 2: 8  14Aug2025            

=------------------------------------------------------------------------------=
   JOB DONE.
=------------------------------------------------------------------------------=
Note: The following floating-point exceptions are signalling: IEEE_DENORMAL
Note: The following floating-point exceptions are signalling: IEEE_DENORMAL
Note: The following floating-point exceptions are signalling: IEEE_DENORMAL
Note: The following floating-point exceptions are signalling: IEEE_DENORMAL
Note: The following floating-point exceptions are signalling: IEEE_INVALID_FLAG
Note: The following floating-point exceptions are signalling: IEEE_INVALID_FLAG
Note: The following floating-point exceptions are signalling: IEEE_INVALID_FLAG
Note: The following floating-point exceptions are signalling: IEEE_INVALID_FLAG
