
     Program PWSCF v.7.2 starts on 13Aug2025 at  4:34:21 

     This program is part of the open-source Quantum ESPRESSO suite
     for quantum simulation of materials; please cite
         "P. Giannozzi et al., J. Phys.:Condens. Matter 21 395502 (2009);
         "P. Giannozzi et al., J. Phys.:Condens. Matter 29 465901 (2017);
         "P. Giannozzi et al., J. Chem. Phys. 152 154105 (2020);
          URL http://www.quantum-espresso.org", 
     in publications or presentations arising from this work. More details at
     http://www.quantum-espresso.org/quote

     Parallel version (MPI), running on    32 processors

     MPI processes distributed on     1 nodes
     123430 MiB available memory on the printing compute node when the environment starts

     Reading input from /home/jvc/QEspresso7.2/ZnO_database/scripts/cell323.in/ZnO-3.07-1.45-323.in
Warning: card &CELL ignored
Warning: card / ignored
Warning: card &FCP ignored
Warning: card / ignored
Warning: card &RISM ignored
Warning: card / ignored

     Current dimensions of program PWSCF are:
     Max number of different atomic species (ntypx) = 10
     Max number of k-points (npk) =  40000
     Max angular momentum in pseudopotentials (lmaxx) =  4
     file Zn.upf: wavefunction(s)  3D renormalized
     Found identity + (  0.0000  0.0000  0.3333) symmetry
     This is a supercell, fractional translations are disabled

     K-points division:     npool     =       4
     R & G space division:  proc/nbgrp/npool/nimage =       8
     Subspace diagonalization in iterative solution of the eigenvalue problem:
     one sub-group per band group will be used
     custom distributed-memory algorithm (size of sub-group:  2*  2 procs)


     Parallelization info
     --------------------
     sticks:   dense  smooth     PW     G-vecs:    dense   smooth      PW
     Min         788     394    104               100238    35448    4858
     Max         792     395    105               100240    35453    4863
     Sum        6311    3155    839               801909   283605   38887

     Using Slab Decomposition



     bravais-lattice index     =            0
     lattice parameter (alat)  =      18.5365  a.u.
     unit-cell volume          =    5936.3583 (a.u.)^3
     number of atoms/cell      =           72
     number of atomic types    =            2
     number of electrons       =       648.00
     number of Kohn-Sham states=          324
     kinetic-energy cutoff     =      50.0000  Ry
     charge density cutoff     =     400.0000  Ry
     scf convergence threshold =      1.0E-08
     mixing beta               =       0.3000
     number of iterations used =            8  plain     mixing
     Exchange-correlation= PBE
                           (   1   4   3   4   0   0   0)

     celldm(1)=  18.536466  celldm(2)=   0.000000  celldm(3)=   0.000000
     celldm(4)=   0.000000  celldm(5)=   0.000000  celldm(6)=   0.000000

     crystal axes: (cart. coord. in units of alat)
               a(1) = (   1.000000   0.000000   0.000000 )  
               a(2) = (  -0.333333   0.577350   0.000000 )  
               a(3) = (   0.000000   0.000000   1.614358 )  

     reciprocal axes: (cart. coord. in units 2 pi/alat)
               b(1) = (  1.000000  0.577350 -0.000000 )  
               b(2) = (  0.000000  1.732051  0.000000 )  
               b(3) = (  0.000000 -0.000000  0.619441 )  


     PseudoPot. # 1 for Zn read from file:
     /home/jvc/QEspresso7.2/ZnO_database/pseudos/Zn.upf
     MD5 check sum: 7f56cabf9682ed8c977c2f7d0c5985c5
     Pseudo is Ultrasoft + core correction, Zval = 12.0
     Generated using &quot;atomic&quot; code by A. Dal Corso  v.6.2.2
     Using radial grid of 1201 points,  6 beta functions with: 
                l(1) =   0
                l(2) =   0
                l(3) =   1
                l(4) =   1
                l(5) =   2
                l(6) =   2
     Q(r) pseudized with 0 coefficients 


     PseudoPot. # 2 for O  read from file:
     /home/jvc/QEspresso7.2/ZnO_database/pseudos/O.upf
     MD5 check sum: 91400c9766925bcf19f520983a725ff0
     Pseudo is Ultrasoft + core correction, Zval =  6.0
     Generated using &quot;atomic&quot; code by A. Dal Corso  v.6.3MaX
     Using radial grid of 1095 points,  4 beta functions with: 
                l(1) =   0
                l(2) =   0
                l(3) =   1
                l(4) =   1
     Q(r) pseudized with 0 coefficients 


     atomic species   valence    mass     pseudopotential
        Zn            12.00    65.38000     Zn( 1.00)
        O              6.00    15.99900     O ( 1.00)

     No symmetry found


                                    s                        frac. trans.

      isym =  1     identity                                     

 cryst.   s( 1) = (     1          0          0      )
                  (     0          1          0      )
                  (     0          0          1      )

 cart.    s( 1) = (  1.0000000  0.0000000  0.0000000 )
                  (  0.0000000  1.0000000  0.0000000 )
                  (  0.0000000  0.0000000  1.0000000 )


   Cartesian axes

     site n.     atom                  positions (alat units)
         1           Zn  tau(   1) = (   0.1666667   0.0962250   0.2694007  )
         2           Zn  tau(   2) = (   0.0000000   0.1924501   0.0003409  )
         3           O   tau(   3) = (   0.1666667   0.0962250   0.4733710  )
         4           O   tau(   4) = (   0.0000000   0.1924501   0.2043113  )
         5           Zn  tau(   5) = (   0.1666667   0.0962250   0.8075201  )
         6           Zn  tau(   6) = (   0.0000000   0.1924501   0.5384604  )
         7           O   tau(   7) = (   0.1666667   0.0962250   1.0114904  )
         8           O   tau(   8) = (   0.0000000   0.1924501   0.7424307  )
         9           Zn  tau(   9) = (   0.1666667   0.0962250   1.3456396  )
        10           Zn  tau(  10) = (   0.0000000   0.1924501   1.0765798  )
        11           O   tau(  11) = (   0.1666667   0.0962250   1.5496099  )
        12           O   tau(  12) = (   0.0000000   0.1924501   1.2805502  )
        13           Zn  tau(  13) = (   0.0000000   0.3849002   0.2694007  )
        14           Zn  tau(  14) = (  -0.1666667   0.4811252   0.0003409  )
        15           O   tau(  15) = (   0.0000000   0.3849002   0.4733710  )
        16           O   tau(  16) = (  -0.1666667   0.4811252   0.2043113  )
        17           Zn  tau(  17) = (   0.0000000   0.3849002   0.8075201  )
        18           Zn  tau(  18) = (  -0.1666667   0.4811252   0.5384604  )
        19           O   tau(  19) = (   0.0000000   0.3849002   1.0114904  )
        20           O   tau(  20) = (  -0.1666667   0.4811252   0.7424307  )
        21           Zn  tau(  21) = (   0.0000000   0.3849002   1.3456396  )
        22           Zn  tau(  22) = (  -0.1666667   0.4811252   1.0765798  )
        23           O   tau(  23) = (   0.0000000   0.3849002   1.5496099  )
        24           O   tau(  24) = (  -0.1666667   0.4811252   1.2805502  )
        25           Zn  tau(  25) = (   0.5000000   0.0962250   0.2694007  )
        26           Zn  tau(  26) = (   0.3333333   0.1924501   0.0003409  )
        27           O   tau(  27) = (   0.5000000   0.0962250   0.4733710  )
        28           O   tau(  28) = (   0.3333333   0.1924501   0.2043113  )
        29           Zn  tau(  29) = (   0.5000000   0.0962250   0.8075201  )
        30           Zn  tau(  30) = (   0.3333333   0.1924501   0.5384604  )
        31           O   tau(  31) = (   0.5000000   0.0962250   1.0114904  )
        32           O   tau(  32) = (   0.3333333   0.1924501   0.7424307  )
        33           Zn  tau(  33) = (   0.5000000   0.0962250   1.3456396  )
        34           Zn  tau(  34) = (   0.3333333   0.1924501   1.0765798  )
        35           O   tau(  35) = (   0.5000000   0.0962250   1.5496099  )
        36           O   tau(  36) = (   0.3333333   0.1924501   1.2805502  )
        37           Zn  tau(  37) = (   0.3333333   0.3849002   0.2694007  )
        38           Zn  tau(  38) = (   0.1666667   0.4811252   0.0003409  )
        39           O   tau(  39) = (   0.3333333   0.3849002   0.4733710  )
        40           O   tau(  40) = (   0.1666667   0.4811252   0.2043113  )
        41           Zn  tau(  41) = (   0.3333333   0.3849002   0.8075201  )
        42           Zn  tau(  42) = (   0.1666667   0.4811252   0.5384604  )
        43           O   tau(  43) = (   0.3333333   0.3849002   1.0114904  )
        44           O   tau(  44) = (   0.1666667   0.4811252   0.7424307  )
        45           Zn  tau(  45) = (   0.3333333   0.3849002   1.3456396  )
        46           Zn  tau(  46) = (   0.1666667   0.4811252   1.0765798  )
        47           O   tau(  47) = (   0.3333333   0.3849002   1.5496099  )
        48           O   tau(  48) = (   0.1666667   0.4811252   1.2805502  )
        49           Zn  tau(  49) = (   0.8333333   0.0962250   0.2694007  )
        50           Zn  tau(  50) = (   0.6666667   0.1924501   0.0003409  )
        51           O   tau(  51) = (   0.8333333   0.0962250   0.4733710  )
        52           O   tau(  52) = (   0.6666667   0.1924501   0.2043113  )
        53           Zn  tau(  53) = (   0.8333333   0.0962250   0.8075201  )
        54           Zn  tau(  54) = (   0.6666667   0.1924501   0.5384604  )
        55           O   tau(  55) = (   0.8333333   0.0962250   1.0114904  )
        56           O   tau(  56) = (   0.6666667   0.1924501   0.7424307  )
        57           Zn  tau(  57) = (   0.8333333   0.0962250   1.3456396  )
        58           Zn  tau(  58) = (   0.6666667   0.1924501   1.0765798  )
        59           O   tau(  59) = (   0.8333333   0.0962250   1.5496099  )
        60           O   tau(  60) = (   0.6666667   0.1924501   1.2805502  )
        61           Zn  tau(  61) = (   0.6666667   0.3849002   0.2694007  )
        62           Zn  tau(  62) = (   0.5000000   0.4811252   0.0003409  )
        63           O   tau(  63) = (   0.6666667   0.3849002   0.4733710  )
        64           O   tau(  64) = (   0.5000000   0.4811252   0.2043113  )
        65           Zn  tau(  65) = (   0.6666667   0.3849002   0.8075201  )
        66           Zn  tau(  66) = (   0.5000000   0.4811252   0.5384604  )
        67           O   tau(  67) = (   0.6666667   0.3849002   1.0114904  )
        68           O   tau(  68) = (   0.5000000   0.4811252   0.7424307  )
        69           Zn  tau(  69) = (   0.6666667   0.3849002   1.3456396  )
        70           Zn  tau(  70) = (   0.5000000   0.4811252   1.0765798  )
        71           O   tau(  71) = (   0.6666667   0.3849002   1.5496099  )
        72           O   tau(  72) = (   0.5000000   0.4811252   1.2805502  )

   Crystallographic axes

     site n.     atom                  positions (cryst. coord.)
         1           Zn  tau(   1) = (  0.2222222  0.1666667  0.1668779  )
         2           Zn  tau(   2) = (  0.1111111  0.3333333  0.0002112  )
         3           O   tau(   3) = (  0.2222222  0.1666667  0.2932255  )
         4           O   tau(   4) = (  0.1111111  0.3333333  0.1265588  )
         5           Zn  tau(   5) = (  0.2222222  0.1666667  0.5002112  )
         6           Zn  tau(   6) = (  0.1111111  0.3333333  0.3335445  )
         7           O   tau(   7) = (  0.2222222  0.1666667  0.6265588  )
         8           O   tau(   8) = (  0.1111111  0.3333333  0.4598921  )
         9           Zn  tau(   9) = (  0.2222222  0.1666667  0.8335445  )
        10           Zn  tau(  10) = (  0.1111111  0.3333333  0.6668779  )
        11           O   tau(  11) = (  0.2222222  0.1666667  0.9598921  )
        12           O   tau(  12) = (  0.1111111  0.3333333  0.7932255  )
        13           Zn  tau(  13) = (  0.2222222  0.6666667  0.1668779  )
        14           Zn  tau(  14) = (  0.1111111  0.8333333  0.0002112  )
        15           O   tau(  15) = (  0.2222222  0.6666667  0.2932255  )
        16           O   tau(  16) = (  0.1111111  0.8333333  0.1265588  )
        17           Zn  tau(  17) = (  0.2222222  0.6666667  0.5002112  )
        18           Zn  tau(  18) = (  0.1111111  0.8333333  0.3335445  )
        19           O   tau(  19) = (  0.2222222  0.6666667  0.6265588  )
        20           O   tau(  20) = (  0.1111111  0.8333333  0.4598921  )
        21           Zn  tau(  21) = (  0.2222222  0.6666667  0.8335445  )
        22           Zn  tau(  22) = (  0.1111111  0.8333333  0.6668779  )
        23           O   tau(  23) = (  0.2222222  0.6666667  0.9598921  )
        24           O   tau(  24) = (  0.1111111  0.8333333  0.7932255  )
        25           Zn  tau(  25) = (  0.5555556  0.1666667  0.1668779  )
        26           Zn  tau(  26) = (  0.4444444  0.3333333  0.0002112  )
        27           O   tau(  27) = (  0.5555556  0.1666667  0.2932255  )
        28           O   tau(  28) = (  0.4444444  0.3333333  0.1265588  )
        29           Zn  tau(  29) = (  0.5555556  0.1666667  0.5002112  )
        30           Zn  tau(  30) = (  0.4444444  0.3333333  0.3335445  )
        31           O   tau(  31) = (  0.5555556  0.1666667  0.6265588  )
        32           O   tau(  32) = (  0.4444444  0.3333333  0.4598921  )
        33           Zn  tau(  33) = (  0.5555556  0.1666667  0.8335445  )
        34           Zn  tau(  34) = (  0.4444444  0.3333333  0.6668779  )
        35           O   tau(  35) = (  0.5555556  0.1666667  0.9598921  )
        36           O   tau(  36) = (  0.4444444  0.3333333  0.7932255  )
        37           Zn  tau(  37) = (  0.5555556  0.6666667  0.1668779  )
        38           Zn  tau(  38) = (  0.4444444  0.8333333  0.0002112  )
        39           O   tau(  39) = (  0.5555556  0.6666667  0.2932255  )
        40           O   tau(  40) = (  0.4444444  0.8333333  0.1265588  )
        41           Zn  tau(  41) = (  0.5555556  0.6666667  0.5002112  )
        42           Zn  tau(  42) = (  0.4444444  0.8333333  0.3335445  )
        43           O   tau(  43) = (  0.5555556  0.6666667  0.6265588  )
        44           O   tau(  44) = (  0.4444444  0.8333333  0.4598921  )
        45           Zn  tau(  45) = (  0.5555556  0.6666667  0.8335445  )
        46           Zn  tau(  46) = (  0.4444444  0.8333333  0.6668779  )
        47           O   tau(  47) = (  0.5555556  0.6666667  0.9598921  )
        48           O   tau(  48) = (  0.4444444  0.8333333  0.7932255  )
        49           Zn  tau(  49) = (  0.8888889  0.1666667  0.1668779  )
        50           Zn  tau(  50) = (  0.7777778  0.3333333  0.0002112  )
        51           O   tau(  51) = (  0.8888889  0.1666667  0.2932255  )
        52           O   tau(  52) = (  0.7777778  0.3333333  0.1265588  )
        53           Zn  tau(  53) = (  0.8888889  0.1666667  0.5002112  )
        54           Zn  tau(  54) = (  0.7777778  0.3333333  0.3335445  )
        55           O   tau(  55) = (  0.8888889  0.1666667  0.6265588  )
        56           O   tau(  56) = (  0.7777778  0.3333333  0.4598921  )
        57           Zn  tau(  57) = (  0.8888889  0.1666667  0.8335445  )
        58           Zn  tau(  58) = (  0.7777778  0.3333333  0.6668779  )
        59           O   tau(  59) = (  0.8888889  0.1666667  0.9598921  )
        60           O   tau(  60) = (  0.7777778  0.3333333  0.7932255  )
        61           Zn  tau(  61) = (  0.8888889  0.6666667  0.1668779  )
        62           Zn  tau(  62) = (  0.7777778  0.8333333  0.0002112  )
        63           O   tau(  63) = (  0.8888889  0.6666667  0.2932255  )
        64           O   tau(  64) = (  0.7777778  0.8333333  0.1265588  )
        65           Zn  tau(  65) = (  0.8888889  0.6666667  0.5002112  )
        66           Zn  tau(  66) = (  0.7777778  0.8333333  0.3335445  )
        67           O   tau(  67) = (  0.8888889  0.6666667  0.6265588  )
        68           O   tau(  68) = (  0.7777778  0.8333333  0.4598921  )
        69           Zn  tau(  69) = (  0.8888889  0.6666667  0.8335445  )
        70           Zn  tau(  70) = (  0.7777778  0.8333333  0.6668779  )
        71           O   tau(  71) = (  0.8888889  0.6666667  0.9598921  )
        72           O   tau(  72) = (  0.7777778  0.8333333  0.7932255  )

     number of k points=     8
                       cart. coord. in units 2pi/alat
        k(    1) = (   0.0000000   0.0000000   0.0000000), wk =   0.1666667
        k(    2) = (   0.0000000   0.0000000  -0.3097206), wk =   0.1666667
        k(    3) = (   0.0000000   0.5773503   0.0000000), wk =   0.3333333
        k(    4) = (   0.0000000   0.5773503  -0.3097206), wk =   0.3333333
        k(    5) = (  -0.5000000  -0.2886751   0.0000000), wk =   0.1666667
        k(    6) = (  -0.5000000  -0.2886751  -0.3097206), wk =   0.1666667
        k(    7) = (  -0.5000000   0.2886751   0.0000000), wk =   0.3333333
        k(    8) = (  -0.5000000   0.2886751  -0.3097206), wk =   0.3333333

                       cryst. coord.
        k(    1) = (   0.0000000   0.0000000   0.0000000), wk =   0.1666667
        k(    2) = (   0.0000000   0.0000000  -0.5000000), wk =   0.1666667
        k(    3) = (   0.0000000   0.3333333   0.0000000), wk =   0.3333333
        k(    4) = (   0.0000000   0.3333333  -0.5000000), wk =   0.3333333
        k(    5) = (  -0.5000000  -0.0000000   0.0000000), wk =   0.1666667
        k(    6) = (  -0.5000000  -0.0000000  -0.5000000), wk =   0.1666667
        k(    7) = (  -0.5000000   0.3333333   0.0000000), wk =   0.3333333
        k(    8) = (  -0.5000000   0.3333333  -0.5000000), wk =   0.3333333

     Dense  grid:   801909 G-vectors     FFT dimensions: ( 120,  80, 192)

     Smooth grid:   283605 G-vectors     FFT dimensions: (  90,  60, 135)

     Dynamical RAM for                 wfc:      21.90 MB

     Dynamical RAM for     wfc (w. buffer):      65.70 MB

     Dynamical RAM for           str. fact:       3.06 MB

     Dynamical RAM for           local pot:       0.00 MB

     Dynamical RAM for          nlocal pot:      63.27 MB

     Dynamical RAM for                qrad:       3.21 MB

     Dynamical RAM for          rho,v,vnew:       9.86 MB

     Dynamical RAM for               rhoin:       3.29 MB

     Dynamical RAM for            rho*nmix:      24.47 MB

     Dynamical RAM for           G-vectors:       6.01 MB

     Dynamical RAM for          h,s,v(r/c):       4.81 MB

     Dynamical RAM for          <psi|beta>:       4.63 MB

     Dynamical RAM for                 psi:      43.80 MB

     Dynamical RAM for                hpsi:      43.80 MB

     Dynamical RAM for                spsi:      43.80 MB

     Dynamical RAM for      wfcinit/wfcrot:      68.29 MB

     Dynamical RAM for           addusdens:      86.04 MB

     Dynamical RAM for          addusforce:     112.56 MB

     Estimated static dynamical RAM per process >     167.78 MB

     Estimated max dynamical RAM per process >     333.09 MB

     Estimated total dynamical RAM >       9.84 GB

     Check: negative core charge=   -0.000002

     Initial potential from superposition of free atoms

     starting charge     647.8659, renormalised to     648.0000
     Starting wfcs are  468 randomized atomic wfcs

     total cpu time spent up to now is       30.0 secs

     Self-consistent Calculation

     iteration #  1     ecut=    50.00 Ry     beta= 0.30
     Davidson diagonalization with overlap

---- Real-time Memory Report at c_bands before calling an iterative solver
           257 MiB given to the printing process from OS
             0 MiB allocation reported by mallinfo(arena+hblkhd)
        118303 MiB available memory on the node where the printing process lives
------------------
     ethr =  1.00E-02,  avg # of iterations =  2.0

     total cpu time spent up to now is       65.2 secs

     total energy              =   -6506.63553669 Ry
     estimated scf accuracy    <      12.42249587 Ry

     iteration #  2     ecut=    50.00 Ry     beta= 0.30
     Davidson diagonalization with overlap

---- Real-time Memory Report at c_bands before calling an iterative solver
           352 MiB given to the printing process from OS
             0 MiB allocation reported by mallinfo(arena+hblkhd)
        115349 MiB available memory on the node where the printing process lives
------------------
     ethr =  1.92E-03,  avg # of iterations =  2.0

     total cpu time spent up to now is      110.7 secs

     total energy              =   -6508.44604783 Ry
     estimated scf accuracy    <       1.56901133 Ry

     iteration #  3     ecut=    50.00 Ry     beta= 0.30
     Davidson diagonalization with overlap

---- Real-time Memory Report at c_bands before calling an iterative solver
           370 MiB given to the printing process from OS
             0 MiB allocation reported by mallinfo(arena+hblkhd)
        115358 MiB available memory on the node where the printing process lives
------------------
     ethr =  2.42E-04,  avg # of iterations =  8.8

     total cpu time spent up to now is      200.2 secs

     total energy              =   -6509.03710284 Ry
     estimated scf accuracy    <       0.95457503 Ry

     iteration #  4     ecut=    50.00 Ry     beta= 0.30
     Davidson diagonalization with overlap

---- Real-time Memory Report at c_bands before calling an iterative solver
           371 MiB given to the printing process from OS
             0 MiB allocation reported by mallinfo(arena+hblkhd)
        115403 MiB available memory on the node where the printing process lives
------------------
     ethr =  1.47E-04,  avg # of iterations =  9.6

     total cpu time spent up to now is      309.9 secs

     total energy              =   -6509.56186780 Ry
     estimated scf accuracy    <       3.49517160 Ry

     iteration #  5     ecut=    50.00 Ry     beta= 0.30
     Davidson diagonalization with overlap

---- Real-time Memory Report at c_bands before calling an iterative solver
           372 MiB given to the printing process from OS
             0 MiB allocation reported by mallinfo(arena+hblkhd)
        115618 MiB available memory on the node where the printing process lives
------------------
     ethr =  1.47E-04,  avg # of iterations =  2.0

     total cpu time spent up to now is      346.9 secs

     total energy              =   -6508.18561199 Ry
     estimated scf accuracy    <       1.88627673 Ry

     iteration #  6     ecut=    50.00 Ry     beta= 0.30
     Davidson diagonalization with overlap

---- Real-time Memory Report at c_bands before calling an iterative solver
           374 MiB given to the printing process from OS
             0 MiB allocation reported by mallinfo(arena+hblkhd)
        115630 MiB available memory on the node where the printing process lives
------------------
     ethr =  1.47E-04,  avg # of iterations = 13.0

     total cpu time spent up to now is      484.4 secs

     total energy              =   -6507.08767380 Ry
     estimated scf accuracy    <      22.51931594 Ry

     iteration #  7     ecut=    50.00 Ry     beta= 0.30
     Davidson diagonalization with overlap

---- Real-time Memory Report at c_bands before calling an iterative solver
           375 MiB given to the printing process from OS
             0 MiB allocation reported by mallinfo(arena+hblkhd)
        115282 MiB available memory on the node where the printing process lives
------------------
     ethr =  1.47E-04,  avg # of iterations = 12.8

     total cpu time spent up to now is      612.1 secs

     total energy              =   -6509.44457268 Ry
     estimated scf accuracy    <       1.01731812 Ry

     iteration #  8     ecut=    50.00 Ry     beta= 0.30
     Davidson diagonalization with overlap

---- Real-time Memory Report at c_bands before calling an iterative solver
           376 MiB given to the printing process from OS
             0 MiB allocation reported by mallinfo(arena+hblkhd)
        115468 MiB available memory on the node where the printing process lives
------------------
     ethr =  1.47E-04,  avg # of iterations =  2.0

     total cpu time spent up to now is      647.9 secs

     total energy              =   -6509.38591519 Ry
     estimated scf accuracy    <       0.58230722 Ry

     iteration #  9     ecut=    50.00 Ry     beta= 0.30
     Davidson diagonalization with overlap

---- Real-time Memory Report at c_bands before calling an iterative solver
           377 MiB given to the printing process from OS
             0 MiB allocation reported by mallinfo(arena+hblkhd)
        115507 MiB available memory on the node where the printing process lives
------------------
     ethr =  8.99E-05,  avg # of iterations =  3.0

     total cpu time spent up to now is      691.5 secs

     total energy              =   -6509.39905446 Ry
     estimated scf accuracy    <       0.20347838 Ry

     iteration # 10     ecut=    50.00 Ry     beta= 0.30
     Davidson diagonalization with overlap

---- Real-time Memory Report at c_bands before calling an iterative solver
           379 MiB given to the printing process from OS
             0 MiB allocation reported by mallinfo(arena+hblkhd)
        115151 MiB available memory on the node where the printing process lives
------------------
     ethr =  3.14E-05,  avg # of iterations =  6.8

     total cpu time spent up to now is      749.4 secs

     total energy              =   -6509.45683657 Ry
     estimated scf accuracy    <       0.01067222 Ry

     iteration # 11     ecut=    50.00 Ry     beta= 0.30
     Davidson diagonalization with overlap

---- Real-time Memory Report at c_bands before calling an iterative solver
           379 MiB given to the printing process from OS
             0 MiB allocation reported by mallinfo(arena+hblkhd)
        115319 MiB available memory on the node where the printing process lives
------------------
     ethr =  1.65E-06,  avg # of iterations =  7.1

     total cpu time spent up to now is      822.0 secs

     total energy              =   -6509.46746243 Ry
     estimated scf accuracy    <       0.00106259 Ry

     iteration # 12     ecut=    50.00 Ry     beta= 0.30
     Davidson diagonalization with overlap

---- Real-time Memory Report at c_bands before calling an iterative solver
           379 MiB given to the printing process from OS
             0 MiB allocation reported by mallinfo(arena+hblkhd)
        115641 MiB available memory on the node where the printing process lives
------------------
     ethr =  1.64E-07,  avg # of iterations = 11.2

     total cpu time spent up to now is      950.5 secs

     total energy              =   -6509.46391158 Ry
     estimated scf accuracy    <       0.02531315 Ry

     iteration # 13     ecut=    50.00 Ry     beta= 0.30
     Davidson diagonalization with overlap

---- Real-time Memory Report at c_bands before calling an iterative solver
           379 MiB given to the printing process from OS
             0 MiB allocation reported by mallinfo(arena+hblkhd)
        114956 MiB available memory on the node where the printing process lives
------------------
     ethr =  1.64E-07,  avg # of iterations =  9.2

     total cpu time spent up to now is     1053.4 secs

     total energy              =   -6509.46421497 Ry
     estimated scf accuracy    <       0.00577121 Ry

     iteration # 14     ecut=    50.00 Ry     beta= 0.30
     Davidson diagonalization with overlap

---- Real-time Memory Report at c_bands before calling an iterative solver
           379 MiB given to the printing process from OS
             0 MiB allocation reported by mallinfo(arena+hblkhd)
        115298 MiB available memory on the node where the printing process lives
------------------
     ethr =  1.64E-07,  avg # of iterations =  6.9

     total cpu time spent up to now is     1099.3 secs

     total energy              =   -6509.46279643 Ry
     estimated scf accuracy    <       0.00350858 Ry

     iteration # 15     ecut=    50.00 Ry     beta= 0.30
     Davidson diagonalization with overlap

---- Real-time Memory Report at c_bands before calling an iterative solver
           379 MiB given to the printing process from OS
             0 MiB allocation reported by mallinfo(arena+hblkhd)
        115238 MiB available memory on the node where the printing process lives
------------------
     ethr =  1.64E-07,  avg # of iterations =  9.0

     total cpu time spent up to now is     1199.7 secs

     total energy              =   -6509.46394670 Ry
     estimated scf accuracy    <       0.00016876 Ry

     iteration # 16     ecut=    50.00 Ry     beta= 0.30
     Davidson diagonalization with overlap

---- Real-time Memory Report at c_bands before calling an iterative solver
           379 MiB given to the printing process from OS
             0 MiB allocation reported by mallinfo(arena+hblkhd)
        115335 MiB available memory on the node where the printing process lives
------------------
     ethr =  2.60E-08,  avg # of iterations =  4.5

     total cpu time spent up to now is     1248.7 secs

     total energy              =   -6509.46396276 Ry
     estimated scf accuracy    <       0.00003663 Ry

     iteration # 17     ecut=    50.00 Ry     beta= 0.30
     Davidson diagonalization with overlap

---- Real-time Memory Report at c_bands before calling an iterative solver
           379 MiB given to the printing process from OS
             0 MiB allocation reported by mallinfo(arena+hblkhd)
        115313 MiB available memory on the node where the printing process lives
------------------
     ethr =  5.65E-09,  avg # of iterations =  7.2

     total cpu time spent up to now is     1320.7 secs

     total energy              =   -6509.46399058 Ry
     estimated scf accuracy    <       0.00000234 Ry

     iteration # 18     ecut=    50.00 Ry     beta= 0.30
     Davidson diagonalization with overlap

---- Real-time Memory Report at c_bands before calling an iterative solver
           379 MiB given to the printing process from OS
             0 MiB allocation reported by mallinfo(arena+hblkhd)
        115359 MiB available memory on the node where the printing process lives
------------------
     ethr =  3.61E-10,  avg # of iterations = 17.8

     total cpu time spent up to now is     1476.7 secs

     total energy              =   -6509.46400463 Ry
     estimated scf accuracy    <       0.00010908 Ry

     iteration # 19     ecut=    50.00 Ry     beta= 0.30
     Davidson diagonalization with overlap

---- Real-time Memory Report at c_bands before calling an iterative solver
           379 MiB given to the printing process from OS
             0 MiB allocation reported by mallinfo(arena+hblkhd)
        115378 MiB available memory on the node where the printing process lives
------------------
     ethr =  3.61E-10,  avg # of iterations =  2.0

     total cpu time spent up to now is     1515.2 secs

     total energy              =   -6509.46400278 Ry
     estimated scf accuracy    <       0.00009826 Ry

     iteration # 20     ecut=    50.00 Ry     beta= 0.30
     Davidson diagonalization with overlap

---- Real-time Memory Report at c_bands before calling an iterative solver
           379 MiB given to the printing process from OS
             0 MiB allocation reported by mallinfo(arena+hblkhd)
        115294 MiB available memory on the node where the printing process lives
------------------
     ethr =  3.61E-10,  avg # of iterations =  5.4

     total cpu time spent up to now is     1573.4 secs

     total energy              =   -6509.46398463 Ry
     estimated scf accuracy    <       0.00008537 Ry

     iteration # 21     ecut=    50.00 Ry     beta= 0.30
     Davidson diagonalization with overlap

---- Real-time Memory Report at c_bands before calling an iterative solver
           380 MiB given to the printing process from OS
             0 MiB allocation reported by mallinfo(arena+hblkhd)
        115263 MiB available memory on the node where the printing process lives
------------------
     ethr =  3.61E-10,  avg # of iterations =  9.8

     total cpu time spent up to now is     1682.1 secs

     total energy              =   -6509.46398464 Ry
     estimated scf accuracy    <       0.00002509 Ry

     iteration # 22     ecut=    50.00 Ry     beta= 0.30
     Davidson diagonalization with overlap

---- Real-time Memory Report at c_bands before calling an iterative solver
           380 MiB given to the printing process from OS
             0 MiB allocation reported by mallinfo(arena+hblkhd)
        115299 MiB available memory on the node where the printing process lives
------------------
     ethr =  3.61E-10,  avg # of iterations =  6.5

     total cpu time spent up to now is     1726.9 secs

     total energy              =   -6509.46397259 Ry
     estimated scf accuracy    <       0.00001748 Ry

     iteration # 23     ecut=    50.00 Ry     beta= 0.30
     Davidson diagonalization with overlap

---- Real-time Memory Report at c_bands before calling an iterative solver
           380 MiB given to the printing process from OS
             0 MiB allocation reported by mallinfo(arena+hblkhd)
        115576 MiB available memory on the node where the printing process lives
------------------
     ethr =  3.61E-10,  avg # of iterations = 16.2

     total cpu time spent up to now is     1876.7 secs

     total energy              =   -6509.46399772 Ry
     estimated scf accuracy    <       0.00002906 Ry

     iteration # 24     ecut=    50.00 Ry     beta= 0.30
     Davidson diagonalization with overlap

---- Real-time Memory Report at c_bands before calling an iterative solver
           380 MiB given to the printing process from OS
             0 MiB allocation reported by mallinfo(arena+hblkhd)
        115413 MiB available memory on the node where the printing process lives
------------------
     ethr =  3.61E-10,  avg # of iterations =  7.1

     total cpu time spent up to now is     1957.2 secs

     total energy              =   -6509.46398569 Ry
     estimated scf accuracy    <       0.00006435 Ry

     iteration # 25     ecut=    50.00 Ry     beta= 0.30
     Davidson diagonalization with overlap

---- Real-time Memory Report at c_bands before calling an iterative solver
           380 MiB given to the printing process from OS
             0 MiB allocation reported by mallinfo(arena+hblkhd)
        115290 MiB available memory on the node where the printing process lives
------------------
     ethr =  3.61E-10,  avg # of iterations =  7.6

     total cpu time spent up to now is     2049.1 secs

     total energy              =   -6509.46398354 Ry
     estimated scf accuracy    <       0.00002300 Ry

     iteration # 26     ecut=    50.00 Ry     beta= 0.30
     Davidson diagonalization with overlap

---- Real-time Memory Report at c_bands before calling an iterative solver
           380 MiB given to the printing process from OS
             0 MiB allocation reported by mallinfo(arena+hblkhd)
        115412 MiB available memory on the node where the printing process lives
------------------
     ethr =  3.61E-10,  avg # of iterations =  7.0

     total cpu time spent up to now is     2110.5 secs

     total energy              =   -6509.46398144 Ry
     estimated scf accuracy    <       0.00001038 Ry

     iteration # 27     ecut=    50.00 Ry     beta= 0.30
     Davidson diagonalization with overlap

---- Real-time Memory Report at c_bands before calling an iterative solver
           380 MiB given to the printing process from OS
             0 MiB allocation reported by mallinfo(arena+hblkhd)
        115404 MiB available memory on the node where the printing process lives
------------------
     ethr =  3.61E-10,  avg # of iterations =  6.5

     total cpu time spent up to now is     2175.9 secs

     total energy              =   -6509.46398193 Ry
     estimated scf accuracy    <       0.00000169 Ry

     iteration # 28     ecut=    50.00 Ry     beta= 0.30
     Davidson diagonalization with overlap

---- Real-time Memory Report at c_bands before calling an iterative solver
           380 MiB given to the printing process from OS
             0 MiB allocation reported by mallinfo(arena+hblkhd)
        115528 MiB available memory on the node where the printing process lives
------------------
     ethr =  2.61E-10,  avg # of iterations =  5.2

     total cpu time spent up to now is     2223.3 secs

     total energy              =   -6509.46398194 Ry
     estimated scf accuracy    <       0.00000043 Ry

     iteration # 29     ecut=    50.00 Ry     beta= 0.30
     Davidson diagonalization with overlap

---- Real-time Memory Report at c_bands before calling an iterative solver
           380 MiB given to the printing process from OS
             0 MiB allocation reported by mallinfo(arena+hblkhd)
        115279 MiB available memory on the node where the printing process lives
------------------
     ethr =  6.62E-11,  avg # of iterations =  9.5

     total cpu time spent up to now is     2309.2 secs

     total energy              =   -6509.46398230 Ry
     estimated scf accuracy    <       0.00000022 Ry

     iteration # 30     ecut=    50.00 Ry     beta= 0.30
     Davidson diagonalization with overlap

---- Real-time Memory Report at c_bands before calling an iterative solver
           380 MiB given to the printing process from OS
             0 MiB allocation reported by mallinfo(arena+hblkhd)
        115355 MiB available memory on the node where the printing process lives
------------------
     ethr =  3.34E-11,  avg # of iterations =  1.9

     total cpu time spent up to now is     2345.0 secs

     total energy              =   -6509.46398221 Ry
     estimated scf accuracy    <       0.00000019 Ry

     iteration # 31     ecut=    50.00 Ry     beta= 0.30
     Davidson diagonalization with overlap

---- Real-time Memory Report at c_bands before calling an iterative solver
           380 MiB given to the printing process from OS
             0 MiB allocation reported by mallinfo(arena+hblkhd)
        115510 MiB available memory on the node where the printing process lives
------------------
     ethr =  2.94E-11,  avg # of iterations =  5.0

     total cpu time spent up to now is     2391.5 secs

     total energy              =   -6509.46398222 Ry
     estimated scf accuracy    <       0.00000002 Ry

     iteration # 32     ecut=    50.00 Ry     beta= 0.30
     Davidson diagonalization with overlap

---- Real-time Memory Report at c_bands before calling an iterative solver
           380 MiB given to the printing process from OS
             0 MiB allocation reported by mallinfo(arena+hblkhd)
        115319 MiB available memory on the node where the printing process lives
------------------
     ethr =  3.38E-12,  avg # of iterations = 10.9

     total cpu time spent up to now is     2495.2 secs

     total energy              =   -6509.46398226 Ry
     estimated scf accuracy    <       0.00000003 Ry

     iteration # 33     ecut=    50.00 Ry     beta= 0.30
     Davidson diagonalization with overlap

---- Real-time Memory Report at c_bands before calling an iterative solver
           380 MiB given to the printing process from OS
             0 MiB allocation reported by mallinfo(arena+hblkhd)
        115235 MiB available memory on the node where the printing process lives
------------------
     ethr =  3.38E-12,  avg # of iterations =  1.0

     total cpu time spent up to now is     2527.0 secs

     total energy              =   -6509.46398225 Ry
     estimated scf accuracy    <       0.00000002 Ry

     iteration # 34     ecut=    50.00 Ry     beta= 0.30
     Davidson diagonalization with overlap

---- Real-time Memory Report at c_bands before calling an iterative solver
           380 MiB given to the printing process from OS
             0 MiB allocation reported by mallinfo(arena+hblkhd)
        115428 MiB available memory on the node where the printing process lives
------------------
     ethr =  3.38E-12,  avg # of iterations =  2.0

     total cpu time spent up to now is     2564.1 secs

     End of self-consistent calculation

          k = 0.0000 0.0000 0.0000 ( 35443 PWs)   bands (ev):

   -10.9985 -10.8352 -10.8352 -10.5470 -10.5470 -10.4952 -10.4952 -10.4471
   -10.4471 -10.4471 -10.4471 -10.3567 -10.3567 -10.3493 -10.3182 -10.2962
   -10.2962 -10.2962 -10.2962 -10.2914 -10.2914 -10.2519 -10.2519 -10.2519
   -10.2519 -10.1868 -10.1868 -10.1859 -10.1859 -10.1859 -10.1859 -10.1574
   -10.1574 -10.1407 -10.1367 -10.1367   0.9559   0.9559   0.9559   0.9559
     0.9826   0.9826   1.0419   1.0419   1.0471   1.0471   1.0906   1.0906
     1.0906   1.0906   1.1038   1.1038   1.1038   1.1038   1.1141   1.1614
     1.1614   1.1968   1.1968   1.1968   1.1968   1.2062   1.2062   1.2098
     1.2098   1.3159   1.3159   1.3230   1.3451   1.3451   1.3451   1.3451
     1.3565   1.3780   1.3780   1.4366   1.4366   1.4366   1.4366   1.4392
     1.4530   1.4530   1.5014   1.5014   1.5196   1.5196   1.5609   1.5839
     1.5839   1.5839   1.5839   1.5839   1.5839   1.5967   1.5967   1.5967
     1.5967   1.6641   1.6641   1.6674   1.6674   1.6674   1.6674   1.7197
     1.7197   1.7338   1.7338   1.7338   1.7338   1.7583   1.7583   1.7583
     1.7583   1.7846   1.7846   1.7846   1.7846   1.7926   1.7926   1.8687
     1.8687   1.8803   1.8803   1.8904   1.8904   1.8904   1.8904   1.9005
     1.9005   1.9133   1.9133   1.9133   1.9133   1.9178   1.9178   1.9413
     1.9538   2.0312   2.0312   2.0460   2.0460   2.0753   2.1149   2.1149
     2.3484   2.3484   2.4055   2.4055   2.4282   2.4282   2.4642   2.4731
     2.4731   2.4787   2.4787   2.4787   2.4787   2.4918   2.4918   2.4918
     2.4918   2.4958   2.4958   2.4958   2.4958   2.4988   2.4988   2.5339
     2.5339   2.5339   2.5339   2.5677   2.5677   2.5677   2.5677   2.5909
     2.5917   2.5917   2.5917   2.5917   2.6003   2.6003   2.6096   2.6096
     2.6096   2.6096   2.6248   2.6248   2.6268   2.6268   2.6330   2.6330
     2.6552   2.6552   2.6705   2.6819   2.6819   2.6819   2.6819   2.6836
     2.6836   2.6913   2.6913   2.6913   2.6913   2.7318   2.7318   2.7418
     2.8116   2.8116   2.8116   2.8116   2.8131   2.8131   2.8732   2.8732
     2.8918   3.0747   3.0747   3.0838   3.0838   3.1456   3.1456   3.2047
     3.2568   3.2568   3.2568   3.2568   3.2754   3.2754   3.4268   3.5916
     3.5916   3.5916   3.5916   3.6415   3.6415   3.6415   3.6415   3.6813
     3.6813   3.7941   3.7941   3.8753   3.8753   4.0473   4.0473   4.0473
     4.0473   4.1030   4.1030   4.1406   4.4220   4.4220   4.5350   4.5350
     4.5350   4.5350   4.6506   4.6506   4.7139   4.9084   4.9084   4.9084
     4.9084   5.0141   5.0141   5.0817   5.0817   5.0817   5.0817   5.0927
     5.0927   5.0972   5.0972   5.3813   5.3813   5.3813   5.3813   5.4185
     5.4185   5.4185   5.4185   5.4566   5.4566   5.6135   5.6135   5.6402
     5.7659   5.7659   5.7927   5.7927   5.7975   5.7975   5.8447   5.8447
     5.8447   5.8447   5.9793   5.9793   5.9793   5.9793   6.0154   6.0154
     6.0154   6.0154   6.0830   6.0931   6.0931   6.1251   6.1251   6.3016
     6.3016   6.3189   6.3189   6.3189   6.3189   6.7003   6.7003   6.7003
     6.7003   6.8049   6.8873   6.8873

     occupation numbers 
     1.0000   1.0000   1.0000   1.0000   1.0000   1.0000   1.0000   1.0000
     1.0000   1.0000   1.0000   1.0000   1.0000   1.0000   1.0000   1.0000
     1.0000   1.0000   1.0000   1.0000   1.0000   1.0000   1.0000   1.0000
     1.0000   1.0000   1.0000   1.0000   1.0000   1.0000   1.0000   1.0000
     1.0000   1.0000   1.0000   1.0000   1.0000   1.0000   1.0000   1.0000
     1.0000   1.0000   1.0000   1.0000   1.0000   1.0000   1.0000   1.0000
     1.0000   1.0000   1.0000   1.0000   1.0000   1.0000   1.0000   1.0000
     1.0000   1.0000   1.0000   1.0000   1.0000   1.0000   1.0000   1.0000
     1.0000   1.0000   1.0000   1.0000   1.0000   1.0000   1.0000   1.0000
     1.0000   1.0000   1.0000   1.0000   1.0000   1.0000   1.0000   1.0000
     1.0000   1.0000   1.0000   1.0000   1.0000   1.0000   1.0000   1.0000
     1.0000   1.0000   1.0000   1.0000   1.0000   1.0000   1.0000   1.0000
     1.0000   1.0000   1.0000   1.0000   1.0000   1.0000   1.0000   1.0000
     1.0000   1.0000   1.0000   1.0000   1.0000   1.0000   1.0000   1.0000
     1.0000   1.0000   1.0000   1.0000   1.0000   1.0000   1.0000   1.0000
     1.0000   1.0000   1.0000   1.0000   1.0000   1.0000   1.0000   1.0000
     1.0000   1.0000   1.0000   1.0000   1.0000   1.0000   1.0000   1.0000
     1.0000   1.0000   1.0000   1.0000   1.0000   1.0000   1.0000   1.0000
     1.0000   1.0000   1.0000   1.0000   1.0000   1.0000   1.0000   1.0000
     1.0000   1.0000   1.0000   1.0000   1.0000   1.0000   1.0000   1.0000
     1.0000   1.0000   1.0000   1.0000   1.0000   1.0000   1.0000   1.0000
     1.0000   1.0000   1.0000   1.0000   1.0000   1.0000   1.0000   1.0000
     1.0000   1.0000   1.0000   1.0000   1.0000   1.0000   1.0000   1.0000
     1.0000   1.0000   1.0000   1.0000   1.0000   1.0000   1.0000   1.0000
     1.0000   1.0000   1.0000   1.0000   1.0000   1.0000   1.0000   1.0000
     1.0000   1.0000   1.0000   1.0000   1.0000   1.0000   1.0000   1.0000
     1.0000   1.0000   1.0000   1.0000   1.0000   1.0000   1.0000   1.0000
     1.0000   1.0000   1.0000   1.0000   1.0000   1.0000   1.0000   1.0000
     1.0000   1.0000   1.0000   1.0000   1.0000   1.0000   1.0000   1.0000
     1.0000   1.0000   1.0000   1.0000   1.0000   1.0000   1.0000   1.0000
     1.0000   1.0000   1.0000   1.0000   1.0000   1.0000   1.0000   1.0000
     1.0000   1.0000   1.0000   1.0000   1.0000   1.0000   1.0000   1.0000
     1.0000   1.0000   1.0000   1.0000   1.0000   1.0000   1.0000   1.0000
     1.0000   1.0000   1.0000   1.0000   1.0000   1.0000   1.0000   1.0000
     1.0000   1.0000   1.0000   1.0000   1.0000   1.0000   1.0000   1.0000
     1.0000   1.0000   1.0000   1.0000   1.0000   1.0000   1.0000   1.0000
     1.0000   1.0000   1.0000   1.0000   1.0000   1.0000   1.0000   1.0000
     1.0000   1.0000   1.0000   1.0000   1.0000   1.0000   1.0000   1.0000
     1.0000   1.0000   1.0000   1.0000   1.0000   1.0000   1.0000   1.0000
     1.0000   1.0000   1.0000   1.0000   1.0000   1.0000   1.0000   1.0000
     1.0000   1.0000   1.0000   1.0000

          k = 0.0000 0.0000-0.3097 ( 35412 PWs)   bands (ev):

   -10.9551 -10.9551 -10.6674 -10.6674 -10.5201 -10.5201 -10.5201 -10.5201
   -10.3661 -10.3661 -10.3487 -10.3487 -10.3487 -10.3487 -10.3402 -10.3402
   -10.3402 -10.3402 -10.3334 -10.3334 -10.2391 -10.2391 -10.2391 -10.2391
   -10.2371 -10.2371 -10.1825 -10.1825 -10.1825 -10.1825 -10.1526 -10.1526
   -10.1495 -10.1495 -10.1495 -10.1495   0.9527   0.9527   0.9620   0.9620
     0.9620   0.9620   1.0114   1.0114   1.0114   1.0114   1.0697   1.0697
     1.0856   1.0856   1.0856   1.0857   1.1297   1.1297   1.1780   1.1780
     1.1780   1.1780   1.2255   1.2255   1.2878   1.2878   1.2878   1.2878
     1.3102   1.3102   1.3169   1.3169   1.3225   1.3225   1.3225   1.3225
     1.3762   1.3762   1.3762   1.3762   1.3852   1.3852   1.3852   1.3852
     1.4826   1.4826   1.4826   1.4826   1.5395   1.5395   1.5395   1.5395
     1.5637   1.5637   1.5637   1.5637   1.5871   1.5871   1.6623   1.6623
     1.6623   1.6623   1.6841   1.6841   1.6841   1.6841   1.6874   1.6874
     1.6874   1.6874   1.6945   1.6945   1.6945   1.6945   1.7730   1.7730
     1.7730   1.7730   1.7821   1.7821   1.8586   1.8586   1.8597   1.8597
     1.8597   1.8597   1.8679   1.8679   1.8679   1.8679   1.8969   1.8969
     1.8969   1.8969   1.9133   1.9133   1.9195   1.9195   1.9824   1.9824
     1.9824   1.9824   2.0290   2.0290   2.0290   2.0290   2.0308   2.0308
     2.3853   2.3853   2.3853   2.3853   2.4172   2.4172   2.4172   2.4172
     2.4460   2.4460   2.4460   2.4460   2.5083   2.5083   2.5083   2.5083
     2.5266   2.5266   2.5393   2.5393   2.5393   2.5393   2.5468   2.5468
     2.5468   2.5468   2.5532   2.5532   2.5532   2.5532   2.5702   2.5702
     2.5702   2.5702   2.5851   2.5851   2.5851   2.5851   2.5930   2.5930
     2.6133   2.6133   2.6172   2.6172   2.6172   2.6172   2.6425   2.6425
     2.6425   2.6425   2.6574   2.6574   2.6804   2.6804   2.6804   2.6804
     2.6978   2.6978   2.7390   2.7390   2.7390   2.7390   2.7411   2.7411
     2.7606   2.7606   2.7606   2.7606   2.8696   2.8696   2.8696   2.8696
     3.1154   3.1154   3.1154   3.1154   3.1660   3.1660   3.1878   3.1878
     3.2007   3.2007   3.3424   3.3424   3.3424   3.3424   3.3761   3.3761
     3.4275   3.4275   3.4275   3.4275   3.6971   3.6971   3.6971   3.6971
     3.8758   3.8758   3.8758   3.8758   3.9351   3.9351   3.9351   3.9351
     4.2091   4.2091   4.2091   4.2091   4.4237   4.4237   4.6168   4.6168
     4.6168   4.6168   4.6229   4.6229   4.6229   4.6229   4.6601   4.6601
     4.8200   4.8200   4.9299   4.9299   4.9299   4.9299   5.1856   5.1856
     5.1856   5.1856   5.4385   5.4385   5.5303   5.5303   5.5303   5.5303
     5.5539   5.5539   5.5972   5.5972   5.5972   5.5972   5.6423   5.6423
     5.6423   5.6423   5.7224   5.7224   5.7224   5.7224   5.7267   5.7267
     5.7986   5.7986   5.7986   5.7986   5.9987   5.9987   6.1085   6.1085
     6.1085   6.1085   6.1772   6.1772   6.1772   6.1772   6.2255   6.2255
     6.2255   6.2255   6.2430   6.2430   6.5108   6.5108   6.5108   6.5108
     6.8375   6.8375   6.8375   6.8375

     occupation numbers 
     1.0000   1.0000   1.0000   1.0000   1.0000   1.0000   1.0000   1.0000
     1.0000   1.0000   1.0000   1.0000   1.0000   1.0000   1.0000   1.0000
     1.0000   1.0000   1.0000   1.0000   1.0000   1.0000   1.0000   1.0000
     1.0000   1.0000   1.0000   1.0000   1.0000   1.0000   1.0000   1.0000
     1.0000   1.0000   1.0000   1.0000   1.0000   1.0000   1.0000   1.0000
     1.0000   1.0000   1.0000   1.0000   1.0000   1.0000   1.0000   1.0000
     1.0000   1.0000   1.0000   1.0000   1.0000   1.0000   1.0000   1.0000
     1.0000   1.0000   1.0000   1.0000   1.0000   1.0000   1.0000   1.0000
     1.0000   1.0000   1.0000   1.0000   1.0000   1.0000   1.0000   1.0000
     1.0000   1.0000   1.0000   1.0000   1.0000   1.0000   1.0000   1.0000
     1.0000   1.0000   1.0000   1.0000   1.0000   1.0000   1.0000   1.0000
     1.0000   1.0000   1.0000   1.0000   1.0000   1.0000   1.0000   1.0000
     1.0000   1.0000   1.0000   1.0000   1.0000   1.0000   1.0000   1.0000
     1.0000   1.0000   1.0000   1.0000   1.0000   1.0000   1.0000   1.0000
     1.0000   1.0000   1.0000   1.0000   1.0000   1.0000   1.0000   1.0000
     1.0000   1.0000   1.0000   1.0000   1.0000   1.0000   1.0000   1.0000
     1.0000   1.0000   1.0000   1.0000   1.0000   1.0000   1.0000   1.0000
     1.0000   1.0000   1.0000   1.0000   1.0000   1.0000   1.0000   1.0000
     1.0000   1.0000   1.0000   1.0000   1.0000   1.0000   1.0000   1.0000
     1.0000   1.0000   1.0000   1.0000   1.0000   1.0000   1.0000   1.0000
     1.0000   1.0000   1.0000   1.0000   1.0000   1.0000   1.0000   1.0000
     1.0000   1.0000   1.0000   1.0000   1.0000   1.0000   1.0000   1.0000
     1.0000   1.0000   1.0000   1.0000   1.0000   1.0000   1.0000   1.0000
     1.0000   1.0000   1.0000   1.0000   1.0000   1.0000   1.0000   1.0000
     1.0000   1.0000   1.0000   1.0000   1.0000   1.0000   1.0000   1.0000
     1.0000   1.0000   1.0000   1.0000   1.0000   1.0000   1.0000   1.0000
     1.0000   1.0000   1.0000   1.0000   1.0000   1.0000   1.0000   1.0000
     1.0000   1.0000   1.0000   1.0000   1.0000   1.0000   1.0000   1.0000
     1.0000   1.0000   1.0000   1.0000   1.0000   1.0000   1.0000   1.0000
     1.0000   1.0000   1.0000   1.0000   1.0000   1.0000   1.0000   1.0000
     1.0000   1.0000   1.0000   1.0000   1.0000   1.0000   1.0000   1.0000
     1.0000   1.0000   1.0000   1.0000   1.0000   1.0000   1.0000   1.0000
     1.0000   1.0000   1.0000   1.0000   1.0000   1.0000   1.0000   1.0000
     1.0000   1.0000   1.0000   1.0000   1.0000   1.0000   1.0000   1.0000
     1.0000   1.0000   1.0000   1.0000   1.0000   1.0000   1.0000   1.0000
     1.0000   1.0000   1.0000   1.0000   1.0000   1.0000   1.0000   1.0000
     1.0000   1.0000   1.0000   1.0000   1.0000   1.0000   1.0000   1.0000
     1.0000   1.0000   1.0000   1.0000   1.0000   1.0000   1.0000   1.0000
     1.0000   1.0000   1.0000   1.0000   1.0000   1.0000   1.0000   1.0000
     1.0000   1.0000   1.0000   1.0000   1.0000   1.0000   1.0000   1.0000
     1.0000   1.0000   1.0000   1.0000

          k = 0.0000 0.5774 0.0000 ( 35452 PWs)   bands (ev):

   -10.8593 -10.7128 -10.7128 -10.6322 -10.5470 -10.5470 -10.5179 -10.5179
   -10.4471 -10.4471 -10.4471 -10.4471 -10.4121 -10.4121 -10.3567 -10.2962
   -10.2962 -10.2905 -10.2905 -10.2581 -10.2519 -10.2519 -10.2519 -10.2519
   -10.1943 -10.1943 -10.1872 -10.1872 -10.1872 -10.1872 -10.1859 -10.1859
   -10.1782 -10.1574 -10.1574 -10.1367   0.9559   0.9559   0.9559   0.9559
     1.0368   1.0368   1.0419   1.0419   1.0820   1.0820   1.0906   1.0906
     1.0906   1.0906   1.1038   1.1038   1.1268   1.1268   1.1443   1.1443
     1.1448   1.1787   1.1968   1.1968   1.2098   1.2800   1.3347   1.3780
     1.3780   1.3917   1.3917   1.3939   1.4031   1.4031   1.4031   1.4031
     1.4175   1.4331   1.4331   1.4425   1.4425   1.4530   1.4978   1.5169
     1.5169   1.5196   1.5196   1.5221   1.5221   1.5272   1.5381   1.5381
     1.5437   1.5437   1.5839   1.5839   1.5839   1.5845   1.5967   1.5967
     1.5967   1.5967   1.6182   1.6647   1.6674   1.6674   1.6674   1.6674
     1.6688   1.6688   1.6853   1.6853   1.7170   1.7170   1.7197   1.7197
     1.7338   1.7338   1.7417   1.7417   1.7583   1.7583   1.7583   1.7583
     1.7846   1.7846   1.7846   1.7846   1.7926   1.8373   1.8904   1.8904
     1.9005   1.9005   1.9133   1.9133   1.9688   2.0258   2.0312   2.0312
     2.0460   2.0771   2.0771   2.0771   2.0771   2.1149   2.2690   2.2690
     2.3226   2.3484   2.3484   2.3627   2.3719   2.4055   2.4064   2.4064
     2.4269   2.4473   2.4607   2.4607   2.4609   2.4609   2.4695   2.4695
     2.4731   2.4787   2.4787   2.4787   2.4787   2.4858   2.4884   2.4884
     2.4958   2.4958   2.4988   2.4988   2.5183   2.5183   2.5316   2.5316
     2.5339   2.5339   2.5339   2.5339   2.5677   2.5677   2.5935   2.5935
     2.6056   2.6056   2.6096   2.6096   2.6096   2.6096   2.6172   2.6172
     2.6358   2.6485   2.6552   2.6552   2.6725   2.6725   2.6819   2.6819
     2.6819   2.6819   2.6836   2.6913   2.6913   2.7479   2.8116   2.8116
     2.8131   2.8131   2.8198   2.8530   2.8530   2.8530   2.8530   2.8614
     2.8732   3.0203   3.0747   3.0838   3.0838   3.2410   3.2568   3.2568
     3.2872   3.2872   3.2873   3.2873   3.4120   3.4120   3.5916   3.5916
     3.6415   3.6415   3.6415   3.6415   3.6813   3.7941   3.7941   3.8035
     3.8035   3.8659   3.8659   3.9343   3.9343   4.0473   4.0473   4.0473
     4.0473   4.1030   4.4220   4.4227   4.4657   4.4657   4.5350   4.5350
     4.6354   4.6506   4.6506   4.7452   4.7452   4.9084   4.9084   4.9084
     4.9084   4.9825   4.9825   5.0283   5.0283   5.0817   5.0817   5.0972
     5.0972   5.1229   5.1229   5.2182   5.2257   5.2290   5.3664   5.3664
     5.3813   5.3813   5.4185   5.4185   5.4185   5.4185   5.5234   5.5234
     5.5234   5.5234   5.5974   5.5974   5.6135   5.7793   5.7885   5.7975
     5.8447   5.8447   5.9570   5.9570   5.9793   5.9793   5.9793   5.9793
     6.0154   6.0154   6.0154   6.0154   6.0234   6.0234   6.0904   6.0904
     6.0931   6.0931   6.2536   6.2837   6.2837   6.2864   6.3016   6.3016
     6.4800   6.4800   6.6256   6.7030

     occupation numbers 
     1.0000   1.0000   1.0000   1.0000   1.0000   1.0000   1.0000   1.0000
     1.0000   1.0000   1.0000   1.0000   1.0000   1.0000   1.0000   1.0000
     1.0000   1.0000   1.0000   1.0000   1.0000   1.0000   1.0000   1.0000
     1.0000   1.0000   1.0000   1.0000   1.0000   1.0000   1.0000   1.0000
     1.0000   1.0000   1.0000   1.0000   1.0000   1.0000   1.0000   1.0000
     1.0000   1.0000   1.0000   1.0000   1.0000   1.0000   1.0000   1.0000
     1.0000   1.0000   1.0000   1.0000   1.0000   1.0000   1.0000   1.0000
     1.0000   1.0000   1.0000   1.0000   1.0000   1.0000   1.0000   1.0000
     1.0000   1.0000   1.0000   1.0000   1.0000   1.0000   1.0000   1.0000
     1.0000   1.0000   1.0000   1.0000   1.0000   1.0000   1.0000   1.0000
     1.0000   1.0000   1.0000   1.0000   1.0000   1.0000   1.0000   1.0000
     1.0000   1.0000   1.0000   1.0000   1.0000   1.0000   1.0000   1.0000
     1.0000   1.0000   1.0000   1.0000   1.0000   1.0000   1.0000   1.0000
     1.0000   1.0000   1.0000   1.0000   1.0000   1.0000   1.0000   1.0000
     1.0000   1.0000   1.0000   1.0000   1.0000   1.0000   1.0000   1.0000
     1.0000   1.0000   1.0000   1.0000   1.0000   1.0000   1.0000   1.0000
     1.0000   1.0000   1.0000   1.0000   1.0000   1.0000   1.0000   1.0000
     1.0000   1.0000   1.0000   1.0000   1.0000   1.0000   1.0000   1.0000
     1.0000   1.0000   1.0000   1.0000   1.0000   1.0000   1.0000   1.0000
     1.0000   1.0000   1.0000   1.0000   1.0000   1.0000   1.0000   1.0000
     1.0000   1.0000   1.0000   1.0000   1.0000   1.0000   1.0000   1.0000
     1.0000   1.0000   1.0000   1.0000   1.0000   1.0000   1.0000   1.0000
     1.0000   1.0000   1.0000   1.0000   1.0000   1.0000   1.0000   1.0000
     1.0000   1.0000   1.0000   1.0000   1.0000   1.0000   1.0000   1.0000
     1.0000   1.0000   1.0000   1.0000   1.0000   1.0000   1.0000   1.0000
     1.0000   1.0000   1.0000   1.0000   1.0000   1.0000   1.0000   1.0000
     1.0000   1.0000   1.0000   1.0000   1.0000   1.0000   1.0000   1.0000
     1.0000   1.0000   1.0000   1.0000   1.0000   1.0000   1.0000   1.0000
     1.0000   1.0000   1.0000   1.0000   1.0000   1.0000   1.0000   1.0000
     1.0000   1.0000   1.0000   1.0000   1.0000   1.0000   1.0000   1.0000
     1.0000   1.0000   1.0000   1.0000   1.0000   1.0000   1.0000   1.0000
     1.0000   1.0000   1.0000   1.0000   1.0000   1.0000   1.0000   1.0000
     1.0000   1.0000   1.0000   1.0000   1.0000   1.0000   1.0000   1.0000
     1.0000   1.0000   1.0000   1.0000   1.0000   1.0000   1.0000   1.0000
     1.0000   1.0000   1.0000   1.0000   1.0000   1.0000   1.0000   1.0000
     1.0000   1.0000   1.0000   1.0000   1.0000   1.0000   1.0000   1.0000
     1.0000   1.0000   1.0000   1.0000   1.0000   1.0000   1.0000   1.0000
     1.0000   1.0000   1.0000   1.0000   1.0000   1.0000   1.0000   1.0000
     1.0000   1.0000   1.0000   1.0000   1.0000   1.0000   1.0000   1.0000
     1.0000   1.0000   1.0000   1.0000   1.0000   1.0000   1.0000   1.0000
     1.0000   1.0000   1.0000   1.0000

          k = 0.0000 0.5774-0.3097 ( 35404 PWs)   bands (ev):

   -10.8203 -10.8203 -10.6015 -10.6015 -10.5637 -10.5637 -10.5201 -10.5201
   -10.5201 -10.5201 -10.4038 -10.4038 -10.3487 -10.3487 -10.3487 -10.3487
   -10.3402 -10.3402 -10.2996 -10.2996 -10.2391 -10.2391 -10.2081 -10.2081
   -10.1919 -10.1919 -10.1919 -10.1919 -10.1849 -10.1849 -10.1825 -10.1825
   -10.1825 -10.1825 -10.1495 -10.1495   0.9620   0.9620   0.9620   0.9620
     1.0114   1.0114   1.0114   1.0114   1.0209   1.0209   1.0549   1.0549
     1.0856   1.0856   1.1086   1.1086   1.1496   1.1496   1.1780   1.1780
     1.2850   1.2850   1.2878   1.2878   1.2878   1.2878   1.3081   1.3081
     1.3212   1.3212   1.3367   1.3367   1.3762   1.3762   1.4035   1.4035
     1.4548   1.4548   1.4698   1.4698   1.4827   1.4827   1.5188   1.5188
     1.5305   1.5305   1.5328   1.5328   1.5395   1.5395   1.5395   1.5395
     1.5573   1.5573   1.5637   1.5637   1.5787   1.5787   1.5787   1.5787
     1.5905   1.5905   1.5969   1.5969   1.6623   1.6623   1.6781   1.6781
     1.6841   1.6841   1.6841   1.6841   1.6874   1.6874   1.6874   1.6874
     1.6945   1.6945   1.6945   1.6945   1.7730   1.7730   1.8092   1.8092
     1.8094   1.8094   1.8597   1.8597   1.8679   1.8679   1.8679   1.8679
     1.8969   1.8969   1.8969   1.8969   1.9187   1.9187   1.9824   1.9824
     2.0290   2.0290   2.0556   2.0556   2.1585   2.1585   2.1585   2.1585
     2.3642   2.3643   2.3793   2.3793   2.3853   2.3853   2.3853   2.3853
     2.4014   2.4014   2.4172   2.4172   2.4346   2.4346   2.4440   2.4440
     2.4789   2.4789   2.4792   2.4792   2.5083   2.5083   2.5083   2.5083
     2.5393   2.5393   2.5440   2.5440   2.5485   2.5485   2.5519   2.5519
     2.5532   2.5532   2.5702   2.5702   2.5702   2.5702   2.5835   2.5835
     2.5851   2.5851   2.5851   2.5851   2.6255   2.6255   2.6363   2.6364
     2.6425   2.6425   2.6425   2.6425   2.6724   2.6725   2.6804   2.6804
     2.6812   2.6812   2.6812   2.6812   2.7390   2.7390   2.7501   2.7501
     2.7606   2.7606   2.7606   2.7606   2.8696   2.8696   2.9255   2.9255
     3.1154   3.1154   3.2429   3.2429   3.2560   3.2560   3.3424   3.3424
     3.3424   3.3424   3.3685   3.3685   3.3685   3.3685   3.3752   3.3752
     3.4090   3.4090   3.4275   3.4275   3.6971   3.6971   3.8758   3.8758
     3.8758   3.8758   3.9351   3.9351   3.9351   3.9351   4.2091   4.2091
     4.2135   4.2135   4.2827   4.2827   4.5551   4.5551   4.6007   4.6007
     4.6101   4.6101   4.6168   4.6168   4.6229   4.6229   4.6229   4.6229
     4.9299   4.9299   5.0893   5.0893   5.1856   5.1856   5.1856   5.1856
     5.1982   5.1982   5.1982   5.1982   5.2328   5.2328   5.2750   5.2750
     5.5301   5.5301   5.5303   5.5303   5.5303   5.5303   5.5972   5.5972
     5.6315   5.6315   5.6423   5.6423   5.6818   5.6818   5.7224   5.7224
     5.7224   5.7224   5.7236   5.7236   5.7986   5.7986   5.8520   5.8520
     5.9120   5.9120   6.1085   6.1085   6.1085   6.1085   6.1732   6.1732
     6.2255   6.2255   6.2255   6.2255   6.2537   6.2537   6.2739   6.2739
     6.5472   6.5472   6.6436   6.6436

     occupation numbers 
     1.0000   1.0000   1.0000   1.0000   1.0000   1.0000   1.0000   1.0000
     1.0000   1.0000   1.0000   1.0000   1.0000   1.0000   1.0000   1.0000
     1.0000   1.0000   1.0000   1.0000   1.0000   1.0000   1.0000   1.0000
     1.0000   1.0000   1.0000   1.0000   1.0000   1.0000   1.0000   1.0000
     1.0000   1.0000   1.0000   1.0000   1.0000   1.0000   1.0000   1.0000
     1.0000   1.0000   1.0000   1.0000   1.0000   1.0000   1.0000   1.0000
     1.0000   1.0000   1.0000   1.0000   1.0000   1.0000   1.0000   1.0000
     1.0000   1.0000   1.0000   1.0000   1.0000   1.0000   1.0000   1.0000
     1.0000   1.0000   1.0000   1.0000   1.0000   1.0000   1.0000   1.0000
     1.0000   1.0000   1.0000   1.0000   1.0000   1.0000   1.0000   1.0000
     1.0000   1.0000   1.0000   1.0000   1.0000   1.0000   1.0000   1.0000
     1.0000   1.0000   1.0000   1.0000   1.0000   1.0000   1.0000   1.0000
     1.0000   1.0000   1.0000   1.0000   1.0000   1.0000   1.0000   1.0000
     1.0000   1.0000   1.0000   1.0000   1.0000   1.0000   1.0000   1.0000
     1.0000   1.0000   1.0000   1.0000   1.0000   1.0000   1.0000   1.0000
     1.0000   1.0000   1.0000   1.0000   1.0000   1.0000   1.0000   1.0000
     1.0000   1.0000   1.0000   1.0000   1.0000   1.0000   1.0000   1.0000
     1.0000   1.0000   1.0000   1.0000   1.0000   1.0000   1.0000   1.0000
     1.0000   1.0000   1.0000   1.0000   1.0000   1.0000   1.0000   1.0000
     1.0000   1.0000   1.0000   1.0000   1.0000   1.0000   1.0000   1.0000
     1.0000   1.0000   1.0000   1.0000   1.0000   1.0000   1.0000   1.0000
     1.0000   1.0000   1.0000   1.0000   1.0000   1.0000   1.0000   1.0000
     1.0000   1.0000   1.0000   1.0000   1.0000   1.0000   1.0000   1.0000
     1.0000   1.0000   1.0000   1.0000   1.0000   1.0000   1.0000   1.0000
     1.0000   1.0000   1.0000   1.0000   1.0000   1.0000   1.0000   1.0000
     1.0000   1.0000   1.0000   1.0000   1.0000   1.0000   1.0000   1.0000
     1.0000   1.0000   1.0000   1.0000   1.0000   1.0000   1.0000   1.0000
     1.0000   1.0000   1.0000   1.0000   1.0000   1.0000   1.0000   1.0000
     1.0000   1.0000   1.0000   1.0000   1.0000   1.0000   1.0000   1.0000
     1.0000   1.0000   1.0000   1.0000   1.0000   1.0000   1.0000   1.0000
     1.0000   1.0000   1.0000   1.0000   1.0000   1.0000   1.0000   1.0000
     1.0000   1.0000   1.0000   1.0000   1.0000   1.0000   1.0000   1.0000
     1.0000   1.0000   1.0000   1.0000   1.0000   1.0000   1.0000   1.0000
     1.0000   1.0000   1.0000   1.0000   1.0000   1.0000   1.0000   1.0000
     1.0000   1.0000   1.0000   1.0000   1.0000   1.0000   1.0000   1.0000
     1.0000   1.0000   1.0000   1.0000   1.0000   1.0000   1.0000   1.0000
     1.0000   1.0000   1.0000   1.0000   1.0000   1.0000   1.0000   1.0000
     1.0000   1.0000   1.0000   1.0000   1.0000   1.0000   1.0000   1.0000
     1.0000   1.0000   1.0000   1.0000   1.0000   1.0000   1.0000   1.0000
     1.0000   1.0000   1.0000   1.0000   1.0000   1.0000   1.0000   1.0000
     1.0000   1.0000   1.0000   1.0000

          k =-0.5000-0.2887 0.0000 ( 35424 PWs)   bands (ev):

   -10.8593 -10.8593 -10.7128 -10.7128 -10.7128 -10.7128 -10.4121 -10.4121
   -10.4121 -10.4121 -10.3567 -10.3567 -10.3493 -10.3493 -10.2962 -10.2962
   -10.2962 -10.2962 -10.2914 -10.2914 -10.2914 -10.2914 -10.2581 -10.2581
   -10.1868 -10.1868 -10.1868 -10.1868 -10.1859 -10.1859 -10.1859 -10.1859
   -10.1407 -10.1407 -10.1367 -10.1367   0.9826   0.9826   0.9826   0.9826
     1.0471   1.0471   1.0471   1.0471   1.0820   1.0820   1.0820   1.0820
     1.1038   1.1038   1.1038   1.1038   1.1141   1.1141   1.1443   1.1443
     1.1443   1.1443   1.1787   1.1787   1.1968   1.1968   1.1968   1.1968
     1.2098   1.2098   1.3230   1.3230   1.3939   1.3939   1.4175   1.4175
     1.4331   1.4331   1.4331   1.4331   1.4425   1.4425   1.4425   1.4425
     1.4530   1.4530   1.4978   1.4978   1.5221   1.5221   1.5221   1.5221
     1.5437   1.5437   1.5437   1.5437   1.5609   1.5609   1.5839   1.5839
     1.5839   1.5839   1.5839   1.5839   1.6182   1.6182   1.6641   1.6641
     1.6641   1.6641   1.6647   1.6647   1.7338   1.7338   1.7338   1.7338
     1.7926   1.7926   1.8687   1.8687   1.8687   1.8687   1.8803   1.8803
     1.8803   1.8803   1.8904   1.8904   1.8904   1.8904   1.9133   1.9133
     1.9133   1.9133   1.9178   1.9178   1.9178   1.9178   1.9413   1.9413
     1.9538   1.9538   2.0460   2.0460   2.0753   2.0753   2.1149   2.1149
     2.3719   2.3719   2.4055   2.4055   2.4269   2.4269   2.4642   2.4642
     2.4695   2.4695   2.4695   2.4695   2.4731   2.4731   2.4884   2.4884
     2.4884   2.4884   2.4958   2.4958   2.4958   2.4958   2.5677   2.5677
     2.5677   2.5677   2.5909   2.5909   2.5935   2.5935   2.5935   2.5935
     2.6003   2.6003   2.6003   2.6003   2.6172   2.6172   2.6172   2.6172
     2.6268   2.6268   2.6268   2.6268   2.6330   2.6330   2.6330   2.6330
     2.6358   2.6358   2.6705   2.6705   2.6836   2.6836   2.6913   2.6913
     2.6913   2.6913   2.7318   2.7318   2.7318   2.7318   2.7418   2.7418
     2.7479   2.7479   2.8116   2.8116   2.8116   2.8116   2.8614   2.8614
     2.8732   2.8732   3.0747   3.0747   3.1456   3.1456   3.1456   3.1456
     3.2047   3.2047   3.2568   3.2568   3.2568   3.2568   3.2754   3.2754
     3.2754   3.2754   3.4268   3.4268   3.5916   3.5916   3.5916   3.5916
     3.6813   3.6813   3.9343   3.9343   3.9343   3.9343   4.1030   4.1030
     4.1406   4.1406   4.4220   4.4220   4.5350   4.5350   4.5350   4.5350
     4.7139   4.7139   5.0141   5.0141   5.0141   5.0141   5.0817   5.0817
     5.0817   5.0817   5.0927   5.0927   5.0927   5.0927   5.1229   5.1229
     5.1229   5.1229   5.2257   5.2257   5.3813   5.3813   5.3813   5.3813
     5.5974   5.5974   5.5974   5.5974   5.6135   5.6135   5.6402   5.6402
     5.7659   5.7659   5.7659   5.7659   5.7793   5.7793   5.7885   5.7885
     5.7927   5.7927   5.7927   5.7927   5.7975   5.7975   5.8447   5.8447
     5.8447   5.8447   6.0234   6.0234   6.0234   6.0234   6.0830   6.0830
     6.2837   6.2837   6.2837   6.2837   6.4800   6.4800   6.4800   6.4800
     6.6256   6.6256   6.7030   6.7030

     occupation numbers 
     1.0000   1.0000   1.0000   1.0000   1.0000   1.0000   1.0000   1.0000
     1.0000   1.0000   1.0000   1.0000   1.0000   1.0000   1.0000   1.0000
     1.0000   1.0000   1.0000   1.0000   1.0000   1.0000   1.0000   1.0000
     1.0000   1.0000   1.0000   1.0000   1.0000   1.0000   1.0000   1.0000
     1.0000   1.0000   1.0000   1.0000   1.0000   1.0000   1.0000   1.0000
     1.0000   1.0000   1.0000   1.0000   1.0000   1.0000   1.0000   1.0000
     1.0000   1.0000   1.0000   1.0000   1.0000   1.0000   1.0000   1.0000
     1.0000   1.0000   1.0000   1.0000   1.0000   1.0000   1.0000   1.0000
     1.0000   1.0000   1.0000   1.0000   1.0000   1.0000   1.0000   1.0000
     1.0000   1.0000   1.0000   1.0000   1.0000   1.0000   1.0000   1.0000
     1.0000   1.0000   1.0000   1.0000   1.0000   1.0000   1.0000   1.0000
     1.0000   1.0000   1.0000   1.0000   1.0000   1.0000   1.0000   1.0000
     1.0000   1.0000   1.0000   1.0000   1.0000   1.0000   1.0000   1.0000
     1.0000   1.0000   1.0000   1.0000   1.0000   1.0000   1.0000   1.0000
     1.0000   1.0000   1.0000   1.0000   1.0000   1.0000   1.0000   1.0000
     1.0000   1.0000   1.0000   1.0000   1.0000   1.0000   1.0000   1.0000
     1.0000   1.0000   1.0000   1.0000   1.0000   1.0000   1.0000   1.0000
     1.0000   1.0000   1.0000   1.0000   1.0000   1.0000   1.0000   1.0000
     1.0000   1.0000   1.0000   1.0000   1.0000   1.0000   1.0000   1.0000
     1.0000   1.0000   1.0000   1.0000   1.0000   1.0000   1.0000   1.0000
     1.0000   1.0000   1.0000   1.0000   1.0000   1.0000   1.0000   1.0000
     1.0000   1.0000   1.0000   1.0000   1.0000   1.0000   1.0000   1.0000
     1.0000   1.0000   1.0000   1.0000   1.0000   1.0000   1.0000   1.0000
     1.0000   1.0000   1.0000   1.0000   1.0000   1.0000   1.0000   1.0000
     1.0000   1.0000   1.0000   1.0000   1.0000   1.0000   1.0000   1.0000
     1.0000   1.0000   1.0000   1.0000   1.0000   1.0000   1.0000   1.0000
     1.0000   1.0000   1.0000   1.0000   1.0000   1.0000   1.0000   1.0000
     1.0000   1.0000   1.0000   1.0000   1.0000   1.0000   1.0000   1.0000
     1.0000   1.0000   1.0000   1.0000   1.0000   1.0000   1.0000   1.0000
     1.0000   1.0000   1.0000   1.0000   1.0000   1.0000   1.0000   1.0000
     1.0000   1.0000   1.0000   1.0000   1.0000   1.0000   1.0000   1.0000
     1.0000   1.0000   1.0000   1.0000   1.0000   1.0000   1.0000   1.0000
     1.0000   1.0000   1.0000   1.0000   1.0000   1.0000   1.0000   1.0000
     1.0000   1.0000   1.0000   1.0000   1.0000   1.0000   1.0000   1.0000
     1.0000   1.0000   1.0000   1.0000   1.0000   1.0000   1.0000   1.0000
     1.0000   1.0000   1.0000   1.0000   1.0000   1.0000   1.0000   1.0000
     1.0000   1.0000   1.0000   1.0000   1.0000   1.0000   1.0000   1.0000
     1.0000   1.0000   1.0000   1.0000   1.0000   1.0000   1.0000   1.0000
     1.0000   1.0000   1.0000   1.0000   1.0000   1.0000   1.0000   1.0000
     1.0000   1.0000   1.0000   1.0000   1.0000   1.0000   1.0000   1.0000
     1.0000   1.0000   1.0000   1.0000

          k =-0.5000-0.2887-0.3097 ( 35428 PWs)   bands (ev):

   -10.8203 -10.8203 -10.8203 -10.8203 -10.5637 -10.5637 -10.5637 -10.5637
   -10.3402 -10.3402 -10.3402 -10.3402 -10.3334 -10.3334 -10.3334 -10.3334
   -10.2996 -10.2996 -10.2996 -10.2996 -10.2391 -10.2391 -10.2391 -10.2391
   -10.2371 -10.2371 -10.2371 -10.2371 -10.1526 -10.1526 -10.1526 -10.1526
   -10.1495 -10.1495 -10.1495 -10.1495   0.9527   0.9527   0.9527   0.9527
     1.0549   1.0549   1.0549   1.0549   1.0697   1.0697   1.0697   1.0697
     1.0856   1.0856   1.0856   1.0857   1.1496   1.1496   1.1496   1.1496
     1.1780   1.1780   1.1780   1.1780   1.2255   1.2255   1.2255   1.2255
     1.3367   1.3367   1.3367   1.3367   1.3762   1.3762   1.3762   1.3762
     1.4035   1.4035   1.4035   1.4035   1.4548   1.4548   1.4548   1.4548
     1.4698   1.4698   1.4698   1.4698   1.4827   1.4827   1.4827   1.4827
     1.5637   1.5637   1.5637   1.5637   1.5871   1.5871   1.5871   1.5871
     1.5905   1.5905   1.5905   1.5905   1.5969   1.5969   1.5969   1.5969
     1.6623   1.6623   1.6623   1.6623   1.7730   1.7730   1.7730   1.7730
     1.7821   1.7821   1.7821   1.7821   1.8586   1.8586   1.8586   1.8586
     1.8597   1.8597   1.8597   1.8597   1.9133   1.9133   1.9133   1.9133
     1.9195   1.9195   1.9195   1.9195   1.9824   1.9824   1.9824   1.9824
     2.0290   2.0290   2.0290   2.0290   2.0308   2.0308   2.0308   2.0308
     2.4014   2.4014   2.4014   2.4014   2.4172   2.4172   2.4172   2.4172
     2.4440   2.4440   2.4440   2.4440   2.5266   2.5266   2.5266   2.5266
     2.5393   2.5393   2.5393   2.5393   2.5440   2.5440   2.5440   2.5440
     2.5485   2.5485   2.5485   2.5485   2.5532   2.5532   2.5532   2.5532
     2.5930   2.5930   2.5930   2.5930   2.6133   2.6133   2.6133   2.6133
     2.6255   2.6255   2.6255   2.6255   2.6574   2.6574   2.6574   2.6574
     2.6724   2.6724   2.6725   2.6725   2.6804   2.6804   2.6804   2.6804
     2.6978   2.6978   2.6978   2.6978   2.7390   2.7390   2.7390   2.7390
     2.7411   2.7411   2.7411   2.7411   2.8696   2.8696   2.8696   2.8696
     3.1154   3.1154   3.1154   3.1154   3.1660   3.1660   3.1660   3.1660
     3.1878   3.1878   3.1878   3.1878   3.2560   3.2560   3.2560   3.2560
     3.3761   3.3761   3.3761   3.3761   3.4275   3.4275   3.4275   3.4275
     3.6971   3.6971   3.6971   3.6971   4.2091   4.2091   4.2091   4.2091
     4.4237   4.4237   4.4237   4.4237   4.6007   4.6007   4.6007   4.6007
     4.6168   4.6168   4.6168   4.6168   4.8200   4.8200   4.8200   4.8200
     4.9299   4.9299   4.9299   4.9299   5.2750   5.2750   5.2750   5.2750
     5.4385   5.4385   5.4385   5.4385   5.5539   5.5539   5.5539   5.5539
     5.5972   5.5972   5.5972   5.5972   5.6315   5.6315   5.6315   5.6315
     5.6423   5.6423   5.6423   5.6423   5.7267   5.7267   5.7267   5.7267
     5.7986   5.7986   5.7986   5.7986   5.8520   5.8520   5.8520   5.8520
     5.9120   5.9120   5.9120   5.9120   5.9987   5.9987   5.9987   5.9987
     6.2537   6.2537   6.2537   6.2537   6.5472   6.5472   6.5472   6.5472
     6.6436   6.6436   6.6436   6.6436

     occupation numbers 
     1.0000   1.0000   1.0000   1.0000   1.0000   1.0000   1.0000   1.0000
     1.0000   1.0000   1.0000   1.0000   1.0000   1.0000   1.0000   1.0000
     1.0000   1.0000   1.0000   1.0000   1.0000   1.0000   1.0000   1.0000
     1.0000   1.0000   1.0000   1.0000   1.0000   1.0000   1.0000   1.0000
     1.0000   1.0000   1.0000   1.0000   1.0000   1.0000   1.0000   1.0000
     1.0000   1.0000   1.0000   1.0000   1.0000   1.0000   1.0000   1.0000
     1.0000   1.0000   1.0000   1.0000   1.0000   1.0000   1.0000   1.0000
     1.0000   1.0000   1.0000   1.0000   1.0000   1.0000   1.0000   1.0000
     1.0000   1.0000   1.0000   1.0000   1.0000   1.0000   1.0000   1.0000
     1.0000   1.0000   1.0000   1.0000   1.0000   1.0000   1.0000   1.0000
     1.0000   1.0000   1.0000   1.0000   1.0000   1.0000   1.0000   1.0000
     1.0000   1.0000   1.0000   1.0000   1.0000   1.0000   1.0000   1.0000
     1.0000   1.0000   1.0000   1.0000   1.0000   1.0000   1.0000   1.0000
     1.0000   1.0000   1.0000   1.0000   1.0000   1.0000   1.0000   1.0000
     1.0000   1.0000   1.0000   1.0000   1.0000   1.0000   1.0000   1.0000
     1.0000   1.0000   1.0000   1.0000   1.0000   1.0000   1.0000   1.0000
     1.0000   1.0000   1.0000   1.0000   1.0000   1.0000   1.0000   1.0000
     1.0000   1.0000   1.0000   1.0000   1.0000   1.0000   1.0000   1.0000
     1.0000   1.0000   1.0000   1.0000   1.0000   1.0000   1.0000   1.0000
     1.0000   1.0000   1.0000   1.0000   1.0000   1.0000   1.0000   1.0000
     1.0000   1.0000   1.0000   1.0000   1.0000   1.0000   1.0000   1.0000
     1.0000   1.0000   1.0000   1.0000   1.0000   1.0000   1.0000   1.0000
     1.0000   1.0000   1.0000   1.0000   1.0000   1.0000   1.0000   1.0000
     1.0000   1.0000   1.0000   1.0000   1.0000   1.0000   1.0000   1.0000
     1.0000   1.0000   1.0000   1.0000   1.0000   1.0000   1.0000   1.0000
     1.0000   1.0000   1.0000   1.0000   1.0000   1.0000   1.0000   1.0000
     1.0000   1.0000   1.0000   1.0000   1.0000   1.0000   1.0000   1.0000
     1.0000   1.0000   1.0000   1.0000   1.0000   1.0000   1.0000   1.0000
     1.0000   1.0000   1.0000   1.0000   1.0000   1.0000   1.0000   1.0000
     1.0000   1.0000   1.0000   1.0000   1.0000   1.0000   1.0000   1.0000
     1.0000   1.0000   1.0000   1.0000   1.0000   1.0000   1.0000   1.0000
     1.0000   1.0000   1.0000   1.0000   1.0000   1.0000   1.0000   1.0000
     1.0000   1.0000   1.0000   1.0000   1.0000   1.0000   1.0000   1.0000
     1.0000   1.0000   1.0000   1.0000   1.0000   1.0000   1.0000   1.0000
     1.0000   1.0000   1.0000   1.0000   1.0000   1.0000   1.0000   1.0000
     1.0000   1.0000   1.0000   1.0000   1.0000   1.0000   1.0000   1.0000
     1.0000   1.0000   1.0000   1.0000   1.0000   1.0000   1.0000   1.0000
     1.0000   1.0000   1.0000   1.0000   1.0000   1.0000   1.0000   1.0000
     1.0000   1.0000   1.0000   1.0000   1.0000   1.0000   1.0000   1.0000
     1.0000   1.0000   1.0000   1.0000   1.0000   1.0000   1.0000   1.0000
     1.0000   1.0000   1.0000   1.0000

          k =-0.5000 0.2887 0.0000 ( 35468 PWs)   bands (ev):

   -10.8593 -10.7128 -10.7128 -10.6322 -10.6322 -10.5179 -10.5179 -10.5179
   -10.5179 -10.4121 -10.4121 -10.3567 -10.3567 -10.3567 -10.2962 -10.2962
   -10.2962 -10.2962 -10.2962 -10.2962 -10.2905 -10.2905 -10.2905 -10.2905
   -10.2581 -10.1859 -10.1859 -10.1859 -10.1859 -10.1859 -10.1859 -10.1782
   -10.1782 -10.1367 -10.1367 -10.1367   1.0368   1.0368   1.0368   1.0368
     1.0820   1.0820   1.1038   1.1038   1.1038   1.1038   1.1038   1.1038
     1.1268   1.1268   1.1268   1.1268   1.1443   1.1443   1.1448   1.1448
     1.1787   1.1968   1.1968   1.1968   1.1968   1.1968   1.1968   1.2098
     1.2098   1.2098   1.3347   1.3347   1.3939   1.4175   1.4331   1.4331
     1.4425   1.4425   1.4530   1.4530   1.4530   1.4978   1.5169   1.5169
     1.5169   1.5169   1.5221   1.5221   1.5272   1.5272   1.5381   1.5381
     1.5381   1.5381   1.5437   1.5437   1.5839   1.5839   1.5839   1.5839
     1.5839   1.5839   1.5839   1.5839   1.5839   1.5845   1.5845   1.6182
     1.6647   1.6853   1.6853   1.6853   1.6853   1.7338   1.7338   1.7338
     1.7338   1.7338   1.7338   1.7417   1.7417   1.7417   1.7417   1.7926
     1.7926   1.7926   1.8373   1.8373   1.8904   1.8904   1.8904   1.8904
     1.8904   1.8904   1.9133   1.9133   1.9133   1.9133   1.9133   1.9133
     1.9688   1.9688   2.0460   2.0460   2.0460   2.1149   2.1149   2.1149
     2.3226   2.3226   2.3719   2.4055   2.4055   2.4055   2.4269   2.4473
     2.4473   2.4609   2.4609   2.4609   2.4609   2.4695   2.4695   2.4731
     2.4731   2.4731   2.4884   2.4884   2.4958   2.4958   2.4958   2.4958
     2.4958   2.4958   2.5183   2.5183   2.5183   2.5183   2.5677   2.5677
     2.5677   2.5677   2.5677   2.5677   2.5935   2.5935   2.6056   2.6056
     2.6056   2.6056   2.6172   2.6172   2.6358   2.6485   2.6485   2.6725
     2.6725   2.6725   2.6725   2.6836   2.6836   2.6836   2.6913   2.6913
     2.6913   2.6913   2.6913   2.6913   2.7479   2.8116   2.8116   2.8116
     2.8116   2.8116   2.8116   2.8198   2.8199   2.8614   2.8732   2.8732
     2.8732   3.0203   3.0203   3.0747   3.0747   3.0747   3.2568   3.2568
     3.2568   3.2568   3.2568   3.2568   3.5916   3.5916   3.5916   3.5916
     3.5916   3.5916   3.6813   3.6813   3.6813   3.8659   3.8659   3.8659
     3.8659   3.9343   3.9343   4.1030   4.1030   4.1030   4.4220   4.4220
     4.4220   4.4227   4.4227   4.4657   4.4657   4.4657   4.4657   4.5350
     4.5350   4.5350   4.5350   4.5350   4.5350   4.6354   4.6354   4.9825
     4.9825   4.9825   4.9825   5.0817   5.0817   5.0817   5.0817   5.0817
     5.0817   5.1229   5.1229   5.2257   5.2290   5.2290   5.3664   5.3664
     5.3664   5.3664   5.3813   5.3813   5.3813   5.3813   5.3813   5.3813
     5.5974   5.5974   5.6135   5.6135   5.6135   5.7793   5.7885   5.7975
[...]
     atom   13 type  1   force =     0.00000003    0.00000000    0.00046399
     atom   14 type  1   force =     0.00000039   -0.00000015    0.00046395
     atom   15 type  2   force =    -0.00000000    0.00000002   -0.00006503
     atom   16 type  2   force =     0.00000001   -0.00000001   -0.00006502
     atom   17 type  1   force =    -0.00000015    0.00000023    0.00046387
     atom   18 type  1   force =    -0.00000029   -0.00000016    0.00046412
     atom   19 type  2   force =    -0.00000000    0.00000001   -0.00006504
     atom   20 type  2   force =    -0.00000001   -0.00000001   -0.00006507
     atom   21 type  1   force =     0.00000004    0.00000005    0.00046428
     atom   22 type  1   force =    -0.00000002    0.00000004    0.00046416
     atom   23 type  2   force =     0.00000000   -0.00000001   -0.00006503
     atom   24 type  2   force =     0.00000000    0.00000001   -0.00006501
     atom   25 type  1   force =    -0.00000004   -0.00000004    0.00046431
     atom   26 type  1   force =     0.00000001   -0.00000000    0.00046406
     atom   27 type  2   force =     0.00000001    0.00000001   -0.00006503
     atom   28 type  2   force =    -0.00000000   -0.00000001   -0.00006499
     atom   29 type  1   force =     0.00000009   -0.00000003    0.00046405
     atom   30 type  1   force =     0.00000026    0.00000006    0.00046379
     atom   31 type  2   force =     0.00000000   -0.00000001   -0.00006504
     atom   32 type  2   force =     0.00000002   -0.00000001   -0.00006507
     atom   33 type  1   force =    -0.00000006   -0.00000025    0.00046401
     atom   34 type  1   force =     0.00000007   -0.00000005    0.00046392
     atom   35 type  2   force =    -0.00000000   -0.00000003   -0.00006502
     atom   36 type  2   force =    -0.00000001    0.00000001   -0.00006503
     atom   37 type  1   force =    -0.00000010   -0.00000003    0.00046421
     atom   38 type  1   force =    -0.00000036   -0.00000020    0.00046400
     atom   39 type  2   force =     0.00000002    0.00000000   -0.00006504
     atom   40 type  2   force =    -0.00000001    0.00000000   -0.00006500
     atom   41 type  1   force =    -0.00000010    0.00000002    0.00046398
     atom   42 type  1   force =     0.00000019    0.00000019    0.00046385
     atom   43 type  2   force =     0.00000001    0.00000002   -0.00006503
     atom   44 type  2   force =     0.00000000    0.00000003   -0.00006508
     atom   45 type  1   force =     0.00000018    0.00000028    0.00046382
     atom   46 type  1   force =     0.00000004    0.00000012    0.00046419
     atom   47 type  2   force =    -0.00000001    0.00000002   -0.00006504
     atom   48 type  2   force =    -0.00000000   -0.00000000   -0.00006500
     atom   49 type  1   force =     0.00000004    0.00000005    0.00046406
     atom   50 type  1   force =     0.00000017   -0.00000012    0.00046399
     atom   51 type  2   force =    -0.00000003   -0.00000001   -0.00006503
     atom   52 type  2   force =    -0.00000000   -0.00000001   -0.00006499
     atom   53 type  1   force =    -0.00000018    0.00000003    0.00046405
     atom   54 type  1   force =    -0.00000019    0.00000013    0.00046387
     atom   55 type  2   force =    -0.00000000   -0.00000002   -0.00006502
     atom   56 type  2   force =    -0.00000001    0.00000000   -0.00006508
     atom   57 type  1   force =     0.00000013   -0.00000038    0.00046411
     atom   58 type  1   force =    -0.00000004   -0.00000009    0.00046387
     atom   59 type  2   force =     0.00000002    0.00000001   -0.00006504
     atom   60 type  2   force =     0.00000001   -0.00000001   -0.00006502
     atom   61 type  1   force =     0.00000005    0.00000001    0.00046437
     atom   62 type  1   force =    -0.00000001    0.00000021    0.00046399
     atom   63 type  2   force =    -0.00000002   -0.00000001   -0.00006502
     atom   64 type  2   force =    -0.00000001    0.00000000   -0.00006499
     atom   65 type  1   force =     0.00000022    0.00000001    0.00046389
     atom   66 type  1   force =     0.00000011   -0.00000020    0.00046380
     atom   67 type  2   force =    -0.00000000    0.00000001   -0.00006504
     atom   68 type  2   force =     0.00000000   -0.00000001   -0.00006507
     atom   69 type  1   force =    -0.00000025    0.00000031    0.00046385
     atom   70 type  1   force =    -0.00000000    0.00000005    0.00046440
     atom   71 type  2   force =     0.00000002    0.00000001   -0.00006504
     atom   72 type  2   force =    -0.00000000    0.00000002   -0.00006502
     The Hubbard contrib.    to forces
     atom    1 type  1   force =     0.00000000    0.00000000    0.00000000
     atom    2 type  1   force =     0.00000000    0.00000000    0.00000000
     atom    3 type  2   force =     0.00000000    0.00000000    0.00000000
     atom    4 type  2   force =     0.00000000    0.00000000    0.00000000
     atom    5 type  1   force =     0.00000000    0.00000000    0.00000000
     atom    6 type  1   force =     0.00000000    0.00000000    0.00000000
     atom    7 type  2   force =     0.00000000    0.00000000    0.00000000
     atom    8 type  2   force =     0.00000000    0.00000000    0.00000000
     atom    9 type  1   force =     0.00000000    0.00000000    0.00000000
     atom   10 type  1   force =     0.00000000    0.00000000    0.00000000
     atom   11 type  2   force =     0.00000000    0.00000000    0.00000000
     atom   12 type  2   force =     0.00000000    0.00000000    0.00000000
     atom   13 type  1   force =     0.00000000    0.00000000    0.00000000
     atom   14 type  1   force =     0.00000000    0.00000000    0.00000000
     atom   15 type  2   force =     0.00000000    0.00000000    0.00000000
     atom   16 type  2   force =     0.00000000    0.00000000    0.00000000
     atom   17 type  1   force =     0.00000000    0.00000000    0.00000000
     atom   18 type  1   force =     0.00000000    0.00000000    0.00000000
     atom   19 type  2   force =     0.00000000    0.00000000    0.00000000
     atom   20 type  2   force =     0.00000000    0.00000000    0.00000000
     atom   21 type  1   force =     0.00000000    0.00000000    0.00000000
     atom   22 type  1   force =     0.00000000    0.00000000    0.00000000
     atom   23 type  2   force =     0.00000000    0.00000000    0.00000000
     atom   24 type  2   force =     0.00000000    0.00000000    0.00000000
     atom   25 type  1   force =     0.00000000    0.00000000    0.00000000
     atom   26 type  1   force =     0.00000000    0.00000000    0.00000000
     atom   27 type  2   force =     0.00000000    0.00000000    0.00000000
     atom   28 type  2   force =     0.00000000    0.00000000    0.00000000
     atom   29 type  1   force =     0.00000000    0.00000000    0.00000000
     atom   30 type  1   force =     0.00000000    0.00000000    0.00000000
     atom   31 type  2   force =     0.00000000    0.00000000    0.00000000
     atom   32 type  2   force =     0.00000000    0.00000000    0.00000000
     atom   33 type  1   force =     0.00000000    0.00000000    0.00000000
     atom   34 type  1   force =     0.00000000    0.00000000    0.00000000
     atom   35 type  2   force =     0.00000000    0.00000000    0.00000000
     atom   36 type  2   force =     0.00000000    0.00000000    0.00000000
     atom   37 type  1   force =     0.00000000    0.00000000    0.00000000
     atom   38 type  1   force =     0.00000000    0.00000000    0.00000000
     atom   39 type  2   force =     0.00000000    0.00000000    0.00000000
     atom   40 type  2   force =     0.00000000    0.00000000    0.00000000
     atom   41 type  1   force =     0.00000000    0.00000000    0.00000000
     atom   42 type  1   force =     0.00000000    0.00000000    0.00000000
     atom   43 type  2   force =     0.00000000    0.00000000    0.00000000
     atom   44 type  2   force =     0.00000000    0.00000000    0.00000000
     atom   45 type  1   force =     0.00000000    0.00000000    0.00000000
     atom   46 type  1   force =     0.00000000    0.00000000    0.00000000
     atom   47 type  2   force =     0.00000000    0.00000000    0.00000000
     atom   48 type  2   force =     0.00000000    0.00000000    0.00000000
     atom   49 type  1   force =     0.00000000    0.00000000    0.00000000
     atom   50 type  1   force =     0.00000000    0.00000000    0.00000000
     atom   51 type  2   force =     0.00000000    0.00000000    0.00000000
     atom   52 type  2   force =     0.00000000    0.00000000    0.00000000
     atom   53 type  1   force =     0.00000000    0.00000000    0.00000000
     atom   54 type  1   force =     0.00000000    0.00000000    0.00000000
     atom   55 type  2   force =     0.00000000    0.00000000    0.00000000
     atom   56 type  2   force =     0.00000000    0.00000000    0.00000000
     atom   57 type  1   force =     0.00000000    0.00000000    0.00000000
     atom   58 type  1   force =     0.00000000    0.00000000    0.00000000
     atom   59 type  2   force =     0.00000000    0.00000000    0.00000000
     atom   60 type  2   force =     0.00000000    0.00000000    0.00000000
     atom   61 type  1   force =     0.00000000    0.00000000    0.00000000
     atom   62 type  1   force =     0.00000000    0.00000000    0.00000000
     atom   63 type  2   force =     0.00000000    0.00000000    0.00000000
     atom   64 type  2   force =     0.00000000    0.00000000    0.00000000
     atom   65 type  1   force =     0.00000000    0.00000000    0.00000000
     atom   66 type  1   force =     0.00000000    0.00000000    0.00000000
     atom   67 type  2   force =     0.00000000    0.00000000    0.00000000
     atom   68 type  2   force =     0.00000000    0.00000000    0.00000000
     atom   69 type  1   force =     0.00000000    0.00000000    0.00000000
     atom   70 type  1   force =     0.00000000    0.00000000    0.00000000
     atom   71 type  2   force =     0.00000000    0.00000000    0.00000000
     atom   72 type  2   force =     0.00000000    0.00000000    0.00000000
     The SCF correction term to forces
     atom    1 type  1   force =     0.00000508   -0.00000012    0.00000669
     atom    2 type  1   force =    -0.00000478    0.00000866   -0.00000494
     atom    3 type  2   force =     0.00000279   -0.00000142   -0.00000074
     atom    4 type  2   force =     0.00000018    0.00000199    0.00000283
     atom    5 type  1   force =     0.00000362   -0.00001245   -0.00001282
     atom    6 type  1   force =    -0.00000302   -0.00000175   -0.00000183
     atom    7 type  2   force =     0.00000067   -0.00000259    0.00000000
     atom    8 type  2   force =    -0.00000169   -0.00000071   -0.00000842
     atom    9 type  1   force =    -0.00000722   -0.00000411    0.00000416
     atom   10 type  1   force =    -0.00000217   -0.00000693    0.00000513
     atom   11 type  2   force =    -0.00000213   -0.00000008    0.00000158
     atom   12 type  2   force =    -0.00000117   -0.00000209    0.00000561
     atom   13 type  1   force =     0.00000118    0.00000352    0.00000205
     atom   14 type  1   force =     0.00001101   -0.00000564   -0.00000134
     atom   15 type  2   force =    -0.00000038    0.00000284   -0.00000088
     atom   16 type  2   force =     0.00000306   -0.00000051    0.00000505
     atom   17 type  1   force =    -0.00000716    0.00001109   -0.00001687
     atom   18 type  1   force =    -0.00000798   -0.00000494    0.00000483
     atom   19 type  2   force =    -0.00000021    0.00000271   -0.00000013
     atom   20 type  2   force =    -0.00000082   -0.00000037   -0.00000808
     atom   21 type  1   force =     0.00000227    0.00000186    0.00001629
     atom   22 type  1   force =    -0.00000115    0.00000523    0.00000191
     atom   23 type  2   force =     0.00000061   -0.00000062    0.00000122
     atom   24 type  2   force =    -0.00000052    0.00000121    0.00000407
     atom   25 type  1   force =     0.00000096   -0.00000096    0.00002008
     atom   26 type  1   force =    -0.00000541   -0.00000428    0.00000685
     atom   27 type  2   force =     0.00000197    0.00000253    0.00000062
     atom   28 type  2   force =    -0.00000007   -0.00000148    0.00000796
     atom   29 type  1   force =     0.00000348   -0.00000081   -0.00001600
     atom   30 type  1   force =     0.00001465    0.00000093   -0.00000643
     atom   31 type  2   force =     0.00000114   -0.00000136   -0.00000359
     atom   32 type  2   force =     0.00000470   -0.00000182   -0.00000969
     atom   33 type  1   force =    -0.00000115   -0.00001343    0.00000346
     atom   34 type  1   force =     0.00000178   -0.00000293   -0.00000346
     atom   35 type  2   force =     0.00000022   -0.00000557    0.00000278
     atom   36 type  2   force =    -0.00000147   -0.00000049    0.00000167
     atom   37 type  1   force =     0.00000033    0.00000123    0.00001907
     atom   38 type  1   force =    -0.00001168   -0.00000566   -0.00000122
     atom   39 type  2   force =     0.00000353    0.00000089   -0.00000082
     atom   40 type  2   force =    -0.00000140    0.00000011    0.00000580
     atom   41 type  1   force =     0.00000330    0.00000500   -0.00001495
     atom   42 type  1   force =     0.00000793    0.00001140   -0.00000239
     atom   43 type  2   force =     0.00000141    0.00000251   -0.00000094
     atom   44 type  2   force =     0.00000109    0.00000507   -0.00000855
     atom   45 type  1   force =     0.00000164    0.00001485   -0.00000050
     atom   46 type  1   force =     0.00000295    0.00000596    0.00000291
     atom   47 type  2   force =    -0.00000365    0.00000331    0.00000083
     atom   48 type  2   force =     0.00000034   -0.00000002    0.00000465
     atom   49 type  1   force =    -0.00000389    0.00000072    0.00001071
     atom   50 type  1   force =     0.00000853   -0.00000608    0.00000261
     atom   51 type  2   force =    -0.00000444   -0.00000158   -0.00000027
     atom   52 type  2   force =    -0.00000056   -0.00000151    0.00000859
     atom   53 type  1   force =    -0.00000590   -0.00000136   -0.00001218
     atom   54 type  1   force =    -0.00001266    0.00000446   -0.00000516
     atom   55 type  2   force =    -0.00000112   -0.00000258    0.00000077
     atom   56 type  2   force =    -0.00000322   -0.00000008   -0.00001045
     atom   57 type  1   force =     0.00000966   -0.00001357    0.00000674
     atom   58 type  1   force =    -0.00000101   -0.00000734   -0.00000776
     atom   59 type  2   force =     0.00000236    0.00000058   -0.00000020
     atom   60 type  2   force =     0.00000205   -0.00000284    0.00000209
     atom   61 type  1   force =    -0.00000008   -0.00000270    0.00002118
     atom   62 type  1   force =    -0.00000125    0.00001039   -0.00000438
     atom   63 type  2   force =    -0.00000330   -0.00000297    0.00000133
     atom   64 type  2   force =    -0.00000163   -0.00000014    0.00000885
     atom   65 type  1   force =     0.00000478    0.00000092   -0.00002213
     atom   66 type  1   force =    -0.00000078   -0.00001103   -0.00000738
     atom   67 type  2   force =    -0.00000049    0.00000167   -0.00000206
     atom   68 type  2   force =    -0.00000047   -0.00000254   -0.00000976
     atom   69 type  1   force =    -0.00000259    0.00001695    0.00000081
     atom   70 type  1   force =    -0.00000322    0.00000590    0.00000994
     atom   71 type  2   force =     0.00000348    0.00000260    0.00000070
     atom   72 type  2   force =    -0.00000018    0.00000451    0.00000215

     Total force =     0.000525     Total SCF correction =     0.000091
     SCF correction compared to forces is large: reduce conv_thr to get better values

     init_run     :     36.82s CPU     29.57s WALL (       1 calls)
     electrons    :   3690.40s CPU   2534.12s WALL (       1 calls)
     forces       :     20.87s CPU     15.38s WALL (       1 calls)

     Called by init_run:
     wfcinit      :     24.62s CPU     17.25s WALL (       1 calls)
     wfcinit:atom :      0.09s CPU      0.14s WALL (       2 calls)
     wfcinit:wfcr :     23.95s CPU     16.39s WALL (       2 calls)
     potinit      :      4.04s CPU      4.10s WALL (       1 calls)
     hinit0       :      7.04s CPU      7.08s WALL (       1 calls)

     Called by electrons:
     c_bands      :   3453.89s CPU   2340.22s WALL (      34 calls)
     sum_band     :    208.62s CPU    166.53s WALL (      34 calls)
     v_of_rho     :     11.48s CPU     12.01s WALL (      35 calls)
     v_h          :      0.78s CPU      0.85s WALL (      35 calls)
     v_xc         :     10.99s CPU     11.48s WALL (      36 calls)
     newd         :     14.13s CPU     13.13s WALL (      35 calls)
     mix_rho      :      2.04s CPU      1.92s WALL (      34 calls)

     Called by c_bands:
     init_us_2    :      7.08s CPU      6.45s WALL (     140 calls)
     init_us_2:cp :      7.08s CPU      6.45s WALL (     140 calls)
     cegterg      :   3366.72s CPU   2254.03s WALL (      68 calls)

     Called by sum_band:
     sum_band:wei :      0.03s CPU      0.02s WALL (      34 calls)
     sum_band:loo :    191.42s CPU    151.00s WALL (      34 calls)
     sum_band:buf :      1.18s CPU      1.09s WALL (      68 calls)
     sum_band:ini :      3.42s CPU      3.01s WALL (      68 calls)
     sum_band:cal :     92.42s CPU     47.16s WALL (      68 calls)
     sum_band:bec :      0.73s CPU      0.61s WALL (      68 calls)
     addusdens    :     13.88s CPU     12.46s WALL (      34 calls)
                                        0.00s GPU  (      34 calls)
     addusd:skk   :      0.70s CPU      0.72s WALL (      68 calls)
                                        0.00s GPU  (      68 calls)

     Called by *egterg:
     cdiaghg      :    507.62s CPU    444.46s WALL (     636 calls)
     cegterg:over :    345.68s CPU    181.19s WALL (     568 calls)
     cegterg:upda :    219.64s CPU    115.81s WALL (     568 calls)
     cegterg:last :    564.40s CPU    297.97s WALL (     257 calls)
     cdiaghg:chol :     12.02s CPU     10.15s WALL (     636 calls)
     cdiaghg:inve :      6.79s CPU      4.61s WALL (     636 calls)
     cdiaghg:para :     93.68s CPU     61.21s WALL (    1272 calls)
     h_psi        :   1314.77s CPU    996.89s WALL (     638 calls)
     s_psi        :    367.79s CPU    186.33s WALL (     638 calls)
     g_psi        :      3.66s CPU      3.09s WALL (     568 calls)

     Called by h_psi:
     h_psi:calbec :    364.97s CPU    192.28s WALL (     638 calls)
     vloc_psi     :    577.60s CPU    610.75s WALL (     638 calls)
     add_vuspsi   :    368.78s CPU    188.24s WALL (     638 calls)

     General routines
     calbec       :    468.37s CPU    245.09s WALL (     714 calls)
     fft          :      7.40s CPU      8.04s WALL (     464 calls)
     ffts         :      0.60s CPU      0.64s WALL (      69 calls)
     fftw         :    527.82s CPU    562.10s WALL (  192026 calls)
     interpolate  :      0.96s CPU      1.05s WALL (      35 calls)

     Parallel routines

     PWSCF        :      1h 2m CPU  43m 0.54s WALL


   This run was terminated on:   5:17:21  13Aug2025            

=------------------------------------------------------------------------------=
   JOB DONE.
=------------------------------------------------------------------------------=
Note: The following floating-point exceptions are signalling: IEEE_DENORMAL
Note: The following floating-point exceptions are signalling: IEEE_DENORMAL
Note: The following floating-point exceptions are signalling: IEEE_INVALID_FLAG
Note: The following floating-point exceptions are signalling: IEEE_INVALID_FLAG
Note: The following floating-point exceptions are signalling: IEEE_INVALID_FLAG
Note: The following floating-point exceptions are signalling: IEEE_DENORMAL
Note: The following floating-point exceptions are signalling: IEEE_DENORMAL
Note: The following floating-point exceptions are signalling: IEEE_INVALID_FLAG
