
     Program PWSCF v.7.2 starts on 14Aug2025 at 21:17:21 

     This program is part of the open-source Quantum ESPRESSO suite
     for quantum simulation of materials; please cite
         "P. Giannozzi et al., J. Phys.:Condens. Matter 21 395502 (2009);
         "P. Giannozzi et al., J. Phys.:Condens. Matter 29 465901 (2017);
         "P. Giannozzi et al., J. Chem. Phys. 152 154105 (2020);
          URL http://www.quantum-espresso.org", 
     in publications or presentations arising from this work. More details at
     http://www.quantum-espresso.org/quote

     Parallel version (MPI), running on    32 processors

     MPI processes distributed on     1 nodes
     123581 MiB available memory on the printing compute node when the environment starts

     Reading input from /home/jvc/QEspresso7.2/ZnO_database/scripts/cell323.in/ZnO-3.40-1.52-323.in
Warning: card &CELL ignored
Warning: card / ignored
Warning: card &FCP ignored
Warning: card / ignored
Warning: card &RISM ignored
Warning: card / ignored

     Current dimensions of program PWSCF are:
     Max number of different atomic species (ntypx) = 10
     Max number of k-points (npk) =  40000
     Max angular momentum in pseudopotentials (lmaxx) =  4
     file Zn.upf: wavefunction(s)  3D renormalized
     Found identity + (  0.0000  0.0000  0.3333) symmetry
     This is a supercell, fractional translations are disabled

     K-points division:     npool     =       4
     R & G space division:  proc/nbgrp/npool/nimage =       8
     Subspace diagonalization in iterative solution of the eigenvalue problem:
     one sub-group per band group will be used
     custom distributed-memory algorithm (size of sub-group:  2*  2 procs)


     Parallelization info
     --------------------
     sticks:   dense  smooth     PW     G-vecs:    dense   smooth      PW
     Min         788     394    104               100238    35448    4858
     Max         792     395    105               100240    35453    4863
     Sum        6311    3155    839               801909   283605   38887

     Using Slab Decomposition



     bravais-lattice index     =            0
     lattice parameter (alat)  =      18.5365  a.u.
     unit-cell volume          =    5936.3583 (a.u.)^3
     number of atoms/cell      =           72
     number of atomic types    =            2
     number of electrons       =       648.00
     number of Kohn-Sham states=          324
     kinetic-energy cutoff     =      50.0000  Ry
     charge density cutoff     =     400.0000  Ry
     scf convergence threshold =      1.0E-08
     mixing beta               =       0.3000
     number of iterations used =            8  plain     mixing
     Exchange-correlation= PBE
                           (   1   4   3   4   0   0   0)

     celldm(1)=  18.536466  celldm(2)=   0.000000  celldm(3)=   0.000000
     celldm(4)=   0.000000  celldm(5)=   0.000000  celldm(6)=   0.000000

     crystal axes: (cart. coord. in units of alat)
               a(1) = (   1.000000   0.000000   0.000000 )  
               a(2) = (  -0.333333   0.577350   0.000000 )  
               a(3) = (   0.000000   0.000000   1.614358 )  

     reciprocal axes: (cart. coord. in units 2 pi/alat)
               b(1) = (  1.000000  0.577350 -0.000000 )  
               b(2) = (  0.000000  1.732051  0.000000 )  
               b(3) = (  0.000000 -0.000000  0.619441 )  


     PseudoPot. # 1 for Zn read from file:
     /home/jvc/QEspresso7.2/ZnO_database/pseudos/Zn.upf
     MD5 check sum: 7f56cabf9682ed8c977c2f7d0c5985c5
     Pseudo is Ultrasoft + core correction, Zval = 12.0
     Generated using &quot;atomic&quot; code by A. Dal Corso  v.6.2.2
     Using radial grid of 1201 points,  6 beta functions with: 
                l(1) =   0
                l(2) =   0
                l(3) =   1
                l(4) =   1
                l(5) =   2
                l(6) =   2
     Q(r) pseudized with 0 coefficients 


     PseudoPot. # 2 for O  read from file:
     /home/jvc/QEspresso7.2/ZnO_database/pseudos/O.upf
     MD5 check sum: 91400c9766925bcf19f520983a725ff0
     Pseudo is Ultrasoft + core correction, Zval =  6.0
     Generated using &quot;atomic&quot; code by A. Dal Corso  v.6.3MaX
     Using radial grid of 1095 points,  4 beta functions with: 
                l(1) =   0
                l(2) =   0
                l(3) =   1
                l(4) =   1
     Q(r) pseudized with 0 coefficients 


     atomic species   valence    mass     pseudopotential
        Zn            12.00    65.38000     Zn( 1.00)
        O              6.00    15.99900     O ( 1.00)

     No symmetry found


                                    s                        frac. trans.

      isym =  1     identity                                     

 cryst.   s( 1) = (     1          0          0      )
                  (     0          1          0      )
                  (     0          0          1      )

 cart.    s( 1) = (  1.0000000  0.0000000  0.0000000 )
                  (  0.0000000  1.0000000  0.0000000 )
                  (  0.0000000  0.0000000  1.0000000 )


   Cartesian axes

     site n.     atom                  positions (alat units)
         1           Zn  tau(   1) = (   0.1666667   0.0962250   0.2694007  )
         2           Zn  tau(   2) = (   0.0000000   0.1924501   0.0003409  )
         3           O   tau(   3) = (   0.1666667   0.0962250   0.4733710  )
         4           O   tau(   4) = (   0.0000000   0.1924501   0.2043113  )
         5           Zn  tau(   5) = (   0.1666667   0.0962250   0.8075201  )
         6           Zn  tau(   6) = (   0.0000000   0.1924501   0.5384604  )
         7           O   tau(   7) = (   0.1666667   0.0962250   1.0114904  )
         8           O   tau(   8) = (   0.0000000   0.1924501   0.7424307  )
         9           Zn  tau(   9) = (   0.1666667   0.0962250   1.3456396  )
        10           Zn  tau(  10) = (   0.0000000   0.1924501   1.0765798  )
        11           O   tau(  11) = (   0.1666667   0.0962250   1.5496099  )
        12           O   tau(  12) = (   0.0000000   0.1924501   1.2805502  )
        13           Zn  tau(  13) = (   0.0000000   0.3849002   0.2694007  )
        14           Zn  tau(  14) = (  -0.1666667   0.4811252   0.0003409  )
        15           O   tau(  15) = (   0.0000000   0.3849002   0.4733710  )
        16           O   tau(  16) = (  -0.1666667   0.4811252   0.2043113  )
        17           Zn  tau(  17) = (   0.0000000   0.3849002   0.8075201  )
        18           Zn  tau(  18) = (  -0.1666667   0.4811252   0.5384604  )
        19           O   tau(  19) = (   0.0000000   0.3849002   1.0114904  )
        20           O   tau(  20) = (  -0.1666667   0.4811252   0.7424307  )
        21           Zn  tau(  21) = (   0.0000000   0.3849002   1.3456396  )
        22           Zn  tau(  22) = (  -0.1666667   0.4811252   1.0765798  )
        23           O   tau(  23) = (   0.0000000   0.3849002   1.5496099  )
        24           O   tau(  24) = (  -0.1666667   0.4811252   1.2805502  )
        25           Zn  tau(  25) = (   0.5000000   0.0962250   0.2694007  )
        26           Zn  tau(  26) = (   0.3333333   0.1924501   0.0003409  )
        27           O   tau(  27) = (   0.5000000   0.0962250   0.4733710  )
        28           O   tau(  28) = (   0.3333333   0.1924501   0.2043113  )
        29           Zn  tau(  29) = (   0.5000000   0.0962250   0.8075201  )
        30           Zn  tau(  30) = (   0.3333333   0.1924501   0.5384604  )
        31           O   tau(  31) = (   0.5000000   0.0962250   1.0114904  )
        32           O   tau(  32) = (   0.3333333   0.1924501   0.7424307  )
        33           Zn  tau(  33) = (   0.5000000   0.0962250   1.3456396  )
        34           Zn  tau(  34) = (   0.3333333   0.1924501   1.0765798  )
        35           O   tau(  35) = (   0.5000000   0.0962250   1.5496099  )
        36           O   tau(  36) = (   0.3333333   0.1924501   1.2805502  )
        37           Zn  tau(  37) = (   0.3333333   0.3849002   0.2694007  )
        38           Zn  tau(  38) = (   0.1666667   0.4811252   0.0003409  )
        39           O   tau(  39) = (   0.3333333   0.3849002   0.4733710  )
        40           O   tau(  40) = (   0.1666667   0.4811252   0.2043113  )
        41           Zn  tau(  41) = (   0.3333333   0.3849002   0.8075201  )
        42           Zn  tau(  42) = (   0.1666667   0.4811252   0.5384604  )
        43           O   tau(  43) = (   0.3333333   0.3849002   1.0114904  )
        44           O   tau(  44) = (   0.1666667   0.4811252   0.7424307  )
        45           Zn  tau(  45) = (   0.3333333   0.3849002   1.3456396  )
        46           Zn  tau(  46) = (   0.1666667   0.4811252   1.0765798  )
        47           O   tau(  47) = (   0.3333333   0.3849002   1.5496099  )
        48           O   tau(  48) = (   0.1666667   0.4811252   1.2805502  )
        49           Zn  tau(  49) = (   0.8333333   0.0962250   0.2694007  )
        50           Zn  tau(  50) = (   0.6666667   0.1924501   0.0003409  )
        51           O   tau(  51) = (   0.8333333   0.0962250   0.4733710  )
        52           O   tau(  52) = (   0.6666667   0.1924501   0.2043113  )
        53           Zn  tau(  53) = (   0.8333333   0.0962250   0.8075201  )
        54           Zn  tau(  54) = (   0.6666667   0.1924501   0.5384604  )
        55           O   tau(  55) = (   0.8333333   0.0962250   1.0114904  )
        56           O   tau(  56) = (   0.6666667   0.1924501   0.7424307  )
        57           Zn  tau(  57) = (   0.8333333   0.0962250   1.3456396  )
        58           Zn  tau(  58) = (   0.6666667   0.1924501   1.0765798  )
        59           O   tau(  59) = (   0.8333333   0.0962250   1.5496099  )
        60           O   tau(  60) = (   0.6666667   0.1924501   1.2805502  )
        61           Zn  tau(  61) = (   0.6666667   0.3849002   0.2694007  )
        62           Zn  tau(  62) = (   0.5000000   0.4811252   0.0003409  )
        63           O   tau(  63) = (   0.6666667   0.3849002   0.4733710  )
        64           O   tau(  64) = (   0.5000000   0.4811252   0.2043113  )
        65           Zn  tau(  65) = (   0.6666667   0.3849002   0.8075201  )
        66           Zn  tau(  66) = (   0.5000000   0.4811252   0.5384604  )
        67           O   tau(  67) = (   0.6666667   0.3849002   1.0114904  )
        68           O   tau(  68) = (   0.5000000   0.4811252   0.7424307  )
        69           Zn  tau(  69) = (   0.6666667   0.3849002   1.3456396  )
        70           Zn  tau(  70) = (   0.5000000   0.4811252   1.0765798  )
        71           O   tau(  71) = (   0.6666667   0.3849002   1.5496099  )
        72           O   tau(  72) = (   0.5000000   0.4811252   1.2805502  )

   Crystallographic axes

     site n.     atom                  positions (cryst. coord.)
         1           Zn  tau(   1) = (  0.2222222  0.1666667  0.1668779  )
         2           Zn  tau(   2) = (  0.1111111  0.3333333  0.0002112  )
         3           O   tau(   3) = (  0.2222222  0.1666667  0.2932255  )
         4           O   tau(   4) = (  0.1111111  0.3333333  0.1265588  )
         5           Zn  tau(   5) = (  0.2222222  0.1666667  0.5002112  )
         6           Zn  tau(   6) = (  0.1111111  0.3333333  0.3335445  )
         7           O   tau(   7) = (  0.2222222  0.1666667  0.6265588  )
         8           O   tau(   8) = (  0.1111111  0.3333333  0.4598921  )
         9           Zn  tau(   9) = (  0.2222222  0.1666667  0.8335445  )
        10           Zn  tau(  10) = (  0.1111111  0.3333333  0.6668779  )
        11           O   tau(  11) = (  0.2222222  0.1666667  0.9598921  )
        12           O   tau(  12) = (  0.1111111  0.3333333  0.7932255  )
        13           Zn  tau(  13) = (  0.2222222  0.6666667  0.1668779  )
        14           Zn  tau(  14) = (  0.1111111  0.8333333  0.0002112  )
        15           O   tau(  15) = (  0.2222222  0.6666667  0.2932255  )
        16           O   tau(  16) = (  0.1111111  0.8333333  0.1265588  )
        17           Zn  tau(  17) = (  0.2222222  0.6666667  0.5002112  )
        18           Zn  tau(  18) = (  0.1111111  0.8333333  0.3335445  )
        19           O   tau(  19) = (  0.2222222  0.6666667  0.6265588  )
        20           O   tau(  20) = (  0.1111111  0.8333333  0.4598921  )
        21           Zn  tau(  21) = (  0.2222222  0.6666667  0.8335445  )
        22           Zn  tau(  22) = (  0.1111111  0.8333333  0.6668779  )
        23           O   tau(  23) = (  0.2222222  0.6666667  0.9598921  )
        24           O   tau(  24) = (  0.1111111  0.8333333  0.7932255  )
        25           Zn  tau(  25) = (  0.5555556  0.1666667  0.1668779  )
        26           Zn  tau(  26) = (  0.4444444  0.3333333  0.0002112  )
        27           O   tau(  27) = (  0.5555556  0.1666667  0.2932255  )
        28           O   tau(  28) = (  0.4444444  0.3333333  0.1265588  )
        29           Zn  tau(  29) = (  0.5555556  0.1666667  0.5002112  )
        30           Zn  tau(  30) = (  0.4444444  0.3333333  0.3335445  )
        31           O   tau(  31) = (  0.5555556  0.1666667  0.6265588  )
        32           O   tau(  32) = (  0.4444444  0.3333333  0.4598921  )
        33           Zn  tau(  33) = (  0.5555556  0.1666667  0.8335445  )
        34           Zn  tau(  34) = (  0.4444444  0.3333333  0.6668779  )
        35           O   tau(  35) = (  0.5555556  0.1666667  0.9598921  )
        36           O   tau(  36) = (  0.4444444  0.3333333  0.7932255  )
        37           Zn  tau(  37) = (  0.5555556  0.6666667  0.1668779  )
        38           Zn  tau(  38) = (  0.4444444  0.8333333  0.0002112  )
        39           O   tau(  39) = (  0.5555556  0.6666667  0.2932255  )
        40           O   tau(  40) = (  0.4444444  0.8333333  0.1265588  )
        41           Zn  tau(  41) = (  0.5555556  0.6666667  0.5002112  )
        42           Zn  tau(  42) = (  0.4444444  0.8333333  0.3335445  )
        43           O   tau(  43) = (  0.5555556  0.6666667  0.6265588  )
        44           O   tau(  44) = (  0.4444444  0.8333333  0.4598921  )
        45           Zn  tau(  45) = (  0.5555556  0.6666667  0.8335445  )
        46           Zn  tau(  46) = (  0.4444444  0.8333333  0.6668779  )
        47           O   tau(  47) = (  0.5555556  0.6666667  0.9598921  )
        48           O   tau(  48) = (  0.4444444  0.8333333  0.7932255  )
        49           Zn  tau(  49) = (  0.8888889  0.1666667  0.1668779  )
        50           Zn  tau(  50) = (  0.7777778  0.3333333  0.0002112  )
        51           O   tau(  51) = (  0.8888889  0.1666667  0.2932255  )
        52           O   tau(  52) = (  0.7777778  0.3333333  0.1265588  )
        53           Zn  tau(  53) = (  0.8888889  0.1666667  0.5002112  )
        54           Zn  tau(  54) = (  0.7777778  0.3333333  0.3335445  )
        55           O   tau(  55) = (  0.8888889  0.1666667  0.6265588  )
        56           O   tau(  56) = (  0.7777778  0.3333333  0.4598921  )
        57           Zn  tau(  57) = (  0.8888889  0.1666667  0.8335445  )
        58           Zn  tau(  58) = (  0.7777778  0.3333333  0.6668779  )
        59           O   tau(  59) = (  0.8888889  0.1666667  0.9598921  )
        60           O   tau(  60) = (  0.7777778  0.3333333  0.7932255  )
        61           Zn  tau(  61) = (  0.8888889  0.6666667  0.1668779  )
        62           Zn  tau(  62) = (  0.7777778  0.8333333  0.0002112  )
        63           O   tau(  63) = (  0.8888889  0.6666667  0.2932255  )
        64           O   tau(  64) = (  0.7777778  0.8333333  0.1265588  )
        65           Zn  tau(  65) = (  0.8888889  0.6666667  0.5002112  )
        66           Zn  tau(  66) = (  0.7777778  0.8333333  0.3335445  )
        67           O   tau(  67) = (  0.8888889  0.6666667  0.6265588  )
        68           O   tau(  68) = (  0.7777778  0.8333333  0.4598921  )
        69           Zn  tau(  69) = (  0.8888889  0.6666667  0.8335445  )
        70           Zn  tau(  70) = (  0.7777778  0.8333333  0.6668779  )
        71           O   tau(  71) = (  0.8888889  0.6666667  0.9598921  )
        72           O   tau(  72) = (  0.7777778  0.8333333  0.7932255  )

     number of k points=     8
                       cart. coord. in units 2pi/alat
        k(    1) = (   0.0000000   0.0000000   0.0000000), wk =   0.1666667
        k(    2) = (   0.0000000   0.0000000  -0.3097206), wk =   0.1666667
        k(    3) = (   0.0000000   0.5773503   0.0000000), wk =   0.3333333
        k(    4) = (   0.0000000   0.5773503  -0.3097206), wk =   0.3333333
        k(    5) = (  -0.5000000  -0.2886751   0.0000000), wk =   0.1666667
        k(    6) = (  -0.5000000  -0.2886751  -0.3097206), wk =   0.1666667
        k(    7) = (  -0.5000000   0.2886751   0.0000000), wk =   0.3333333
        k(    8) = (  -0.5000000   0.2886751  -0.3097206), wk =   0.3333333

                       cryst. coord.
        k(    1) = (   0.0000000   0.0000000   0.0000000), wk =   0.1666667
        k(    2) = (   0.0000000   0.0000000  -0.5000000), wk =   0.1666667
        k(    3) = (   0.0000000   0.3333333   0.0000000), wk =   0.3333333
        k(    4) = (   0.0000000   0.3333333  -0.5000000), wk =   0.3333333
        k(    5) = (  -0.5000000  -0.0000000   0.0000000), wk =   0.1666667
        k(    6) = (  -0.5000000  -0.0000000  -0.5000000), wk =   0.1666667
        k(    7) = (  -0.5000000   0.3333333   0.0000000), wk =   0.3333333
        k(    8) = (  -0.5000000   0.3333333  -0.5000000), wk =   0.3333333

     Dense  grid:   801909 G-vectors     FFT dimensions: ( 120,  80, 192)

     Smooth grid:   283605 G-vectors     FFT dimensions: (  90,  60, 135)

     Dynamical RAM for                 wfc:      21.90 MB

     Dynamical RAM for     wfc (w. buffer):      65.70 MB

     Dynamical RAM for           str. fact:       3.06 MB

     Dynamical RAM for           local pot:       0.00 MB

     Dynamical RAM for          nlocal pot:      63.27 MB

     Dynamical RAM for                qrad:       3.21 MB

     Dynamical RAM for          rho,v,vnew:       9.86 MB

     Dynamical RAM for               rhoin:       3.29 MB

     Dynamical RAM for            rho*nmix:      24.47 MB

     Dynamical RAM for           G-vectors:       6.01 MB

     Dynamical RAM for          h,s,v(r/c):       4.81 MB

     Dynamical RAM for          <psi|beta>:       4.63 MB

     Dynamical RAM for                 psi:      43.80 MB

     Dynamical RAM for                hpsi:      43.80 MB

     Dynamical RAM for                spsi:      43.80 MB

     Dynamical RAM for      wfcinit/wfcrot:      68.29 MB

     Dynamical RAM for           addusdens:      86.04 MB

     Dynamical RAM for          addusforce:     112.56 MB

     Estimated static dynamical RAM per process >     167.78 MB

     Estimated max dynamical RAM per process >     333.09 MB

     Estimated total dynamical RAM >       9.84 GB

     Check: negative core charge=   -0.000002

     Initial potential from superposition of free atoms

     starting charge     647.8659, renormalised to     648.0000
     Starting wfcs are  468 randomized atomic wfcs

     total cpu time spent up to now is       29.4 secs

     Self-consistent Calculation

     iteration #  1     ecut=    50.00 Ry     beta= 0.30
     Davidson diagonalization with overlap

---- Real-time Memory Report at c_bands before calling an iterative solver
           257 MiB given to the printing process from OS
             0 MiB allocation reported by mallinfo(arena+hblkhd)
        118310 MiB available memory on the node where the printing process lives
------------------
     ethr =  1.00E-02,  avg # of iterations =  2.0

     total cpu time spent up to now is       65.1 secs

     total energy              =   -6506.63553669 Ry
     estimated scf accuracy    <      12.42249587 Ry

     iteration #  2     ecut=    50.00 Ry     beta= 0.30
     Davidson diagonalization with overlap

---- Real-time Memory Report at c_bands before calling an iterative solver
           352 MiB given to the printing process from OS
             0 MiB allocation reported by mallinfo(arena+hblkhd)
        115401 MiB available memory on the node where the printing process lives
------------------
     ethr =  1.92E-03,  avg # of iterations =  2.0

     total cpu time spent up to now is      111.2 secs

     total energy              =   -6508.44604783 Ry
     estimated scf accuracy    <       1.56901133 Ry

     iteration #  3     ecut=    50.00 Ry     beta= 0.30
     Davidson diagonalization with overlap

---- Real-time Memory Report at c_bands before calling an iterative solver
           371 MiB given to the printing process from OS
             0 MiB allocation reported by mallinfo(arena+hblkhd)
        115274 MiB available memory on the node where the printing process lives
------------------
     ethr =  2.42E-04,  avg # of iterations =  8.8

     total cpu time spent up to now is      201.5 secs

     total energy              =   -6509.03710284 Ry
     estimated scf accuracy    <       0.95457503 Ry

     iteration #  4     ecut=    50.00 Ry     beta= 0.30
     Davidson diagonalization with overlap

---- Real-time Memory Report at c_bands before calling an iterative solver
           372 MiB given to the printing process from OS
             0 MiB allocation reported by mallinfo(arena+hblkhd)
        115477 MiB available memory on the node where the printing process lives
------------------
     ethr =  1.47E-04,  avg # of iterations =  9.6

     total cpu time spent up to now is      311.9 secs

     total energy              =   -6509.56186780 Ry
     estimated scf accuracy    <       3.49517160 Ry

     iteration #  5     ecut=    50.00 Ry     beta= 0.30
     Davidson diagonalization with overlap

---- Real-time Memory Report at c_bands before calling an iterative solver
           375 MiB given to the printing process from OS
             0 MiB allocation reported by mallinfo(arena+hblkhd)
        115360 MiB available memory on the node where the printing process lives
------------------
     ethr =  1.47E-04,  avg # of iterations =  2.0

     total cpu time spent up to now is      349.0 secs

     total energy              =   -6508.18561199 Ry
     estimated scf accuracy    <       1.88627673 Ry

     iteration #  6     ecut=    50.00 Ry     beta= 0.30
     Davidson diagonalization with overlap

---- Real-time Memory Report at c_bands before calling an iterative solver
           376 MiB given to the printing process from OS
             0 MiB allocation reported by mallinfo(arena+hblkhd)
        115279 MiB available memory on the node where the printing process lives
------------------
     ethr =  1.47E-04,  avg # of iterations = 13.0

     total cpu time spent up to now is      489.8 secs

     total energy              =   -6507.08767380 Ry
     estimated scf accuracy    <      22.51931594 Ry

     iteration #  7     ecut=    50.00 Ry     beta= 0.30
     Davidson diagonalization with overlap

---- Real-time Memory Report at c_bands before calling an iterative solver
           377 MiB given to the printing process from OS
             0 MiB allocation reported by mallinfo(arena+hblkhd)
        115215 MiB available memory on the node where the printing process lives
------------------
     ethr =  1.47E-04,  avg # of iterations = 12.8

     total cpu time spent up to now is      617.5 secs

     total energy              =   -6509.44457268 Ry
     estimated scf accuracy    <       1.01731812 Ry

     iteration #  8     ecut=    50.00 Ry     beta= 0.30
     Davidson diagonalization with overlap

---- Real-time Memory Report at c_bands before calling an iterative solver
           378 MiB given to the printing process from OS
             0 MiB allocation reported by mallinfo(arena+hblkhd)
        115466 MiB available memory on the node where the printing process lives
------------------
     ethr =  1.47E-04,  avg # of iterations =  2.0

     total cpu time spent up to now is      653.4 secs

     total energy              =   -6509.38591519 Ry
     estimated scf accuracy    <       0.58230722 Ry

     iteration #  9     ecut=    50.00 Ry     beta= 0.30
     Davidson diagonalization with overlap

---- Real-time Memory Report at c_bands before calling an iterative solver
           380 MiB given to the printing process from OS
             0 MiB allocation reported by mallinfo(arena+hblkhd)
        115373 MiB available memory on the node where the printing process lives
------------------
     ethr =  8.99E-05,  avg # of iterations =  3.0

     total cpu time spent up to now is      697.0 secs

     total energy              =   -6509.39905446 Ry
     estimated scf accuracy    <       0.20347838 Ry

     iteration # 10     ecut=    50.00 Ry     beta= 0.30
     Davidson diagonalization with overlap

---- Real-time Memory Report at c_bands before calling an iterative solver
           380 MiB given to the printing process from OS
             0 MiB allocation reported by mallinfo(arena+hblkhd)
        115165 MiB available memory on the node where the printing process lives
------------------
     ethr =  3.14E-05,  avg # of iterations =  6.8

     total cpu time spent up to now is      755.0 secs

     total energy              =   -6509.45683657 Ry
     estimated scf accuracy    <       0.01067222 Ry

     iteration # 11     ecut=    50.00 Ry     beta= 0.30
     Davidson diagonalization with overlap

---- Real-time Memory Report at c_bands before calling an iterative solver
           382 MiB given to the printing process from OS
             0 MiB allocation reported by mallinfo(arena+hblkhd)
        115332 MiB available memory on the node where the printing process lives
------------------
     ethr =  1.65E-06,  avg # of iterations =  7.1

     total cpu time spent up to now is      827.9 secs

     total energy              =   -6509.46746243 Ry
     estimated scf accuracy    <       0.00106259 Ry

     iteration # 12     ecut=    50.00 Ry     beta= 0.30
     Davidson diagonalization with overlap

---- Real-time Memory Report at c_bands before calling an iterative solver
           382 MiB given to the printing process from OS
             0 MiB allocation reported by mallinfo(arena+hblkhd)
        115252 MiB available memory on the node where the printing process lives
------------------
     ethr =  1.64E-07,  avg # of iterations = 11.2

     total cpu time spent up to now is      958.0 secs

     total energy              =   -6509.46391158 Ry
     estimated scf accuracy    <       0.02531315 Ry

     iteration # 13     ecut=    50.00 Ry     beta= 0.30
     Davidson diagonalization with overlap

---- Real-time Memory Report at c_bands before calling an iterative solver
           382 MiB given to the printing process from OS
             0 MiB allocation reported by mallinfo(arena+hblkhd)
        115194 MiB available memory on the node where the printing process lives
------------------
     ethr =  1.64E-07,  avg # of iterations =  9.2

     total cpu time spent up to now is     1061.9 secs

     total energy              =   -6509.46421497 Ry
     estimated scf accuracy    <       0.00577121 Ry

     iteration # 14     ecut=    50.00 Ry     beta= 0.30
     Davidson diagonalization with overlap

---- Real-time Memory Report at c_bands before calling an iterative solver
           382 MiB given to the printing process from OS
             0 MiB allocation reported by mallinfo(arena+hblkhd)
        115180 MiB available memory on the node where the printing process lives
------------------
     ethr =  1.64E-07,  avg # of iterations =  6.9

     total cpu time spent up to now is     1108.4 secs

     total energy              =   -6509.46279643 Ry
     estimated scf accuracy    <       0.00350858 Ry

     iteration # 15     ecut=    50.00 Ry     beta= 0.30
     Davidson diagonalization with overlap

---- Real-time Memory Report at c_bands before calling an iterative solver
           382 MiB given to the printing process from OS
             0 MiB allocation reported by mallinfo(arena+hblkhd)
        115307 MiB available memory on the node where the printing process lives
------------------
     ethr =  1.64E-07,  avg # of iterations =  9.0

     total cpu time spent up to now is     1209.7 secs

     total energy              =   -6509.46394670 Ry
     estimated scf accuracy    <       0.00016876 Ry

     iteration # 16     ecut=    50.00 Ry     beta= 0.30
     Davidson diagonalization with overlap

---- Real-time Memory Report at c_bands before calling an iterative solver
           382 MiB given to the printing process from OS
             0 MiB allocation reported by mallinfo(arena+hblkhd)
        115541 MiB available memory on the node where the printing process lives
------------------
     ethr =  2.60E-08,  avg # of iterations =  4.5

     total cpu time spent up to now is     1259.0 secs

     total energy              =   -6509.46396276 Ry
     estimated scf accuracy    <       0.00003663 Ry

     iteration # 17     ecut=    50.00 Ry     beta= 0.30
     Davidson diagonalization with overlap

---- Real-time Memory Report at c_bands before calling an iterative solver
           382 MiB given to the printing process from OS
             0 MiB allocation reported by mallinfo(arena+hblkhd)
        115226 MiB available memory on the node where the printing process lives
------------------
     ethr =  5.65E-09,  avg # of iterations =  7.2

     total cpu time spent up to now is     1331.5 secs

     total energy              =   -6509.46399058 Ry
     estimated scf accuracy    <       0.00000234 Ry

     iteration # 18     ecut=    50.00 Ry     beta= 0.30
     Davidson diagonalization with overlap

---- Real-time Memory Report at c_bands before calling an iterative solver
           382 MiB given to the printing process from OS
             0 MiB allocation reported by mallinfo(arena+hblkhd)
        115470 MiB available memory on the node where the printing process lives
------------------
     ethr =  3.61E-10,  avg # of iterations = 17.8

     total cpu time spent up to now is     1488.3 secs

     total energy              =   -6509.46400463 Ry
     estimated scf accuracy    <       0.00010908 Ry

     iteration # 19     ecut=    50.00 Ry     beta= 0.30
     Davidson diagonalization with overlap

---- Real-time Memory Report at c_bands before calling an iterative solver
           382 MiB given to the printing process from OS
             0 MiB allocation reported by mallinfo(arena+hblkhd)
        115251 MiB available memory on the node where the printing process lives
------------------
     ethr =  3.61E-10,  avg # of iterations =  2.0

     total cpu time spent up to now is     1527.1 secs

     total energy              =   -6509.46400278 Ry
     estimated scf accuracy    <       0.00009826 Ry

     iteration # 20     ecut=    50.00 Ry     beta= 0.30
     Davidson diagonalization with overlap

---- Real-time Memory Report at c_bands before calling an iterative solver
           382 MiB given to the printing process from OS
             0 MiB allocation reported by mallinfo(arena+hblkhd)
        115260 MiB available memory on the node where the printing process lives
------------------
     ethr =  3.61E-10,  avg # of iterations =  5.4

     total cpu time spent up to now is     1585.5 secs

     total energy              =   -6509.46398463 Ry
     estimated scf accuracy    <       0.00008537 Ry

     iteration # 21     ecut=    50.00 Ry     beta= 0.30
     Davidson diagonalization with overlap

---- Real-time Memory Report at c_bands before calling an iterative solver
           382 MiB given to the printing process from OS
             0 MiB allocation reported by mallinfo(arena+hblkhd)
        115371 MiB available memory on the node where the printing process lives
------------------
     ethr =  3.61E-10,  avg # of iterations =  9.8

     total cpu time spent up to now is     1694.7 secs

     total energy              =   -6509.46398464 Ry
     estimated scf accuracy    <       0.00002509 Ry

     iteration # 22     ecut=    50.00 Ry     beta= 0.30
     Davidson diagonalization with overlap

---- Real-time Memory Report at c_bands before calling an iterative solver
           382 MiB given to the printing process from OS
             0 MiB allocation reported by mallinfo(arena+hblkhd)
        115492 MiB available memory on the node where the printing process lives
------------------
     ethr =  3.61E-10,  avg # of iterations =  6.5

     total cpu time spent up to now is     1740.1 secs

     total energy              =   -6509.46397259 Ry
     estimated scf accuracy    <       0.00001748 Ry

     iteration # 23     ecut=    50.00 Ry     beta= 0.30
     Davidson diagonalization with overlap

---- Real-time Memory Report at c_bands before calling an iterative solver
           382 MiB given to the printing process from OS
             0 MiB allocation reported by mallinfo(arena+hblkhd)
        115230 MiB available memory on the node where the printing process lives
------------------
     ethr =  3.61E-10,  avg # of iterations = 16.2

     total cpu time spent up to now is     1891.7 secs

     total energy              =   -6509.46399772 Ry
     estimated scf accuracy    <       0.00002906 Ry

     iteration # 24     ecut=    50.00 Ry     beta= 0.30
     Davidson diagonalization with overlap

---- Real-time Memory Report at c_bands before calling an iterative solver
           382 MiB given to the printing process from OS
             0 MiB allocation reported by mallinfo(arena+hblkhd)
        115421 MiB available memory on the node where the printing process lives
------------------
     ethr =  3.61E-10,  avg # of iterations =  7.1

     total cpu time spent up to now is     1972.8 secs

     total energy              =   -6509.46398569 Ry
     estimated scf accuracy    <       0.00006435 Ry

     iteration # 25     ecut=    50.00 Ry     beta= 0.30
     Davidson diagonalization with overlap

---- Real-time Memory Report at c_bands before calling an iterative solver
           382 MiB given to the printing process from OS
             0 MiB allocation reported by mallinfo(arena+hblkhd)
        115469 MiB available memory on the node where the printing process lives
------------------
     ethr =  3.61E-10,  avg # of iterations =  7.6

     total cpu time spent up to now is     2065.8 secs

     total energy              =   -6509.46398354 Ry
     estimated scf accuracy    <       0.00002300 Ry

     iteration # 26     ecut=    50.00 Ry     beta= 0.30
     Davidson diagonalization with overlap

---- Real-time Memory Report at c_bands before calling an iterative solver
           382 MiB given to the printing process from OS
             0 MiB allocation reported by mallinfo(arena+hblkhd)
        115339 MiB available memory on the node where the printing process lives
------------------
     ethr =  3.61E-10,  avg # of iterations =  7.0

     total cpu time spent up to now is     2127.4 secs

     total energy              =   -6509.46398142 Ry
     estimated scf accuracy    <       0.00001041 Ry

     iteration # 27     ecut=    50.00 Ry     beta= 0.30
     Davidson diagonalization with overlap

---- Real-time Memory Report at c_bands before calling an iterative solver
           382 MiB given to the printing process from OS
             0 MiB allocation reported by mallinfo(arena+hblkhd)
        115369 MiB available memory on the node where the printing process lives
------------------
     ethr =  3.61E-10,  avg # of iterations =  6.1

     total cpu time spent up to now is     2192.8 secs

     total energy              =   -6509.46398196 Ry
     estimated scf accuracy    <       0.00000165 Ry

     iteration # 28     ecut=    50.00 Ry     beta= 0.30
     Davidson diagonalization with overlap

---- Real-time Memory Report at c_bands before calling an iterative solver
           383 MiB given to the printing process from OS
             0 MiB allocation reported by mallinfo(arena+hblkhd)
        115318 MiB available memory on the node where the printing process lives
------------------
     ethr =  2.54E-10,  avg # of iterations =  5.6

     total cpu time spent up to now is     2240.2 secs

     total energy              =   -6509.46398193 Ry
     estimated scf accuracy    <       0.00000045 Ry

     iteration # 29     ecut=    50.00 Ry     beta= 0.30
     Davidson diagonalization with overlap

---- Real-time Memory Report at c_bands before calling an iterative solver
           383 MiB given to the printing process from OS
             0 MiB allocation reported by mallinfo(arena+hblkhd)
        115247 MiB available memory on the node where the printing process lives
------------------
     ethr =  7.00E-11,  avg # of iterations =  8.8

     total cpu time spent up to now is     2323.2 secs

     total energy              =   -6509.46398230 Ry
     estimated scf accuracy    <       0.00000023 Ry

     iteration # 30     ecut=    50.00 Ry     beta= 0.30
     Davidson diagonalization with overlap

---- Real-time Memory Report at c_bands before calling an iterative solver
           383 MiB given to the printing process from OS
             0 MiB allocation reported by mallinfo(arena+hblkhd)
        115267 MiB available memory on the node where the printing process lives
------------------
     ethr =  3.53E-11,  avg # of iterations =  2.0

     total cpu time spent up to now is     2359.6 secs

     total energy              =   -6509.46398220 Ry
     estimated scf accuracy    <       0.00000021 Ry

     iteration # 31     ecut=    50.00 Ry     beta= 0.30
     Davidson diagonalization with overlap

---- Real-time Memory Report at c_bands before calling an iterative solver
           383 MiB given to the printing process from OS
             0 MiB allocation reported by mallinfo(arena+hblkhd)
        115560 MiB available memory on the node where the printing process lives
------------------
     ethr =  3.22E-11,  avg # of iterations =  3.1

     total cpu time spent up to now is     2404.9 secs

     total energy              =   -6509.46398222 Ry
     estimated scf accuracy    <       0.00000003 Ry

     iteration # 32     ecut=    50.00 Ry     beta= 0.30
     Davidson diagonalization with overlap

---- Real-time Memory Report at c_bands before calling an iterative solver
           383 MiB given to the printing process from OS
             0 MiB allocation reported by mallinfo(arena+hblkhd)
        115233 MiB available memory on the node where the printing process lives
------------------
     ethr =  4.06E-12,  avg # of iterations =  9.6

     total cpu time spent up to now is     2509.2 secs

     total energy              =   -6509.46398226 Ry
     estimated scf accuracy    <       0.00000004 Ry

     iteration # 33     ecut=    50.00 Ry     beta= 0.30
     Davidson diagonalization with overlap

---- Real-time Memory Report at c_bands before calling an iterative solver
           383 MiB given to the printing process from OS
             0 MiB allocation reported by mallinfo(arena+hblkhd)
        115220 MiB available memory on the node where the printing process lives
------------------
     ethr =  4.06E-12,  avg # of iterations =  1.1

     total cpu time spent up to now is     2542.8 secs

     total energy              =   -6509.46398226 Ry
     estimated scf accuracy    <       0.00000004 Ry

     iteration # 34     ecut=    50.00 Ry     beta= 0.30
     Davidson diagonalization with overlap

---- Real-time Memory Report at c_bands before calling an iterative solver
           383 MiB given to the printing process from OS
             0 MiB allocation reported by mallinfo(arena+hblkhd)
        115363 MiB available memory on the node where the printing process lives
------------------
     ethr =  4.06E-12,  avg # of iterations =  1.1

     total cpu time spent up to now is     2576.7 secs

     total energy              =   -6509.46398224 Ry
     estimated scf accuracy    <       0.00000002 Ry

     iteration # 35     ecut=    50.00 Ry     beta= 0.30
     Davidson diagonalization with overlap

---- Real-time Memory Report at c_bands before calling an iterative solver
           383 MiB given to the printing process from OS
             0 MiB allocation reported by mallinfo(arena+hblkhd)
        115443 MiB available memory on the node where the printing process lives
------------------
     ethr =  3.34E-12,  avg # of iterations =  7.8

     total cpu time spent up to now is     2663.1 secs

     total energy              =   -6509.46398225 Ry
     estimated scf accuracy    <       0.00000002 Ry

     iteration # 36     ecut=    50.00 Ry     beta= 0.30
     Davidson diagonalization with overlap

---- Real-time Memory Report at c_bands before calling an iterative solver
           383 MiB given to the printing process from OS
             0 MiB allocation reported by mallinfo(arena+hblkhd)
        115181 MiB available memory on the node where the printing process lives
------------------
     ethr =  2.32E-12,  avg # of iterations =  1.2

     total cpu time spent up to now is     2697.8 secs

     End of self-consistent calculation

          k = 0.0000 0.0000 0.0000 ( 35443 PWs)   bands (ev):

   -10.9985 -10.8352 -10.8352 -10.5470 -10.5470 -10.4952 -10.4952 -10.4472
   -10.4472 -10.4472 -10.4472 -10.3567 -10.3567 -10.3493 -10.3183 -10.2962
   -10.2962 -10.2962 -10.2962 -10.2915 -10.2915 -10.2520 -10.2520 -10.2520
   -10.2520 -10.1869 -10.1869 -10.1859 -10.1859 -10.1859 -10.1859 -10.1575
   -10.1575 -10.1408 -10.1368 -10.1368   0.9558   0.9558   0.9558   0.9558
     0.9825   0.9825   1.0419   1.0419   1.0471   1.0471   1.0906   1.0906
     1.0906   1.0906   1.1038   1.1038   1.1038   1.1038   1.1141   1.1614
     1.1614   1.1968   1.1968   1.1968   1.1968   1.2062   1.2062   1.2098
     1.2098   1.3159   1.3159   1.3230   1.3450   1.3450   1.3451   1.3451
     1.3565   1.3780   1.3780   1.4366   1.4366   1.4366   1.4366   1.4392
     1.4529   1.4529   1.5014   1.5014   1.5196   1.5196   1.5609   1.5839
     1.5839   1.5839   1.5839   1.5839   1.5839   1.5967   1.5967   1.5967
     1.5967   1.6641   1.6641   1.6673   1.6673   1.6673   1.6673   1.7197
     1.7197   1.7338   1.7338   1.7338   1.7338   1.7583   1.7583   1.7583
     1.7583   1.7846   1.7846   1.7846   1.7846   1.7926   1.7926   1.8687
     1.8687   1.8803   1.8803   1.8904   1.8904   1.8904   1.8904   1.9005
     1.9005   1.9133   1.9133   1.9133   1.9133   1.9178   1.9178   1.9413
     1.9538   2.0312   2.0312   2.0460   2.0460   2.0753   2.1149   2.1149
     2.3484   2.3484   2.4055   2.4055   2.4282   2.4282   2.4642   2.4731
     2.4731   2.4787   2.4787   2.4787   2.4787   2.4918   2.4918   2.4918
     2.4918   2.4958   2.4958   2.4958   2.4958   2.4988   2.4988   2.5339
     2.5339   2.5339   2.5339   2.5677   2.5677   2.5677   2.5677   2.5909
     2.5918   2.5918   2.5918   2.5918   2.6003   2.6003   2.6097   2.6097
     2.6097   2.6097   2.6248   2.6248   2.6268   2.6268   2.6330   2.6330
     2.6552   2.6552   2.6705   2.6819   2.6819   2.6819   2.6819   2.6836
     2.6836   2.6913   2.6913   2.6913   2.6913   2.7318   2.7318   2.7418
     2.8116   2.8116   2.8116   2.8116   2.8131   2.8131   2.8732   2.8732
     2.8918   3.0747   3.0747   3.0838   3.0838   3.1456   3.1456   3.2047
     3.2568   3.2568   3.2568   3.2568   3.2754   3.2754   3.4268   3.5916
     3.5916   3.5916   3.5916   3.6415   3.6415   3.6415   3.6415   3.6813
     3.6813   3.7941   3.7941   3.8753   3.8753   4.0473   4.0473   4.0473
     4.0473   4.1030   4.1030   4.1406   4.4220   4.4220   4.5350   4.5350
     4.5350   4.5350   4.6506   4.6506   4.7139   4.9084   4.9084   4.9084
     4.9084   5.0141   5.0141   5.0817   5.0817   5.0817   5.0817   5.0927
     5.0927   5.0972   5.0972   5.3813   5.3813   5.3813   5.3813   5.4185
     5.4185   5.4185   5.4185   5.4566   5.4566   5.6135   5.6135   5.6402
     5.7659   5.7659   5.7926   5.7926   5.7975   5.7975   5.8447   5.8447
     5.8447   5.8447   5.9792   5.9792   5.9792   5.9792   6.0154   6.0154
     6.0154   6.0154   6.0830   6.0930   6.0930   6.1251   6.1251   6.3015
     6.3016   6.3189   6.3189   6.3189   6.3189   6.7003   6.7003   6.7003
     6.7003   6.8049   6.8873   6.8873

     occupation numbers 
     1.0000   1.0000   1.0000   1.0000   1.0000   1.0000   1.0000   1.0000
     1.0000   1.0000   1.0000   1.0000   1.0000   1.0000   1.0000   1.0000
     1.0000   1.0000   1.0000   1.0000   1.0000   1.0000   1.0000   1.0000
     1.0000   1.0000   1.0000   1.0000   1.0000   1.0000   1.0000   1.0000
     1.0000   1.0000   1.0000   1.0000   1.0000   1.0000   1.0000   1.0000
     1.0000   1.0000   1.0000   1.0000   1.0000   1.0000   1.0000   1.0000
     1.0000   1.0000   1.0000   1.0000   1.0000   1.0000   1.0000   1.0000
     1.0000   1.0000   1.0000   1.0000   1.0000   1.0000   1.0000   1.0000
     1.0000   1.0000   1.0000   1.0000   1.0000   1.0000   1.0000   1.0000
     1.0000   1.0000   1.0000   1.0000   1.0000   1.0000   1.0000   1.0000
     1.0000   1.0000   1.0000   1.0000   1.0000   1.0000   1.0000   1.0000
     1.0000   1.0000   1.0000   1.0000   1.0000   1.0000   1.0000   1.0000
     1.0000   1.0000   1.0000   1.0000   1.0000   1.0000   1.0000   1.0000
     1.0000   1.0000   1.0000   1.0000   1.0000   1.0000   1.0000   1.0000
     1.0000   1.0000   1.0000   1.0000   1.0000   1.0000   1.0000   1.0000
     1.0000   1.0000   1.0000   1.0000   1.0000   1.0000   1.0000   1.0000
     1.0000   1.0000   1.0000   1.0000   1.0000   1.0000   1.0000   1.0000
     1.0000   1.0000   1.0000   1.0000   1.0000   1.0000   1.0000   1.0000
     1.0000   1.0000   1.0000   1.0000   1.0000   1.0000   1.0000   1.0000
     1.0000   1.0000   1.0000   1.0000   1.0000   1.0000   1.0000   1.0000
     1.0000   1.0000   1.0000   1.0000   1.0000   1.0000   1.0000   1.0000
     1.0000   1.0000   1.0000   1.0000   1.0000   1.0000   1.0000   1.0000
     1.0000   1.0000   1.0000   1.0000   1.0000   1.0000   1.0000   1.0000
     1.0000   1.0000   1.0000   1.0000   1.0000   1.0000   1.0000   1.0000
     1.0000   1.0000   1.0000   1.0000   1.0000   1.0000   1.0000   1.0000
     1.0000   1.0000   1.0000   1.0000   1.0000   1.0000   1.0000   1.0000
     1.0000   1.0000   1.0000   1.0000   1.0000   1.0000   1.0000   1.0000
     1.0000   1.0000   1.0000   1.0000   1.0000   1.0000   1.0000   1.0000
     1.0000   1.0000   1.0000   1.0000   1.0000   1.0000   1.0000   1.0000
     1.0000   1.0000   1.0000   1.0000   1.0000   1.0000   1.0000   1.0000
     1.0000   1.0000   1.0000   1.0000   1.0000   1.0000   1.0000   1.0000
     1.0000   1.0000   1.0000   1.0000   1.0000   1.0000   1.0000   1.0000
     1.0000   1.0000   1.0000   1.0000   1.0000   1.0000   1.0000   1.0000
     1.0000   1.0000   1.0000   1.0000   1.0000   1.0000   1.0000   1.0000
     1.0000   1.0000   1.0000   1.0000   1.0000   1.0000   1.0000   1.0000
     1.0000   1.0000   1.0000   1.0000   1.0000   1.0000   1.0000   1.0000
     1.0000   1.0000   1.0000   1.0000   1.0000   1.0000   1.0000   1.0000
     1.0000   1.0000   1.0000   1.0000   1.0000   1.0000   1.0000   1.0000
     1.0000   1.0000   1.0000   1.0000   1.0000   1.0000   1.0000   1.0000
     1.0000   1.0000   1.0000   1.0000   1.0000   1.0000   1.0000   1.0000
     1.0000   1.0000   1.0000   1.0000

          k = 0.0000 0.0000-0.3097 ( 35412 PWs)   bands (ev):

   -10.9552 -10.9552 -10.6675 -10.6675 -10.5202 -10.5202 -10.5201 -10.5201
   -10.3662 -10.3661 -10.3487 -10.3487 -10.3487 -10.3487 -10.3402 -10.3402
   -10.3402 -10.3402 -10.3335 -10.3335 -10.2392 -10.2392 -10.2392 -10.2392
   -10.2372 -10.2372 -10.1826 -10.1826 -10.1826 -10.1826 -10.1527 -10.1527
   -10.1495 -10.1495 -10.1495 -10.1495   0.9527   0.9527   0.9620   0.9620
     0.9620   0.9620   1.0113   1.0113   1.0113   1.0113   1.0697   1.0697
     1.0856   1.0856   1.0856   1.0856   1.1297   1.1297   1.1780   1.1780
     1.1780   1.1780   1.2255   1.2255   1.2878   1.2878   1.2878   1.2878
     1.3102   1.3102   1.3169   1.3169   1.3225   1.3225   1.3225   1.3225
     1.3762   1.3762   1.3762   1.3762   1.3852   1.3852   1.3852   1.3852
     1.4826   1.4826   1.4826   1.4826   1.5395   1.5395   1.5395   1.5395
     1.5637   1.5637   1.5637   1.5637   1.5871   1.5871   1.6623   1.6623
     1.6623   1.6623   1.6841   1.6841   1.6841   1.6841   1.6874   1.6874
     1.6874   1.6874   1.6945   1.6945   1.6945   1.6945   1.7730   1.7730
     1.7730   1.7730   1.7821   1.7821   1.8586   1.8586   1.8597   1.8597
     1.8597   1.8597   1.8679   1.8679   1.8679   1.8679   1.8969   1.8969
     1.8969   1.8969   1.9133   1.9133   1.9195   1.9195   1.9824   1.9824
     1.9824   1.9824   2.0290   2.0290   2.0290   2.0290   2.0308   2.0308
     2.3853   2.3853   2.3853   2.3853   2.4172   2.4172   2.4172   2.4172
     2.4460   2.4460   2.4460   2.4460   2.5083   2.5083   2.5083   2.5083
     2.5266   2.5266   2.5393   2.5393   2.5393   2.5393   2.5468   2.5468
     2.5468   2.5468   2.5532   2.5532   2.5532   2.5532   2.5702   2.5702
     2.5702   2.5702   2.5851   2.5851   2.5851   2.5851   2.5930   2.5930
     2.6133   2.6133   2.6172   2.6172   2.6172   2.6172   2.6425   2.6425
     2.6425   2.6425   2.6574   2.6574   2.6804   2.6804   2.6804   2.6804
     2.6978   2.6978   2.7390   2.7390   2.7390   2.7390   2.7411   2.7411
     2.7606   2.7606   2.7606   2.7606   2.8696   2.8696   2.8696   2.8696
     3.1154   3.1154   3.1154   3.1154   3.1660   3.1660   3.1878   3.1878
     3.2007   3.2007   3.3424   3.3424   3.3424   3.3424   3.3761   3.3761
     3.4275   3.4275   3.4275   3.4275   3.6971   3.6971   3.6971   3.6971
     3.8757   3.8757   3.8757   3.8757   3.9351   3.9351   3.9351   3.9351
     4.2091   4.2091   4.2091   4.2091   4.4237   4.4237   4.6167   4.6167
     4.6167   4.6167   4.6229   4.6229   4.6229   4.6229   4.6601   4.6601
     4.8200   4.8200   4.9299   4.9299   4.9299   4.9299   5.1856   5.1856
     5.1856   5.1856   5.4385   5.4385   5.5303   5.5303   5.5303   5.5303
     5.5539   5.5539   5.5972   5.5972   5.5972   5.5972   5.6422   5.6422
     5.6422   5.6422   5.7224   5.7224   5.7224   5.7224   5.7267   5.7267
     5.7986   5.7986   5.7986   5.7986   5.9986   5.9986   6.1084   6.1084
     6.1084   6.1084   6.1771   6.1772   6.1772   6.1772   6.2254   6.2254
     6.2254   6.2254   6.2429   6.2429   6.5108   6.5108   6.5108   6.5108
     6.8374   6.8374   6.8374   6.8374

     occupation numbers 
     1.0000   1.0000   1.0000   1.0000   1.0000   1.0000   1.0000   1.0000
     1.0000   1.0000   1.0000   1.0000   1.0000   1.0000   1.0000   1.0000
     1.0000   1.0000   1.0000   1.0000   1.0000   1.0000   1.0000   1.0000
     1.0000   1.0000   1.0000   1.0000   1.0000   1.0000   1.0000   1.0000
     1.0000   1.0000   1.0000   1.0000   1.0000   1.0000   1.0000   1.0000
     1.0000   1.0000   1.0000   1.0000   1.0000   1.0000   1.0000   1.0000
     1.0000   1.0000   1.0000   1.0000   1.0000   1.0000   1.0000   1.0000
     1.0000   1.0000   1.0000   1.0000   1.0000   1.0000   1.0000   1.0000
     1.0000   1.0000   1.0000   1.0000   1.0000   1.0000   1.0000   1.0000
     1.0000   1.0000   1.0000   1.0000   1.0000   1.0000   1.0000   1.0000
     1.0000   1.0000   1.0000   1.0000   1.0000   1.0000   1.0000   1.0000
     1.0000   1.0000   1.0000   1.0000   1.0000   1.0000   1.0000   1.0000
     1.0000   1.0000   1.0000   1.0000   1.0000   1.0000   1.0000   1.0000
     1.0000   1.0000   1.0000   1.0000   1.0000   1.0000   1.0000   1.0000
     1.0000   1.0000   1.0000   1.0000   1.0000   1.0000   1.0000   1.0000
     1.0000   1.0000   1.0000   1.0000   1.0000   1.0000   1.0000   1.0000
     1.0000   1.0000   1.0000   1.0000   1.0000   1.0000   1.0000   1.0000
     1.0000   1.0000   1.0000   1.0000   1.0000   1.0000   1.0000   1.0000
     1.0000   1.0000   1.0000   1.0000   1.0000   1.0000   1.0000   1.0000
     1.0000   1.0000   1.0000   1.0000   1.0000   1.0000   1.0000   1.0000
     1.0000   1.0000   1.0000   1.0000   1.0000   1.0000   1.0000   1.0000
     1.0000   1.0000   1.0000   1.0000   1.0000   1.0000   1.0000   1.0000
     1.0000   1.0000   1.0000   1.0000   1.0000   1.0000   1.0000   1.0000
     1.0000   1.0000   1.0000   1.0000   1.0000   1.0000   1.0000   1.0000
     1.0000   1.0000   1.0000   1.0000   1.0000   1.0000   1.0000   1.0000
     1.0000   1.0000   1.0000   1.0000   1.0000   1.0000   1.0000   1.0000
     1.0000   1.0000   1.0000   1.0000   1.0000   1.0000   1.0000   1.0000
     1.0000   1.0000   1.0000   1.0000   1.0000   1.0000   1.0000   1.0000
     1.0000   1.0000   1.0000   1.0000   1.0000   1.0000   1.0000   1.0000
     1.0000   1.0000   1.0000   1.0000   1.0000   1.0000   1.0000   1.0000
     1.0000   1.0000   1.0000   1.0000   1.0000   1.0000   1.0000   1.0000
     1.0000   1.0000   1.0000   1.0000   1.0000   1.0000   1.0000   1.0000
     1.0000   1.0000   1.0000   1.0000   1.0000   1.0000   1.0000   1.0000
     1.0000   1.0000   1.0000   1.0000   1.0000   1.0000   1.0000   1.0000
     1.0000   1.0000   1.0000   1.0000   1.0000   1.0000   1.0000   1.0000
     1.0000   1.0000   1.0000   1.0000   1.0000   1.0000   1.0000   1.0000
     1.0000   1.0000   1.0000   1.0000   1.0000   1.0000   1.0000   1.0000
     1.0000   1.0000   1.0000   1.0000   1.0000   1.0000   1.0000   1.0000
     1.0000   1.0000   1.0000   1.0000   1.0000   1.0000   1.0000   1.0000
     1.0000   1.0000   1.0000   1.0000   1.0000   1.0000   1.0000   1.0000
     1.0000   1.0000   1.0000   1.0000

          k = 0.0000 0.5774 0.0000 ( 35452 PWs)   bands (ev):

   -10.8594 -10.7128 -10.7128 -10.6323 -10.5470 -10.5470 -10.5179 -10.5179
   -10.4472 -10.4472 -10.4472 -10.4472 -10.4121 -10.4121 -10.3567 -10.2962
   -10.2962 -10.2905 -10.2905 -10.2582 -10.2520 -10.2520 -10.2520 -10.2520
   -10.1943 -10.1943 -10.1873 -10.1873 -10.1873 -10.1873 -10.1859 -10.1859
   -10.1782 -10.1575 -10.1575 -10.1368   0.9558   0.9558   0.9558   0.9558
     1.0368   1.0368   1.0419   1.0419   1.0820   1.0820   1.0906   1.0906
     1.0906   1.0906   1.1038   1.1038   1.1268   1.1268   1.1443   1.1443
     1.1448   1.1787   1.1968   1.1968   1.2098   1.2800   1.3347   1.3780
     1.3780   1.3917   1.3917   1.3939   1.4031   1.4031   1.4031   1.4031
     1.4175   1.4331   1.4331   1.4425   1.4425   1.4529   1.4978   1.5169
     1.5169   1.5196   1.5196   1.5220   1.5220   1.5272   1.5381   1.5381
     1.5437   1.5437   1.5839   1.5839   1.5839   1.5845   1.5967   1.5967
     1.5967   1.5967   1.6182   1.6647   1.6673   1.6673   1.6673   1.6673
     1.6688   1.6688   1.6853   1.6853   1.7170   1.7170   1.7197   1.7197
     1.7338   1.7338   1.7417   1.7417   1.7583   1.7583   1.7583   1.7583
     1.7846   1.7846   1.7846   1.7846   1.7926   1.8373   1.8904   1.8904
     1.9005   1.9005   1.9133   1.9133   1.9688   2.0258   2.0312   2.0312
     2.0460   2.0771   2.0771   2.0771   2.0771   2.1149   2.2690   2.2690
     2.3226   2.3484   2.3484   2.3627   2.3719   2.4055   2.4064   2.4065
     2.4269   2.4473   2.4607   2.4607   2.4609   2.4609   2.4695   2.4695
     2.4731   2.4787   2.4787   2.4787   2.4787   2.4858   2.4884   2.4884
     2.4958   2.4958   2.4988   2.4988   2.5183   2.5183   2.5316   2.5316
     2.5339   2.5339   2.5339   2.5339   2.5677   2.5677   2.5935   2.5935
     2.6056   2.6056   2.6097   2.6097   2.6097   2.6097   2.6172   2.6172
     2.6358   2.6485   2.6552   2.6552   2.6725   2.6725   2.6819   2.6819
     2.6819   2.6819   2.6836   2.6913   2.6913   2.7479   2.8116   2.8116
     2.8131   2.8131   2.8198   2.8530   2.8530   2.8530   2.8530   2.8614
     2.8732   3.0203   3.0747   3.0838   3.0838   3.2410   3.2568   3.2568
     3.2872   3.2872   3.2872   3.2872   3.4120   3.4120   3.5916   3.5916
     3.6415   3.6415   3.6415   3.6415   3.6813   3.7941   3.7941   3.8035
     3.8035   3.8659   3.8659   3.9342   3.9342   4.0473   4.0473   4.0473
     4.0473   4.1030   4.4220   4.4226   4.4657   4.4657   4.5350   4.5350
     4.6354   4.6506   4.6506   4.7452   4.7452   4.9084   4.9084   4.9084
     4.9084   4.9825   4.9825   5.0283   5.0283   5.0817   5.0817   5.0972
     5.0972   5.1229   5.1229   5.2182   5.2256   5.2290   5.3664   5.3664
     5.3813   5.3813   5.4185   5.4185   5.4185   5.4185   5.5234   5.5234
     5.5234   5.5234   5.5974   5.5974   5.6135   5.7793   5.7885   5.7975
     5.8447   5.8447   5.9570   5.9570   5.9792   5.9792   5.9792   5.9792
     6.0154   6.0154   6.0154   6.0154   6.0234   6.0234   6.0904   6.0904
     6.0930   6.0930   6.2536   6.2837   6.2837   6.2863   6.3015   6.3016
     6.4800   6.4800   6.6255   6.7030

     occupation numbers 
     1.0000   1.0000   1.0000   1.0000   1.0000   1.0000   1.0000   1.0000
     1.0000   1.0000   1.0000   1.0000   1.0000   1.0000   1.0000   1.0000
     1.0000   1.0000   1.0000   1.0000   1.0000   1.0000   1.0000   1.0000
     1.0000   1.0000   1.0000   1.0000   1.0000   1.0000   1.0000   1.0000
     1.0000   1.0000   1.0000   1.0000   1.0000   1.0000   1.0000   1.0000
     1.0000   1.0000   1.0000   1.0000   1.0000   1.0000   1.0000   1.0000
     1.0000   1.0000   1.0000   1.0000   1.0000   1.0000   1.0000   1.0000
     1.0000   1.0000   1.0000   1.0000   1.0000   1.0000   1.0000   1.0000
     1.0000   1.0000   1.0000   1.0000   1.0000   1.0000   1.0000   1.0000
     1.0000   1.0000   1.0000   1.0000   1.0000   1.0000   1.0000   1.0000
     1.0000   1.0000   1.0000   1.0000   1.0000   1.0000   1.0000   1.0000
     1.0000   1.0000   1.0000   1.0000   1.0000   1.0000   1.0000   1.0000
     1.0000   1.0000   1.0000   1.0000   1.0000   1.0000   1.0000   1.0000
     1.0000   1.0000   1.0000   1.0000   1.0000   1.0000   1.0000   1.0000
     1.0000   1.0000   1.0000   1.0000   1.0000   1.0000   1.0000   1.0000
     1.0000   1.0000   1.0000   1.0000   1.0000   1.0000   1.0000   1.0000
     1.0000   1.0000   1.0000   1.0000   1.0000   1.0000   1.0000   1.0000
     1.0000   1.0000   1.0000   1.0000   1.0000   1.0000   1.0000   1.0000
     1.0000   1.0000   1.0000   1.0000   1.0000   1.0000   1.0000   1.0000
     1.0000   1.0000   1.0000   1.0000   1.0000   1.0000   1.0000   1.0000
     1.0000   1.0000   1.0000   1.0000   1.0000   1.0000   1.0000   1.0000
     1.0000   1.0000   1.0000   1.0000   1.0000   1.0000   1.0000   1.0000
     1.0000   1.0000   1.0000   1.0000   1.0000   1.0000   1.0000   1.0000
     1.0000   1.0000   1.0000   1.0000   1.0000   1.0000   1.0000   1.0000
     1.0000   1.0000   1.0000   1.0000   1.0000   1.0000   1.0000   1.0000
     1.0000   1.0000   1.0000   1.0000   1.0000   1.0000   1.0000   1.0000
     1.0000   1.0000   1.0000   1.0000   1.0000   1.0000   1.0000   1.0000
     1.0000   1.0000   1.0000   1.0000   1.0000   1.0000   1.0000   1.0000
     1.0000   1.0000   1.0000   1.0000   1.0000   1.0000   1.0000   1.0000
     1.0000   1.0000   1.0000   1.0000   1.0000   1.0000   1.0000   1.0000
     1.0000   1.0000   1.0000   1.0000   1.0000   1.0000   1.0000   1.0000
     1.0000   1.0000   1.0000   1.0000   1.0000   1.0000   1.0000   1.0000
     1.0000   1.0000   1.0000   1.0000   1.0000   1.0000   1.0000   1.0000
     1.0000   1.0000   1.0000   1.0000   1.0000   1.0000   1.0000   1.0000
     1.0000   1.0000   1.0000   1.0000   1.0000   1.0000   1.0000   1.0000
     1.0000   1.0000   1.0000   1.0000   1.0000   1.0000   1.0000   1.0000
     1.0000   1.0000   1.0000   1.0000   1.0000   1.0000   1.0000   1.0000
     1.0000   1.0000   1.0000   1.0000   1.0000   1.0000   1.0000   1.0000
     1.0000   1.0000   1.0000   1.0000   1.0000   1.0000   1.0000   1.0000
     1.0000   1.0000   1.0000   1.0000   1.0000   1.0000   1.0000   1.0000
     1.0000   1.0000   1.0000   1.0000

          k = 0.0000 0.5774-0.3097 ( 35404 PWs)   bands (ev):

   -10.8204 -10.8204 -10.6016 -10.6016 -10.5637 -10.5637 -10.5202 -10.5202
   -10.5201 -10.5201 -10.4039 -10.4039 -10.3487 -10.3487 -10.3487 -10.3487
   -10.3402 -10.3402 -10.2996 -10.2996 -10.2392 -10.2392 -10.2082 -10.2082
   -10.1920 -10.1920 -10.1920 -10.1920 -10.1849 -10.1849 -10.1826 -10.1826
   -10.1826 -10.1826 -10.1495 -10.1495   0.9620   0.9620   0.9620   0.9620
     1.0113   1.0113   1.0113   1.0113   1.0209   1.0209   1.0549   1.0549
     1.0856   1.0856   1.1086   1.1086   1.1496   1.1496   1.1780   1.1780
     1.2850   1.2850   1.2878   1.2878   1.2878   1.2878   1.3081   1.3081
     1.3212   1.3212   1.3367   1.3367   1.3762   1.3762   1.4035   1.4035
     1.4548   1.4548   1.4698   1.4698   1.4827   1.4827   1.5188   1.5188
     1.5305   1.5305   1.5328   1.5328   1.5395   1.5395   1.5395   1.5395
     1.5573   1.5573   1.5637   1.5637   1.5787   1.5787   1.5787   1.5787
     1.5905   1.5905   1.5969   1.5969   1.6623   1.6623   1.6781   1.6781
     1.6841   1.6841   1.6841   1.6841   1.6874   1.6874   1.6874   1.6874
     1.6945   1.6945   1.6945   1.6945   1.7730   1.7730   1.8092   1.8092
     1.8094   1.8094   1.8597   1.8597   1.8679   1.8679   1.8679   1.8679
     1.8969   1.8969   1.8969   1.8969   1.9187   1.9187   1.9824   1.9824
     2.0290   2.0290   2.0556   2.0556   2.1585   2.1585   2.1585   2.1585
     2.3643   2.3643   2.3793   2.3793   2.3853   2.3853   2.3853   2.3853
     2.4014   2.4014   2.4172   2.4172   2.4346   2.4346   2.4440   2.4440
     2.4789   2.4789   2.4792   2.4792   2.5083   2.5083   2.5083   2.5083
     2.5393   2.5393   2.5440   2.5440   2.5485   2.5485   2.5519   2.5519
     2.5532   2.5532   2.5702   2.5702   2.5702   2.5702   2.5835   2.5835
     2.5851   2.5851   2.5851   2.5851   2.6255   2.6256   2.6364   2.6364
     2.6425   2.6425   2.6425   2.6425   2.6725   2.6725   2.6804   2.6804
     2.6812   2.6812   2.6812   2.6812   2.7390   2.7390   2.7501   2.7501
     2.7606   2.7606   2.7606   2.7606   2.8696   2.8696   2.9255   2.9255
     3.1154   3.1154   3.2429   3.2429   3.2560   3.2560   3.3424   3.3424
     3.3424   3.3424   3.3685   3.3685   3.3685   3.3685   3.3752   3.3752
     3.4090   3.4090   3.4275   3.4275   3.6971   3.6971   3.8757   3.8757
     3.8757   3.8757   3.9351   3.9351   3.9351   3.9351   4.2091   4.2091
     4.2135   4.2135   4.2827   4.2827   4.5550   4.5550   4.6007   4.6007
     4.6101   4.6101   4.6167   4.6167   4.6229   4.6229   4.6229   4.6229
     4.9299   4.9299   5.0893   5.0893   5.1856   5.1856   5.1856   5.1856
     5.1982   5.1982   5.1982   5.1982   5.2327   5.2327   5.2750   5.2750
     5.5300   5.5300   5.5303   5.5303   5.5303   5.5303   5.5972   5.5972
     5.6314   5.6314   5.6422   5.6422   5.6817   5.6817   5.7224   5.7224
     5.7224   5.7224   5.7236   5.7236   5.7986   5.7986   5.8519   5.8519
     5.9119   5.9119   6.1084   6.1084   6.1084   6.1084   6.1732   6.1732
     6.2254   6.2254   6.2254   6.2254   6.2537   6.2537   6.2738   6.2738
     6.5472   6.5472   6.6435   6.6435

     occupation numbers 
     1.0000   1.0000   1.0000   1.0000   1.0000   1.0000   1.0000   1.0000
     1.0000   1.0000   1.0000   1.0000   1.0000   1.0000   1.0000   1.0000
     1.0000   1.0000   1.0000   1.0000   1.0000   1.0000   1.0000   1.0000
     1.0000   1.0000   1.0000   1.0000   1.0000   1.0000   1.0000   1.0000
     1.0000   1.0000   1.0000   1.0000   1.0000   1.0000   1.0000   1.0000
     1.0000   1.0000   1.0000   1.0000   1.0000   1.0000   1.0000   1.0000
     1.0000   1.0000   1.0000   1.0000   1.0000   1.0000   1.0000   1.0000
     1.0000   1.0000   1.0000   1.0000   1.0000   1.0000   1.0000   1.0000
     1.0000   1.0000   1.0000   1.0000   1.0000   1.0000   1.0000   1.0000
     1.0000   1.0000   1.0000   1.0000   1.0000   1.0000   1.0000   1.0000
     1.0000   1.0000   1.0000   1.0000   1.0000   1.0000   1.0000   1.0000
     1.0000   1.0000   1.0000   1.0000   1.0000   1.0000   1.0000   1.0000
     1.0000   1.0000   1.0000   1.0000   1.0000   1.0000   1.0000   1.0000
     1.0000   1.0000   1.0000   1.0000   1.0000   1.0000   1.0000   1.0000
     1.0000   1.0000   1.0000   1.0000   1.0000   1.0000   1.0000   1.0000
     1.0000   1.0000   1.0000   1.0000   1.0000   1.0000   1.0000   1.0000
     1.0000   1.0000   1.0000   1.0000   1.0000   1.0000   1.0000   1.0000
     1.0000   1.0000   1.0000   1.0000   1.0000   1.0000   1.0000   1.0000
     1.0000   1.0000   1.0000   1.0000   1.0000   1.0000   1.0000   1.0000
     1.0000   1.0000   1.0000   1.0000   1.0000   1.0000   1.0000   1.0000
     1.0000   1.0000   1.0000   1.0000   1.0000   1.0000   1.0000   1.0000
     1.0000   1.0000   1.0000   1.0000   1.0000   1.0000   1.0000   1.0000
     1.0000   1.0000   1.0000   1.0000   1.0000   1.0000   1.0000   1.0000
     1.0000   1.0000   1.0000   1.0000   1.0000   1.0000   1.0000   1.0000
     1.0000   1.0000   1.0000   1.0000   1.0000   1.0000   1.0000   1.0000
     1.0000   1.0000   1.0000   1.0000   1.0000   1.0000   1.0000   1.0000
     1.0000   1.0000   1.0000   1.0000   1.0000   1.0000   1.0000   1.0000
     1.0000   1.0000   1.0000   1.0000   1.0000   1.0000   1.0000   1.0000
     1.0000   1.0000   1.0000   1.0000   1.0000   1.0000   1.0000   1.0000
     1.0000   1.0000   1.0000   1.0000   1.0000   1.0000   1.0000   1.0000
     1.0000   1.0000   1.0000   1.0000   1.0000   1.0000   1.0000   1.0000
     1.0000   1.0000   1.0000   1.0000   1.0000   1.0000   1.0000   1.0000
     1.0000   1.0000   1.0000   1.0000   1.0000   1.0000   1.0000   1.0000
     1.0000   1.0000   1.0000   1.0000   1.0000   1.0000   1.0000   1.0000
     1.0000   1.0000   1.0000   1.0000   1.0000   1.0000   1.0000   1.0000
     1.0000   1.0000   1.0000   1.0000   1.0000   1.0000   1.0000   1.0000
     1.0000   1.0000   1.0000   1.0000   1.0000   1.0000   1.0000   1.0000
     1.0000   1.0000   1.0000   1.0000   1.0000   1.0000   1.0000   1.0000
     1.0000   1.0000   1.0000   1.0000   1.0000   1.0000   1.0000   1.0000
     1.0000   1.0000   1.0000   1.0000   1.0000   1.0000   1.0000   1.0000
     1.0000   1.0000   1.0000   1.0000

          k =-0.5000-0.2887 0.0000 ( 35424 PWs)   bands (ev):

   -10.8594 -10.8594 -10.7128 -10.7128 -10.7128 -10.7128 -10.4121 -10.4121
   -10.4121 -10.4121 -10.3567 -10.3567 -10.3493 -10.3493 -10.2962 -10.2962
   -10.2962 -10.2962 -10.2915 -10.2915 -10.2915 -10.2915 -10.2582 -10.2582
   -10.1869 -10.1869 -10.1869 -10.1868 -10.1859 -10.1859 -10.1859 -10.1859
   -10.1408 -10.1407 -10.1368 -10.1368   0.9825   0.9825   0.9825   0.9825
     1.0471   1.0471   1.0471   1.0471   1.0820   1.0820   1.0820   1.0820
     1.1038   1.1038   1.1038   1.1038   1.1141   1.1141   1.1443   1.1443
     1.1443   1.1443   1.1787   1.1787   1.1968   1.1968   1.1968   1.1968
     1.2098   1.2098   1.3230   1.3230   1.3939   1.3939   1.4175   1.4175
     1.4331   1.4331   1.4331   1.4331   1.4425   1.4425   1.4425   1.4425
     1.4529   1.4529   1.4978   1.4978   1.5220   1.5220   1.5220   1.5220
     1.5437   1.5437   1.5437   1.5437   1.5609   1.5609   1.5839   1.5839
     1.5839   1.5839   1.5839   1.5839   1.6182   1.6182   1.6641   1.6641
     1.6641   1.6641   1.6647   1.6647   1.7338   1.7338   1.7338   1.7338
     1.7926   1.7926   1.8687   1.8687   1.8687   1.8687   1.8803   1.8803
     1.8803   1.8803   1.8904   1.8904   1.8904   1.8904   1.9133   1.9133
     1.9133   1.9133   1.9178   1.9178   1.9178   1.9178   1.9413   1.9413
     1.9538   1.9538   2.0460   2.0460   2.0753   2.0753   2.1149   2.1149
     2.3719   2.3719   2.4055   2.4055   2.4269   2.4269   2.4642   2.4642
     2.4695   2.4695   2.4695   2.4695   2.4731   2.4731   2.4884   2.4884
     2.4884   2.4884   2.4958   2.4958   2.4958   2.4958   2.5677   2.5677
     2.5677   2.5677   2.5909   2.5909   2.5935   2.5935   2.5935   2.5935
     2.6003   2.6003   2.6003   2.6003   2.6172   2.6172   2.6172   2.6172
     2.6268   2.6268   2.6268   2.6268   2.6330   2.6330   2.6330   2.6330
     2.6358   2.6358   2.6705   2.6705   2.6836   2.6836   2.6913   2.6913
     2.6913   2.6913   2.7318   2.7318   2.7318   2.7318   2.7418   2.7418
     2.7479   2.7479   2.8116   2.8116   2.8116   2.8116   2.8614   2.8614
     2.8732   2.8732   3.0747   3.0747   3.1456   3.1456   3.1456   3.1456
     3.2047   3.2047   3.2568   3.2568   3.2568   3.2568   3.2754   3.2754
     3.2754   3.2754   3.4268   3.4268   3.5916   3.5916   3.5916   3.5916
     3.6813   3.6813   3.9342   3.9342   3.9342   3.9342   4.1030   4.1030
     4.1406   4.1406   4.4220   4.4220   4.5350   4.5350   4.5350   4.5350
     4.7139   4.7139   5.0141   5.0141   5.0141   5.0141   5.0817   5.0817
     5.0817   5.0817   5.0927   5.0927   5.0927   5.0927   5.1229   5.1229
     5.1229   5.1229   5.2256   5.2256   5.3813   5.3813   5.3813   5.3813
     5.5974   5.5974   5.5974   5.5974   5.6135   5.6135   5.6402   5.6402
     5.7658   5.7659   5.7659   5.7659   5.7793   5.7793   5.7885   5.7885
     5.7926   5.7926   5.7926   5.7926   5.7975   5.7975   5.8447   5.8447
     5.8447   5.8447   6.0234   6.0234   6.0234   6.0234   6.0830   6.0830
     6.2837   6.2837   6.2837   6.2837   6.4800   6.4800   6.4800   6.4800
     6.6255   6.6255   6.7030   6.7030

     occupation numbers 
     1.0000   1.0000   1.0000   1.0000   1.0000   1.0000   1.0000   1.0000
     1.0000   1.0000   1.0000   1.0000   1.0000   1.0000   1.0000   1.0000
     1.0000   1.0000   1.0000   1.0000   1.0000   1.0000   1.0000   1.0000
     1.0000   1.0000   1.0000   1.0000   1.0000   1.0000   1.0000   1.0000
     1.0000   1.0000   1.0000   1.0000   1.0000   1.0000   1.0000   1.0000
     1.0000   1.0000   1.0000   1.0000   1.0000   1.0000   1.0000   1.0000
     1.0000   1.0000   1.0000   1.0000   1.0000   1.0000   1.0000   1.0000
     1.0000   1.0000   1.0000   1.0000   1.0000   1.0000   1.0000   1.0000
     1.0000   1.0000   1.0000   1.0000   1.0000   1.0000   1.0000   1.0000
     1.0000   1.0000   1.0000   1.0000   1.0000   1.0000   1.0000   1.0000
     1.0000   1.0000   1.0000   1.0000   1.0000   1.0000   1.0000   1.0000
     1.0000   1.0000   1.0000   1.0000   1.0000   1.0000   1.0000   1.0000
     1.0000   1.0000   1.0000   1.0000   1.0000   1.0000   1.0000   1.0000
     1.0000   1.0000   1.0000   1.0000   1.0000   1.0000   1.0000   1.0000
     1.0000   1.0000   1.0000   1.0000   1.0000   1.0000   1.0000   1.0000
     1.0000   1.0000   1.0000   1.0000   1.0000   1.0000   1.0000   1.0000
     1.0000   1.0000   1.0000   1.0000   1.0000   1.0000   1.0000   1.0000
     1.0000   1.0000   1.0000   1.0000   1.0000   1.0000   1.0000   1.0000
     1.0000   1.0000   1.0000   1.0000   1.0000   1.0000   1.0000   1.0000
     1.0000   1.0000   1.0000   1.0000   1.0000   1.0000   1.0000   1.0000
     1.0000   1.0000   1.0000   1.0000   1.0000   1.0000   1.0000   1.0000
     1.0000   1.0000   1.0000   1.0000   1.0000   1.0000   1.0000   1.0000
     1.0000   1.0000   1.0000   1.0000   1.0000   1.0000   1.0000   1.0000
     1.0000   1.0000   1.0000   1.0000   1.0000   1.0000   1.0000   1.0000
     1.0000   1.0000   1.0000   1.0000   1.0000   1.0000   1.0000   1.0000
     1.0000   1.0000   1.0000   1.0000   1.0000   1.0000   1.0000   1.0000
     1.0000   1.0000   1.0000   1.0000   1.0000   1.0000   1.0000   1.0000
     1.0000   1.0000   1.0000   1.0000   1.0000   1.0000   1.0000   1.0000
     1.0000   1.0000   1.0000   1.0000   1.0000   1.0000   1.0000   1.0000
     1.0000   1.0000   1.0000   1.0000   1.0000   1.0000   1.0000   1.0000
     1.0000   1.0000   1.0000   1.0000   1.0000   1.0000   1.0000   1.0000
     1.0000   1.0000   1.0000   1.0000   1.0000   1.0000   1.0000   1.0000
     1.0000   1.0000   1.0000   1.0000   1.0000   1.0000   1.0000   1.0000
     1.0000   1.0000   1.0000   1.0000   1.0000   1.0000   1.0000   1.0000
     1.0000   1.0000   1.0000   1.0000   1.0000   1.0000   1.0000   1.0000
     1.0000   1.0000   1.0000   1.0000   1.0000   1.0000   1.0000   1.0000
     1.0000   1.0000   1.0000   1.0000   1.0000   1.0000   1.0000   1.0000
     1.0000   1.0000   1.0000   1.0000   1.0000   1.0000   1.0000   1.0000
     1.0000   1.0000   1.0000   1.0000   1.0000   1.0000   1.0000   1.0000
     1.0000   1.0000   1.0000   1.0000   1.0000   1.0000   1.0000   1.0000
     1.0000   1.0000   1.0000   1.0000

          k =-0.5000-0.2887-0.3097 ( 35428 PWs)   bands (ev):

   -10.8204 -10.8204 -10.8204 -10.8204 -10.5637 -10.5637 -10.5637 -10.5637
   -10.3402 -10.3402 -10.3402 -10.3402 -10.3335 -10.3335 -10.3335 -10.3335
   -10.2996 -10.2996 -10.2996 -10.2996 -10.2392 -10.2392 -10.2392 -10.2392
   -10.2372 -10.2372 -10.2372 -10.2372 -10.1527 -10.1527 -10.1527 -10.1527
   -10.1495 -10.1495 -10.1495 -10.1495   0.9527   0.9527   0.9527   0.9527
     1.0549   1.0549   1.0549   1.0549   1.0697   1.0697   1.0697   1.0697
     1.0856   1.0856   1.0856   1.0856   1.1496   1.1496   1.1496   1.1496
     1.1780   1.1780   1.1780   1.1780   1.2255   1.2255   1.2255   1.2255
     1.3367   1.3367   1.3367   1.3367   1.3762   1.3762   1.3762   1.3762
     1.4035   1.4035   1.4035   1.4035   1.4548   1.4548   1.4548   1.4548
     1.4698   1.4698   1.4698   1.4698   1.4827   1.4827   1.4827   1.4827
     1.5637   1.5637   1.5637   1.5637   1.5871   1.5871   1.5871   1.5871
     1.5905   1.5905   1.5905   1.5905   1.5969   1.5969   1.5969   1.5969
     1.6623   1.6623   1.6623   1.6623   1.7730   1.7730   1.7730   1.7730
     1.7821   1.7821   1.7821   1.7821   1.8586   1.8586   1.8586   1.8586
     1.8597   1.8597   1.8597   1.8597   1.9133   1.9133   1.9133   1.9133
     1.9195   1.9195   1.9195   1.9195   1.9824   1.9824   1.9824   1.9824
     2.0290   2.0290   2.0290   2.0290   2.0308   2.0308   2.0308   2.0308
     2.4014   2.4014   2.4014   2.4014   2.4172   2.4172   2.4172   2.4172
     2.4440   2.4440   2.4440   2.4440   2.5266   2.5266   2.5266   2.5266
     2.5393   2.5393   2.5393   2.5393   2.5440   2.5440   2.5440   2.5440
     2.5485   2.5485   2.5485   2.5485   2.5532   2.5532   2.5532   2.5532
     2.5930   2.5930   2.5930   2.5930   2.6133   2.6133   2.6133   2.6133
     2.6255   2.6255   2.6256   2.6256   2.6574   2.6574   2.6574   2.6574
     2.6725   2.6725   2.6725   2.6725   2.6804   2.6804   2.6804   2.6804
     2.6978   2.6978   2.6978   2.6978   2.7390   2.7390   2.7390   2.7390
     2.7411   2.7411   2.7411   2.7411   2.8696   2.8696   2.8696   2.8696
     3.1154   3.1154   3.1154   3.1154   3.1660   3.1660   3.1660   3.1660
     3.1878   3.1878   3.1878   3.1878   3.2560   3.2560   3.2560   3.2560
     3.3761   3.3761   3.3761   3.3761   3.4275   3.4275   3.4275   3.4275
     3.6971   3.6971   3.6971   3.6971   4.2091   4.2091   4.2091   4.2091
     4.4237   4.4237   4.4237   4.4237   4.6007   4.6007   4.6007   4.6007
     4.6167   4.6167   4.6167   4.6167   4.8200   4.8200   4.8200   4.8200
     4.9299   4.9299   4.9299   4.9299   5.2750   5.2750   5.2750   5.2750
     5.4385   5.4385   5.4385   5.4385   5.5539   5.5539   5.5539   5.5539
     5.5972   5.5972   5.5972   5.5972   5.6314   5.6314   5.6314   5.6314
     5.6422   5.6422   5.6422   5.6422   5.7267   5.7267   5.7267   5.7267
     5.7986   5.7986   5.7986   5.7986   5.8519   5.8519   5.8519   5.8519
     5.9119   5.9119   5.9119   5.9119   5.9986   5.9986   5.9986   5.9986
     6.2537   6.2537   6.2537   6.2537   6.5472   6.5472   6.5472   6.5472
     6.6435   6.6435   6.6435   6.6435

     occupation numbers 
     1.0000   1.0000   1.0000   1.0000   1.0000   1.0000   1.0000   1.0000
     1.0000   1.0000   1.0000   1.0000   1.0000   1.0000   1.0000   1.0000
     1.0000   1.0000   1.0000   1.0000   1.0000   1.0000   1.0000   1.0000
     1.0000   1.0000   1.0000   1.0000   1.0000   1.0000   1.0000   1.0000
     1.0000   1.0000   1.0000   1.0000   1.0000   1.0000   1.0000   1.0000
     1.0000   1.0000   1.0000   1.0000   1.0000   1.0000   1.0000   1.0000
     1.0000   1.0000   1.0000   1.0000   1.0000   1.0000   1.0000   1.0000
     1.0000   1.0000   1.0000   1.0000   1.0000   1.0000   1.0000   1.0000
     1.0000   1.0000   1.0000   1.0000   1.0000   1.0000   1.0000   1.0000
     1.0000   1.0000   1.0000   1.0000   1.0000   1.0000   1.0000   1.0000
     1.0000   1.0000   1.0000   1.0000   1.0000   1.0000   1.0000   1.0000
     1.0000   1.0000   1.0000   1.0000   1.0000   1.0000   1.0000   1.0000
     1.0000   1.0000   1.0000   1.0000   1.0000   1.0000   1.0000   1.0000
     1.0000   1.0000   1.0000   1.0000   1.0000   1.0000   1.0000   1.0000
     1.0000   1.0000   1.0000   1.0000   1.0000   1.0000   1.0000   1.0000
     1.0000   1.0000   1.0000   1.0000   1.0000   1.0000   1.0000   1.0000
     1.0000   1.0000   1.0000   1.0000   1.0000   1.0000   1.0000   1.0000
     1.0000   1.0000   1.0000   1.0000   1.0000   1.0000   1.0000   1.0000
     1.0000   1.0000   1.0000   1.0000   1.0000   1.0000   1.0000   1.0000
     1.0000   1.0000   1.0000   1.0000   1.0000   1.0000   1.0000   1.0000
     1.0000   1.0000   1.0000   1.0000   1.0000   1.0000   1.0000   1.0000
     1.0000   1.0000   1.0000   1.0000   1.0000   1.0000   1.0000   1.0000
     1.0000   1.0000   1.0000   1.0000   1.0000   1.0000   1.0000   1.0000
     1.0000   1.0000   1.0000   1.0000   1.0000   1.0000   1.0000   1.0000
     1.0000   1.0000   1.0000   1.0000   1.0000   1.0000   1.0000   1.0000
     1.0000   1.0000   1.0000   1.0000   1.0000   1.0000   1.0000   1.0000
     1.0000   1.0000   1.0000   1.0000   1.0000   1.0000   1.0000   1.0000
     1.0000   1.0000   1.0000   1.0000   1.0000   1.0000   1.0000   1.0000
     1.0000   1.0000   1.0000   1.0000   1.0000   1.0000   1.0000   1.0000
     1.0000   1.0000   1.0000   1.0000   1.0000   1.0000   1.0000   1.0000
     1.0000   1.0000   1.0000   1.0000   1.0000   1.0000   1.0000   1.0000
     1.0000   1.0000   1.0000   1.0000   1.0000   1.0000   1.0000   1.0000
     1.0000   1.0000   1.0000   1.0000   1.0000   1.0000   1.0000   1.0000
     1.0000   1.0000   1.0000   1.0000   1.0000   1.0000   1.0000   1.0000
     1.0000   1.0000   1.0000   1.0000   1.0000   1.0000   1.0000   1.0000
     1.0000   1.0000   1.0000   1.0000   1.0000   1.0000   1.0000   1.0000
     1.0000   1.0000   1.0000   1.0000   1.0000   1.0000   1.0000   1.0000
     1.0000   1.0000   1.0000   1.0000   1.0000   1.0000   1.0000   1.0000
     1.0000   1.0000   1.0000   1.0000   1.0000   1.0000   1.0000   1.0000
     1.0000   1.0000   1.0000   1.0000   1.0000   1.0000   1.0000   1.0000
     1.0000   1.0000   1.0000   1.0000

          k =-0.5000 0.2887 0.0000 ( 35468 PWs)   bands (ev):

   -10.8594 -10.7128 -10.7128 -10.6323 -10.6322 -10.5179 -10.5179 -10.5179
   -10.5179 -10.4121 -10.4121 -10.3568 -10.3567 -10.3567 -10.2962 -10.2962
   -10.2962 -10.2962 -10.2962 -10.2962 -10.2905 -10.2905 -10.2905 -10.2905
   -10.2582 -10.1859 -10.1859 -10.1859 -10.1859 -10.1859 -10.1859 -10.1782
   -10.1782 -10.1368 -10.1368 -10.1368   1.0368   1.0368   1.0368   1.0368
     1.0820   1.0820   1.1038   1.1038   1.1038   1.1038   1.1038   1.1038
     1.1268   1.1268   1.1268   1.1268   1.1443   1.1443   1.1448   1.1448
     1.1787   1.1968   1.1968   1.1968   1.1968   1.1968   1.1968   1.2098
     1.2098   1.2098   1.3347   1.3347   1.3939   1.4175   1.4331   1.4331
     1.4425   1.4425   1.4529   1.4529   1.4529   1.4978   1.5169   1.5169
     1.5169   1.5169   1.5220   1.5220   1.5272   1.5272   1.5381   1.5381
     1.5381   1.5381   1.5437   1.5437   1.5839   1.5839   1.5839   1.5839
     1.5839   1.5839   1.5839   1.5839   1.5839   1.5845   1.5845   1.6182
     1.6647   1.6853   1.6853   1.6853   1.6853   1.7338   1.7338   1.7338
     1.7338   1.7338   1.7338   1.7417   1.7417   1.7417   1.7417   1.7926
     1.7926   1.7926   1.8373   1.8373   1.8904   1.8904   1.8904   1.8904
     1.8904   1.8904   1.9133   1.9133   1.9133   1.9133   1.9133   1.9133
     1.9688   1.9688   2.0460   2.0460   2.0460   2.1149   2.1149   2.1149
     2.3226   2.3226   2.3719   2.4055   2.4055   2.4055   2.4269   2.4473
     2.4473   2.4609   2.4609   2.4609   2.4609   2.4695   2.4695   2.4731
     2.4731   2.4731   2.4884   2.4884   2.4958   2.4958   2.4958   2.4958
[...]
     atom   13 type  1   force =    -0.00000003    0.00000000    0.00046408
     atom   14 type  1   force =    -0.00000045    0.00000018    0.00046409
     atom   15 type  2   force =     0.00000000   -0.00000003   -0.00006504
     atom   16 type  2   force =    -0.00000001    0.00000001   -0.00006503
     atom   17 type  1   force =     0.00000022   -0.00000030    0.00046419
     atom   18 type  1   force =     0.00000037    0.00000019    0.00046379
     atom   19 type  2   force =    -0.00000000   -0.00000002   -0.00006502
     atom   20 type  2   force =     0.00000001    0.00000001   -0.00006499
     atom   21 type  1   force =    -0.00000008   -0.00000009    0.00046369
     atom   22 type  1   force =     0.00000003   -0.00000008    0.00046381
     atom   23 type  2   force =    -0.00000000    0.00000001   -0.00006503
     atom   24 type  2   force =    -0.00000000    0.00000000   -0.00006506
     atom   25 type  1   force =     0.00000002    0.00000007    0.00046365
     atom   26 type  1   force =     0.00000001    0.00000002    0.00046396
     atom   27 type  2   force =    -0.00000002   -0.00000001   -0.00006504
     atom   28 type  2   force =    -0.00000001   -0.00000000   -0.00006506
     atom   29 type  1   force =    -0.00000012    0.00000002    0.00046393
     atom   30 type  1   force =    -0.00000030   -0.00000006    0.00046423
     atom   31 type  2   force =     0.00000000    0.00000001   -0.00006501
     atom   32 type  2   force =    -0.00000002    0.00000002   -0.00006500
     atom   33 type  1   force =     0.00000008    0.00000033    0.00046400
     atom   34 type  1   force =    -0.00000009    0.00000008    0.00046413
     atom   35 type  2   force =     0.00000000    0.00000004   -0.00006504
     atom   36 type  2   force =     0.00000000   -0.00000002   -0.00006503
     atom   37 type  1   force =     0.00000009    0.00000001    0.00046378
     atom   38 type  1   force =     0.00000043    0.00000024    0.00046405
     atom   39 type  2   force =    -0.00000001    0.00000000   -0.00006503
     atom   40 type  2   force =     0.00000001   -0.00000000   -0.00006504
     atom   41 type  1   force =     0.00000009   -0.00000002    0.00046403
     atom   42 type  1   force =    -0.00000023   -0.00000025    0.00046415
     atom   43 type  2   force =    -0.00000001   -0.00000002   -0.00006505
     atom   44 type  2   force =     0.00000000   -0.00000003   -0.00006499
     atom   45 type  1   force =    -0.00000025   -0.00000041    0.00046423
     atom   46 type  1   force =    -0.00000006   -0.00000017    0.00046377
     atom   47 type  2   force =     0.00000002   -0.00000003   -0.00006501
     atom   48 type  2   force =     0.00000000    0.00000002   -0.00006505
     atom   49 type  1   force =    -0.00000006   -0.00000006    0.00046396
     atom   50 type  1   force =    -0.00000022    0.00000018    0.00046407
     atom   51 type  2   force =     0.00000003    0.00000001   -0.00006503
     atom   52 type  2   force =     0.00000000    0.00000000   -0.00006506
     atom   53 type  1   force =     0.00000020   -0.00000002    0.00046396
     atom   54 type  1   force =     0.00000026   -0.00000016    0.00046417
     atom   55 type  2   force =     0.00000001    0.00000002   -0.00006504
     atom   56 type  2   force =     0.00000001   -0.00000001   -0.00006498
     atom   57 type  1   force =    -0.00000018    0.00000050    0.00046386
     atom   58 type  1   force =     0.00000010    0.00000013    0.00046421
     atom   59 type  2   force =    -0.00000002   -0.00000001   -0.00006502
     atom   60 type  2   force =    -0.00000002    0.00000001   -0.00006504
     atom   61 type  1   force =    -0.00000007   -0.00000002    0.00046361
     atom   62 type  1   force =     0.00000003   -0.00000029    0.00046409
     atom   63 type  2   force =     0.00000001    0.00000002   -0.00006505
     atom   64 type  2   force =    -0.00000000    0.00000000   -0.00006506
     atom   65 type  1   force =    -0.00000031   -0.00000004    0.00046419
     atom   66 type  1   force =    -0.00000012    0.00000025    0.00046426
     atom   67 type  2   force =     0.00000001   -0.00000001   -0.00006502
     atom   68 type  2   force =    -0.00000001    0.00000001   -0.00006498
     atom   69 type  1   force =     0.00000033   -0.00000043    0.00046422
     atom   70 type  1   force =     0.00000003   -0.00000005    0.00046347
     atom   71 type  2   force =    -0.00000002   -0.00000001   -0.00006502
     atom   72 type  2   force =     0.00000000   -0.00000003   -0.00006504
     The Hubbard contrib.    to forces
     atom    1 type  1   force =     0.00000000    0.00000000    0.00000000
     atom    2 type  1   force =     0.00000000    0.00000000    0.00000000
     atom    3 type  2   force =     0.00000000    0.00000000    0.00000000
     atom    4 type  2   force =     0.00000000    0.00000000    0.00000000
     atom    5 type  1   force =     0.00000000    0.00000000    0.00000000
     atom    6 type  1   force =     0.00000000    0.00000000    0.00000000
     atom    7 type  2   force =     0.00000000    0.00000000    0.00000000
     atom    8 type  2   force =     0.00000000    0.00000000    0.00000000
     atom    9 type  1   force =     0.00000000    0.00000000    0.00000000
     atom   10 type  1   force =     0.00000000    0.00000000    0.00000000
     atom   11 type  2   force =     0.00000000    0.00000000    0.00000000
     atom   12 type  2   force =     0.00000000    0.00000000    0.00000000
     atom   13 type  1   force =     0.00000000    0.00000000    0.00000000
     atom   14 type  1   force =     0.00000000    0.00000000    0.00000000
     atom   15 type  2   force =     0.00000000    0.00000000    0.00000000
     atom   16 type  2   force =     0.00000000    0.00000000    0.00000000
     atom   17 type  1   force =     0.00000000    0.00000000    0.00000000
     atom   18 type  1   force =     0.00000000    0.00000000    0.00000000
     atom   19 type  2   force =     0.00000000    0.00000000    0.00000000
     atom   20 type  2   force =     0.00000000    0.00000000    0.00000000
     atom   21 type  1   force =     0.00000000    0.00000000    0.00000000
     atom   22 type  1   force =     0.00000000    0.00000000    0.00000000
     atom   23 type  2   force =     0.00000000    0.00000000    0.00000000
     atom   24 type  2   force =     0.00000000    0.00000000    0.00000000
     atom   25 type  1   force =     0.00000000    0.00000000    0.00000000
     atom   26 type  1   force =     0.00000000    0.00000000    0.00000000
     atom   27 type  2   force =     0.00000000    0.00000000    0.00000000
     atom   28 type  2   force =     0.00000000    0.00000000    0.00000000
     atom   29 type  1   force =     0.00000000    0.00000000    0.00000000
     atom   30 type  1   force =     0.00000000    0.00000000    0.00000000
     atom   31 type  2   force =     0.00000000    0.00000000    0.00000000
     atom   32 type  2   force =     0.00000000    0.00000000    0.00000000
     atom   33 type  1   force =     0.00000000    0.00000000    0.00000000
     atom   34 type  1   force =     0.00000000    0.00000000    0.00000000
     atom   35 type  2   force =     0.00000000    0.00000000    0.00000000
     atom   36 type  2   force =     0.00000000    0.00000000    0.00000000
     atom   37 type  1   force =     0.00000000    0.00000000    0.00000000
     atom   38 type  1   force =     0.00000000    0.00000000    0.00000000
     atom   39 type  2   force =     0.00000000    0.00000000    0.00000000
     atom   40 type  2   force =     0.00000000    0.00000000    0.00000000
     atom   41 type  1   force =     0.00000000    0.00000000    0.00000000
     atom   42 type  1   force =     0.00000000    0.00000000    0.00000000
     atom   43 type  2   force =     0.00000000    0.00000000    0.00000000
     atom   44 type  2   force =     0.00000000    0.00000000    0.00000000
     atom   45 type  1   force =     0.00000000    0.00000000    0.00000000
     atom   46 type  1   force =     0.00000000    0.00000000    0.00000000
     atom   47 type  2   force =     0.00000000    0.00000000    0.00000000
     atom   48 type  2   force =     0.00000000    0.00000000    0.00000000
     atom   49 type  1   force =     0.00000000    0.00000000    0.00000000
     atom   50 type  1   force =     0.00000000    0.00000000    0.00000000
     atom   51 type  2   force =     0.00000000    0.00000000    0.00000000
     atom   52 type  2   force =     0.00000000    0.00000000    0.00000000
     atom   53 type  1   force =     0.00000000    0.00000000    0.00000000
     atom   54 type  1   force =     0.00000000    0.00000000    0.00000000
     atom   55 type  2   force =     0.00000000    0.00000000    0.00000000
     atom   56 type  2   force =     0.00000000    0.00000000    0.00000000
     atom   57 type  1   force =     0.00000000    0.00000000    0.00000000
     atom   58 type  1   force =     0.00000000    0.00000000    0.00000000
     atom   59 type  2   force =     0.00000000    0.00000000    0.00000000
     atom   60 type  2   force =     0.00000000    0.00000000    0.00000000
     atom   61 type  1   force =     0.00000000    0.00000000    0.00000000
     atom   62 type  1   force =     0.00000000    0.00000000    0.00000000
     atom   63 type  2   force =     0.00000000    0.00000000    0.00000000
     atom   64 type  2   force =     0.00000000    0.00000000    0.00000000
     atom   65 type  1   force =     0.00000000    0.00000000    0.00000000
     atom   66 type  1   force =     0.00000000    0.00000000    0.00000000
     atom   67 type  2   force =     0.00000000    0.00000000    0.00000000
     atom   68 type  2   force =     0.00000000    0.00000000    0.00000000
     atom   69 type  1   force =     0.00000000    0.00000000    0.00000000
     atom   70 type  1   force =     0.00000000    0.00000000    0.00000000
     atom   71 type  2   force =     0.00000000    0.00000000    0.00000000
     atom   72 type  2   force =     0.00000000    0.00000000    0.00000000
     The SCF correction term to forces
     atom    1 type  1   force =    -0.00000412    0.00000114   -0.00000273
     atom    2 type  1   force =     0.00000937   -0.00001404    0.00000822
     atom    3 type  2   force =    -0.00000217    0.00000176    0.00000134
     atom    4 type  2   force =     0.00000092   -0.00000226   -0.00000040
     atom    5 type  1   force =    -0.00000371    0.00002028    0.00001224
     atom    6 type  1   force =     0.00000439    0.00000299    0.00000460
     atom    7 type  2   force =    -0.00000022    0.00000296   -0.00000009
     atom    8 type  2   force =     0.00000215    0.00000139    0.00000653
     atom    9 type  1   force =     0.00000980    0.00000688   -0.00000376
     atom   10 type  1   force =     0.00000179    0.00000864   -0.00000470
     atom   11 type  2   force =     0.00000242    0.00000083   -0.00000055
     atom   12 type  2   force =     0.00000072    0.00000312   -0.00000560
     atom   13 type  1   force =    -0.00000031   -0.00000387    0.00000461
     atom   14 type  1   force =    -0.00001840    0.00000823    0.00000446
     atom   15 type  2   force =     0.00000109   -0.00000250    0.00000217
     atom   16 type  2   force =    -0.00000290    0.00000068   -0.00000297
     atom   17 type  1   force =     0.00001162   -0.00001516    0.00001770
     atom   18 type  1   force =     0.00001276    0.00000606   -0.00000846
     atom   19 type  2   force =     0.00000104   -0.00000263    0.00000036
     atom   20 type  2   force =     0.00000097    0.00000021    0.00000673
     atom   21 type  1   force =    -0.00000364   -0.00000269   -0.00002120
     atom   22 type  1   force =     0.00000191   -0.00000672   -0.00000230
     atom   23 type  2   force =     0.00000031    0.00000066   -0.00000169
     atom   24 type  2   force =     0.00000155   -0.00000177   -0.00000393
     atom   25 type  1   force =     0.00000096    0.00000129   -0.00002249
     atom   26 type  1   force =     0.00000453    0.00000521   -0.00000442
     atom   27 type  2   force =    -0.00000180   -0.00000221    0.00000069
     atom   28 type  2   force =    -0.00000000    0.00000101   -0.00000658
     atom   29 type  1   force =    -0.00000316    0.00000139    0.00001351
     atom   30 type  1   force =    -0.00001994   -0.00000147    0.00001070
     atom   31 type  2   force =    -0.00000063    0.00000147    0.00000234
     atom   32 type  2   force =    -0.00000465    0.00000191    0.00000810
     atom   33 type  1   force =     0.00000226    0.00001956   -0.00000343
     atom   34 type  1   force =    -0.00000406    0.00000499    0.00000539
     atom   35 type  2   force =     0.00000070    0.00000533   -0.00000166
     atom   36 type  2   force =     0.00000182    0.00000075   -0.00000142
     atom   37 type  1   force =     0.00000142    0.00000017   -0.00001816
     atom   38 type  1   force =     0.00001722    0.00000724    0.00000466
     atom   39 type  2   force =    -0.00000423   -0.00000109    0.00000220
     atom   40 type  2   force =     0.00000170   -0.00000035   -0.00000420
     atom   41 type  1   force =    -0.00000121   -0.00000453    0.00001481
     atom   42 type  1   force =    -0.00001065   -0.00001653    0.00000672
     atom   43 type  2   force =    -0.00000115   -0.00000260   -0.00000103
     atom   44 type  2   force =    -0.00000039   -0.00000504    0.00000727
     atom   45 type  1   force =    -0.00000387   -0.00002148    0.00000557
     atom   46 type  1   force =    -0.00000395   -0.00000941   -0.00000567
     atom   47 type  2   force =     0.00000350   -0.00000300    0.00000024
     atom   48 type  2   force =    -0.00000134   -0.00000012   -0.00000431
     atom   49 type  1   force =     0.00000351   -0.00000096   -0.00000686
     atom   50 type  1   force =    -0.00001412    0.00000939    0.00000001
     atom   51 type  2   force =     0.00000385    0.00000124    0.00000133
     atom   52 type  2   force =    -0.00000051    0.00000120   -0.00000772
     atom   53 type  1   force =     0.00000760   -0.00000001    0.00001059
     atom   54 type  1   force =     0.00001588   -0.00000644    0.00000738
     atom   55 type  2   force =     0.00000109    0.00000245   -0.00000134
     atom   56 type  2   force =     0.00000230   -0.00000007    0.00000925
     atom   57 type  1   force =    -0.00001234    0.00002318   -0.00000830
     atom   58 type  1   force =     0.00000097    0.00000902    0.00001031
     atom   59 type  2   force =    -0.00000296   -0.00000053    0.00000058
     atom   60 type  2   force =    -0.00000239    0.00000241   -0.00000147
     atom   61 type  1   force =     0.00000007    0.00000272   -0.00002406
     atom   62 type  1   force =     0.00000035   -0.00001709    0.00000698
     atom   63 type  2   force =     0.00000337    0.00000249   -0.00000017
     atom   64 type  2   force =     0.00000090   -0.00000101   -0.00000687
     atom   65 type  1   force =    -0.00001003   -0.00000172    0.00002397
     atom   66 type  1   force =    -0.00000282    0.00001432    0.00001155
     atom   67 type  2   force =     0.00000014   -0.00000180    0.00000076
     atom   68 type  2   force =    -0.00000065    0.00000121    0.00000835
     atom   69 type  1   force =     0.00000785   -0.00002490    0.00000233
     atom   70 type  1   force =     0.00000208   -0.00000734   -0.00001883
     atom   71 type  2   force =    -0.00000358   -0.00000333    0.00000066
     atom   72 type  2   force =    -0.00000048   -0.00000492   -0.00000272

     Total force =     0.000526     Total SCF correction =     0.000113
     SCF correction compared to forces is large: reduce conv_thr to get better values

     init_run     :     36.37s CPU     29.03s WALL (       1 calls)
     electrons    :   3866.05s CPU   2668.41s WALL (       1 calls)
     forces       :     20.70s CPU     15.13s WALL (       1 calls)

     Called by init_run:
     wfcinit      :     24.43s CPU     16.96s WALL (       1 calls)
     wfcinit:atom :      0.09s CPU      0.15s WALL (       2 calls)
     wfcinit:wfcr :     23.76s CPU     16.14s WALL (       2 calls)
     potinit      :      4.85s CPU      4.92s WALL (       1 calls)
     hinit0       :      6.28s CPU      6.32s WALL (       1 calls)

     Called by electrons:
     c_bands      :   3612.26s CPU   2459.16s WALL (      36 calls)
     sum_band     :    223.81s CPU    179.65s WALL (      36 calls)
     v_of_rho     :     12.33s CPU     13.04s WALL (      37 calls)
     v_h          :      0.84s CPU      0.93s WALL (      37 calls)
     v_xc         :     11.78s CPU     12.41s WALL (      38 calls)
     newd         :     14.87s CPU     13.82s WALL (      37 calls)
     mix_rho      :      2.10s CPU      2.03s WALL (      36 calls)

     Called by c_bands:
     init_us_2    :      7.37s CPU      6.71s WALL (     148 calls)
     init_us_2:cp :      7.36s CPU      6.71s WALL (     148 calls)
     cegterg      :   3512.70s CPU   2360.61s WALL (      72 calls)

     Called by sum_band:
     sum_band:wei :      0.02s CPU      0.02s WALL (      36 calls)
     sum_band:loo :    205.35s CPU    162.98s WALL (      36 calls)
     sum_band:buf :      1.19s CPU      1.12s WALL (      72 calls)
     sum_band:ini :      3.49s CPU      3.11s WALL (      72 calls)
     sum_band:cal :     97.88s CPU     50.14s WALL (      72 calls)
     sum_band:bec :      0.78s CPU      0.66s WALL (      72 calls)
     addusdens    :     14.69s CPU     13.22s WALL (      36 calls)
                                        0.00s GPU  (      36 calls)
     addusd:skk   :      0.78s CPU      0.82s WALL (      72 calls)
                                        0.00s GPU  (      72 calls)

     Called by *egterg:
     cdiaghg      :    517.16s CPU    455.03s WALL (     645 calls)
     cegterg:over :    355.10s CPU    185.78s WALL (     573 calls)
     cegterg:upda :    224.80s CPU    120.05s WALL (     573 calls)
     cegterg:last :    586.82s CPU    310.47s WALL (     270 calls)
     cdiaghg:chol :     12.33s CPU     10.38s WALL (     645 calls)
     cdiaghg:inve :      6.92s CPU      4.71s WALL (     645 calls)
     cdiaghg:para :     94.50s CPU     62.53s WALL (    1290 calls)
     h_psi        :   1391.32s CPU   1057.99s WALL (     647 calls)
     s_psi        :    385.83s CPU    196.18s WALL (     647 calls)
     g_psi        :      3.83s CPU      3.25s WALL (     573 calls)

     Called by h_psi:
     h_psi:calbec :    382.93s CPU    201.51s WALL (     647 calls)
     vloc_psi     :    615.59s CPU    651.68s WALL (     647 calls)
     add_vuspsi   :    389.12s CPU    198.83s WALL (     647 calls)

     General routines
     calbec       :    491.81s CPU    257.30s WALL (     727 calls)
     fft          :      7.52s CPU      8.35s WALL (     490 calls)
     ffts         :      0.64s CPU      0.67s WALL (      73 calls)
     fftw         :    562.11s CPU    599.84s WALL (  201498 calls)
     interpolate  :      1.02s CPU      1.13s WALL (      37 calls)

     Parallel routines

     PWSCF        :      1h 5m CPU  45m14.83s WALL


   This run was terminated on:  22: 2:36  14Aug2025            

=------------------------------------------------------------------------------=
   JOB DONE.
=------------------------------------------------------------------------------=
Note: The following floating-point exceptions are signalling: IEEE_DENORMAL
Note: The following floating-point exceptions are signalling: IEEE_DENORMAL
Note: The following floating-point exceptions are signalling: IEEE_DENORMAL
Note: The following floating-point exceptions are signalling: IEEE_DENORMAL
Note: The following floating-point exceptions are signalling: IEEE_INVALID_FLAG
Note: The following floating-point exceptions are signalling: IEEE_INVALID_FLAG
Note: The following floating-point exceptions are signalling: IEEE_INVALID_FLAG
Note: The following floating-point exceptions are signalling: IEEE_INVALID_FLAG
