
     Program PWSCF v.7.0 starts on 28Aug2025 at 18:41:57 

     This program is part of the open-source Quantum ESPRESSO suite
     for quantum simulation of materials; please cite
         "P. Giannozzi et al., J. Phys.:Condens. Matter 21 395502 (2009);
         "P. Giannozzi et al., J. Phys.:Condens. Matter 29 465901 (2017);
         "P. Giannozzi et al., J. Chem. Phys. 152 154105 (2020);
          URL http://www.quantum-espresso.org", 
     in publications or presentations arising from this work. More details at
     http://www.quantum-espresso.org/quote

     Parallel version (MPI & OpenMP), running on      32 processor cores
     Number of MPI processes:                32
     Threads/MPI process:                     1

     MPI processes distributed on     1 nodes
     K-points division:     npool     =       8
     R & G space division:  proc/nbgrp/npool/nimage =       4
     107194 MiB available memory on the printing compute node when the environment starts

     Reading input from /home/jvc/QEspresso7.2/ZnO_database/scripts/cell122.in/ZnO-2.94-1.49-122.in
Warning: card &CELL ignored
Warning: card / ignored
Warning: card &FCP ignored
Warning: card / ignored
Warning: card &RISM ignored
Warning: card / ignored

     Current dimensions of program PWSCF are:
     Max number of different atomic species (ntypx) = 10
     Max number of k-points (npk) =  40000
     Max angular momentum in pseudopotentials (lmaxx) =  4
     file Zn.upf: wavefunction(s)  3D renormalized
     Found identity + (  0.0000  0.0000  0.5000) symmetry
     This is a supercell, fractional translations are disabled
     Message from routine setup:
     using ibrav=0 with symmetry is DISCOURAGED, use correct ibrav instead

     Subspace diagonalization in iterative solution of the eigenvalue problem:
     one sub-group per band group will be used
     scalapack distributed-memory algorithm (size of sub-group:  2*  2 procs)


     Parallelization info
     --------------------
     sticks:   dense  smooth     PW     G-vecs:    dense   smooth      PW
     Min         426     214     68                29900    10568    1864
     Max         427     215     69                29903    10571    1865
     Sum        1707     859    275               119607    42277    7459

     Using Slab Decomposition



     bravais-lattice index     =            0
     lattice parameter (alat)  =       5.5610  a.u.
     unit-cell volume          =     884.7686 (a.u.)^3
     number of atoms/cell      =           16
     number of atomic types    =            2
     number of electrons       =       144.00
     number of Kohn-Sham states=           72
     kinetic-energy cutoff     =      50.0000  Ry
     charge density cutoff     =     400.0000  Ry
     scf convergence threshold =      1.0E-08
     mixing beta               =       0.3000
     number of iterations used =            8  plain     mixing
     Exchange-correlation= PBE
                           (   1   4   3   4   0   0   0)

     celldm(1)=   5.560969  celldm(2)=   0.000000  celldm(3)=   0.000000
     celldm(4)=   0.000000  celldm(5)=   0.000000  celldm(6)=   0.000000

     crystal axes: (cart. coord. in units of alat)
               a(1) = (   1.000000   0.000000   0.000000 )  
               a(2) = (  -1.000000   1.732051   0.000000 )  
               a(3) = (   0.000000   0.000000   2.970419 )  

     reciprocal axes: (cart. coord. in units 2 pi/alat)
               b(1) = (  1.000000  0.577350 -0.000000 )  
               b(2) = (  0.000000  0.577350  0.000000 )  
               b(3) = (  0.000000 -0.000000  0.336653 )  


     PseudoPot. # 1 for Zn read from file:
     /home/jvc/QEspresso7.2/ZnO_database/pseudos/Zn.upf
     MD5 check sum: 7f56cabf9682ed8c977c2f7d0c5985c5
     Pseudo is Ultrasoft + core correction, Zval = 12.0
     Generated using &quot;atomic&quot; code by A. Dal Corso  v.6.2.2
     Using radial grid of 1201 points,  6 beta functions with: 
                l(1) =   0
                l(2) =   0
                l(3) =   1
                l(4) =   1
                l(5) =   2
                l(6) =   2
     Q(r) pseudized with 0 coefficients 


     PseudoPot. # 2 for O  read from file:
     /home/jvc/QEspresso7.2/ZnO_database/pseudos/O.upf
     MD5 check sum: 91400c9766925bcf19f520983a725ff0
     Pseudo is Ultrasoft + core correction, Zval =  6.0
     Generated using &quot;atomic&quot; code by A. Dal Corso  v.6.3MaX
     Using radial grid of 1095 points,  4 beta functions with: 
                l(1) =   0
                l(2) =   0
                l(3) =   1
                l(4) =   1
     Q(r) pseudized with 0 coefficients 


     atomic species   valence    mass     pseudopotential
        Zn            12.00    65.38000     Zn( 1.00)
        O              6.00    15.99900     O ( 1.00)

      2 Sym. Ops. (no inversion) found


                                    s                        frac. trans.

      isym =  1     identity                                     

 cryst.   s( 1) = (     1          0          0      )
                  (     0          1          0      )
                  (     0          0          1      )

 cart.    s( 1) = (  1.0000000  0.0000000  0.0000000 )
                  (  0.0000000  1.0000000  0.0000000 )
                  (  0.0000000  0.0000000  1.0000000 )


      isym =  2     inv. 180 deg rotation - cart. axis [1,0,0]   

 cryst.   s( 2) = (    -1          0          0      )
                  (     2          1          0      )
                  (     0          0          1      )

 cart.    s( 2) = ( -1.0000000  0.0000000  0.0000000 )
                  (  0.0000000  1.0000000  0.0000000 )
                  (  0.0000000  0.0000000  1.0000000 )


   Cartesian axes

     site n.     atom                  positions (alat units)
         1           Zn  tau(   1) = (   0.5000000   0.2886751   0.7435459  )
         2           Zn  tau(   2) = (   0.0000000   0.5773503   0.0009410  )
         3           O   tau(   3) = (   0.5000000   0.2886751   1.3065039  )
         4           O   tau(   4) = (   0.0000000   0.5773503   0.5638991  )
         5           Zn  tau(   5) = (   0.5000000   0.2886751   2.2287555  )
         6           Zn  tau(   6) = (   0.0000000   0.5773503   1.4861507  )
         7           O   tau(   7) = (   0.5000000   0.2886751   2.7917136  )
         8           O   tau(   8) = (   0.0000000   0.5773503   2.0491088  )
         9           Zn  tau(   9) = (   0.0000000   1.1547005   0.7435459  )
        10           Zn  tau(  10) = (  -0.5000000   1.4433757   0.0009410  )
        11           O   tau(  11) = (   0.0000000   1.1547005   1.3065039  )
        12           O   tau(  12) = (  -0.5000000   1.4433757   0.5638991  )
        13           Zn  tau(  13) = (   0.0000000   1.1547005   2.2287555  )
        14           Zn  tau(  14) = (  -0.5000000   1.4433757   1.4861507  )
        15           O   tau(  15) = (   0.0000000   1.1547005   2.7917136  )
        16           O   tau(  16) = (  -0.5000000   1.4433757   2.0491088  )

   Crystallographic axes

     site n.     atom                  positions (cryst. coord.)
         1           Zn  tau(   1) = (  0.6666667  0.1666667  0.2503168  )
         2           Zn  tau(   2) = (  0.3333333  0.3333333  0.0003168  )
         3           O   tau(   3) = (  0.6666667  0.1666667  0.4398382  )
         4           O   tau(   4) = (  0.3333333  0.3333333  0.1898382  )
         5           Zn  tau(   5) = (  0.6666667  0.1666667  0.7503168  )
         6           Zn  tau(   6) = (  0.3333333  0.3333333  0.5003168  )
         7           O   tau(   7) = (  0.6666667  0.1666667  0.9398382  )
         8           O   tau(   8) = (  0.3333333  0.3333333  0.6898382  )
         9           Zn  tau(   9) = (  0.6666667  0.6666667  0.2503168  )
        10           Zn  tau(  10) = (  0.3333333  0.8333333  0.0003168  )
        11           O   tau(  11) = (  0.6666667  0.6666667  0.4398382  )
        12           O   tau(  12) = (  0.3333333  0.8333333  0.1898382  )
        13           Zn  tau(  13) = (  0.6666667  0.6666667  0.7503168  )
        14           Zn  tau(  14) = (  0.3333333  0.8333333  0.5003168  )
        15           O   tau(  15) = (  0.6666667  0.6666667  0.9398382  )
        16           O   tau(  16) = (  0.3333333  0.8333333  0.6898382  )

     number of k points=    80
                       cart. coord. in units 2pi/alat
        k(    1) = (   0.0000000   0.0000000   0.0000000), wk =   0.0092593
        k(    2) = (   0.0000000   0.0000000   0.0561088), wk =   0.0185185
        k(    3) = (   0.0000000   0.0000000   0.1122176), wk =   0.0185185
        k(    4) = (   0.0000000   0.0000000  -0.1683264), wk =   0.0092593
        k(    5) = (   0.0000000   0.0962250   0.0000000), wk =   0.0185185
        k(    6) = (   0.0000000   0.0962250   0.0561088), wk =   0.0185185
        k(    7) = (   0.0000000   0.0962250   0.1122176), wk =   0.0185185
        k(    8) = (   0.0000000   0.0962250  -0.1683264), wk =   0.0185185
        k(    9) = (   0.0000000   0.1924501   0.0000000), wk =   0.0185185
        k(   10) = (   0.0000000   0.1924501   0.0561088), wk =   0.0185185
        k(   11) = (   0.0000000   0.1924501   0.1122176), wk =   0.0185185
        k(   12) = (   0.0000000   0.1924501  -0.1683264), wk =   0.0185185
        k(   13) = (   0.0000000  -0.2886751   0.0000000), wk =   0.0092593
        k(   14) = (   0.0000000  -0.2886751   0.0561088), wk =   0.0185185
        k(   15) = (   0.0000000  -0.2886751   0.1122176), wk =   0.0185185
        k(   16) = (   0.0000000  -0.2886751  -0.1683264), wk =   0.0092593
        k(   17) = (   0.1666667   0.0962250   0.0000000), wk =   0.0370370
        k(   18) = (   0.1666667   0.0962250   0.0561088), wk =   0.0370370
        k(   19) = (   0.1666667   0.0962250   0.1122176), wk =   0.0370370
        k(   20) = (   0.1666667   0.0962250  -0.1683264), wk =   0.0370370
        k(   21) = (   0.1666667   0.1924501   0.0000000), wk =   0.0370370
        k(   22) = (   0.1666667   0.1924501   0.0561088), wk =   0.0370370
        k(   23) = (   0.1666667   0.1924501   0.1122176), wk =   0.0370370
        k(   24) = (   0.1666667   0.1924501  -0.1683264), wk =   0.0370370
        k(   25) = (   0.1666667   0.2886751   0.0000000), wk =   0.0185185
        k(   26) = (   0.1666667   0.2886751   0.0561088), wk =   0.0370370
        k(   27) = (   0.1666667   0.2886751   0.1122176), wk =   0.0370370
        k(   28) = (   0.1666667   0.2886751  -0.1683264), wk =   0.0185185
        k(   29) = (   0.1666667   0.0000000   0.0000000), wk =   0.0185185
        k(   30) = (   0.1666667   0.0000000   0.0561088), wk =   0.0370370
        k(   31) = (   0.1666667   0.0000000   0.1122176), wk =   0.0370370
        k(   32) = (   0.1666667   0.0000000  -0.1683264), wk =   0.0185185
        k(   33) = (   0.3333333   0.1924501   0.0000000), wk =   0.0370370
        k(   34) = (   0.3333333   0.1924501   0.0561088), wk =   0.0370370
        k(   35) = (   0.3333333   0.1924501   0.1122176), wk =   0.0370370
        k(   36) = (   0.3333333   0.1924501  -0.1683264), wk =   0.0370370
        k(   37) = (   0.3333333   0.2886751   0.0000000), wk =   0.0185185
        k(   38) = (   0.3333333   0.2886751   0.0561088), wk =   0.0370370
        k(   39) = (   0.3333333   0.2886751   0.1122176), wk =   0.0370370
        k(   40) = (   0.3333333   0.2886751  -0.1683264), wk =   0.0185185
        k(   41) = (   0.3333333  -0.0962250   0.0000000), wk =   0.0370370
        k(   42) = (   0.3333333  -0.0962250   0.0561088), wk =   0.0370370
        k(   43) = (   0.3333333  -0.0962250   0.1122176), wk =   0.0370370
        k(   44) = (   0.3333333  -0.0962250  -0.1683264), wk =   0.0370370
        k(   45) = (   0.3333333  -0.0000000   0.0000000), wk =   0.0185185
        k(   46) = (   0.3333333  -0.0000000   0.0561088), wk =   0.0370370
        k(   47) = (   0.3333333  -0.0000000   0.1122176), wk =   0.0370370
        k(   48) = (   0.3333333  -0.0000000  -0.1683264), wk =   0.0185185
        k(   49) = (  -0.5000000  -0.2886751   0.0000000), wk =   0.0092593
        k(   50) = (  -0.5000000  -0.2886751   0.0561088), wk =   0.0185185
        k(   51) = (  -0.5000000  -0.2886751   0.1122176), wk =   0.0185185
        k(   52) = (  -0.5000000  -0.2886751  -0.1683264), wk =   0.0092593
        k(   53) = (  -0.5000000  -0.1924501   0.0000000), wk =   0.0185185
        k(   54) = (  -0.5000000  -0.1924501   0.0561088), wk =   0.0185185
        k(   55) = (  -0.5000000  -0.1924501   0.1122176), wk =   0.0185185
        k(   56) = (  -0.5000000  -0.1924501  -0.1683264), wk =   0.0185185
        k(   57) = (  -0.5000000  -0.0962250   0.0000000), wk =   0.0185185
        k(   58) = (  -0.5000000  -0.0962250   0.0561088), wk =   0.0185185
        k(   59) = (  -0.5000000  -0.0962250   0.1122176), wk =   0.0185185
        k(   60) = (  -0.5000000  -0.0962250  -0.1683264), wk =   0.0185185
        k(   61) = (  -0.5000000  -0.5773503   0.0000000), wk =   0.0092593
        k(   62) = (  -0.5000000  -0.5773503   0.0561088), wk =   0.0185185
        k(   63) = (  -0.5000000  -0.5773503   0.1122176), wk =   0.0185185
        k(   64) = (  -0.5000000  -0.5773503  -0.1683264), wk =   0.0092593
        k(   65) = (   0.0000000   0.0962250  -0.0561088), wk =   0.0185185
        k(   66) = (   0.0000000   0.0962250  -0.1122176), wk =   0.0185185
        k(   67) = (   0.0000000   0.1924501  -0.0561088), wk =   0.0185185
        k(   68) = (   0.0000000   0.1924501  -0.1122176), wk =   0.0185185
        k(   69) = (  -0.1666667   0.0962250  -0.0561088), wk =   0.0370370
        k(   70) = (  -0.1666667   0.0962250  -0.1122176), wk =   0.0370370
        k(   71) = (  -0.1666667   0.1924501  -0.0561088), wk =   0.0370370
        k(   72) = (  -0.1666667   0.1924501  -0.1122176), wk =   0.0370370
        k(   73) = (  -0.3333333   0.1924501  -0.0561088), wk =   0.0370370
        k(   74) = (  -0.3333333   0.1924501  -0.1122176), wk =   0.0370370
        k(   75) = (  -0.3333333  -0.0962250  -0.0561088), wk =   0.0370370
        k(   76) = (  -0.3333333  -0.0962250  -0.1122176), wk =   0.0370370
        k(   77) = (   0.5000000  -0.1924501  -0.0561088), wk =   0.0185185
        k(   78) = (   0.5000000  -0.1924501  -0.1122176), wk =   0.0185185
        k(   79) = (   0.5000000  -0.0962250  -0.0561088), wk =   0.0185185
        k(   80) = (   0.5000000  -0.0962250  -0.1122176), wk =   0.0185185

                       cryst. coord.
        k(    1) = (   0.0000000   0.0000000   0.0000000), wk =   0.0092593
        k(    2) = (   0.0000000   0.0000000   0.1666667), wk =   0.0185185
        k(    3) = (   0.0000000   0.0000000   0.3333333), wk =   0.0185185
        k(    4) = (   0.0000000   0.0000000  -0.5000000), wk =   0.0092593
        k(    5) = (   0.0000000   0.1666667   0.0000000), wk =   0.0185185
        k(    6) = (   0.0000000   0.1666667   0.1666667), wk =   0.0185185
        k(    7) = (   0.0000000   0.1666667   0.3333333), wk =   0.0185185
        k(    8) = (   0.0000000   0.1666667  -0.5000000), wk =   0.0185185
        k(    9) = (   0.0000000   0.3333333   0.0000000), wk =   0.0185185
        k(   10) = (   0.0000000   0.3333333   0.1666667), wk =   0.0185185
        k(   11) = (   0.0000000   0.3333333   0.3333333), wk =   0.0185185
        k(   12) = (   0.0000000   0.3333333  -0.5000000), wk =   0.0185185
        k(   13) = (   0.0000000  -0.5000000   0.0000000), wk =   0.0092593
        k(   14) = (   0.0000000  -0.5000000   0.1666667), wk =   0.0185185
        k(   15) = (   0.0000000  -0.5000000   0.3333333), wk =   0.0185185
        k(   16) = (   0.0000000  -0.5000000  -0.5000000), wk =   0.0092593
        k(   17) = (   0.1666667   0.0000000   0.0000000), wk =   0.0370370
        k(   18) = (   0.1666667   0.0000000   0.1666667), wk =   0.0370370
        k(   19) = (   0.1666667   0.0000000   0.3333333), wk =   0.0370370
        k(   20) = (   0.1666667   0.0000000  -0.5000000), wk =   0.0370370
        k(   21) = (   0.1666667   0.1666667   0.0000000), wk =   0.0370370
        k(   22) = (   0.1666667   0.1666667   0.1666667), wk =   0.0370370
        k(   23) = (   0.1666667   0.1666667   0.3333333), wk =   0.0370370
        k(   24) = (   0.1666667   0.1666667  -0.5000000), wk =   0.0370370
        k(   25) = (   0.1666667   0.3333333   0.0000000), wk =   0.0185185
        k(   26) = (   0.1666667   0.3333333   0.1666667), wk =   0.0370370
        k(   27) = (   0.1666667   0.3333333   0.3333333), wk =   0.0370370
        k(   28) = (   0.1666667   0.3333333  -0.5000000), wk =   0.0185185
        k(   29) = (   0.1666667  -0.1666667   0.0000000), wk =   0.0185185
        k(   30) = (   0.1666667  -0.1666667   0.1666667), wk =   0.0370370
        k(   31) = (   0.1666667  -0.1666667   0.3333333), wk =   0.0370370
        k(   32) = (   0.1666667  -0.1666667  -0.5000000), wk =   0.0185185
        k(   33) = (   0.3333333   0.0000000   0.0000000), wk =   0.0370370
        k(   34) = (   0.3333333   0.0000000   0.1666667), wk =   0.0370370
        k(   35) = (   0.3333333   0.0000000   0.3333333), wk =   0.0370370
        k(   36) = (   0.3333333   0.0000000  -0.5000000), wk =   0.0370370
        k(   37) = (   0.3333333   0.1666667   0.0000000), wk =   0.0185185
        k(   38) = (   0.3333333   0.1666667   0.1666667), wk =   0.0370370
        k(   39) = (   0.3333333   0.1666667   0.3333333), wk =   0.0370370
        k(   40) = (   0.3333333   0.1666667  -0.5000000), wk =   0.0185185
        k(   41) = (   0.3333333  -0.5000000   0.0000000), wk =   0.0370370
        k(   42) = (   0.3333333  -0.5000000   0.1666667), wk =   0.0370370
        k(   43) = (   0.3333333  -0.5000000   0.3333333), wk =   0.0370370
        k(   44) = (   0.3333333  -0.5000000  -0.5000000), wk =   0.0370370
        k(   45) = (   0.3333333  -0.3333333   0.0000000), wk =   0.0185185
        k(   46) = (   0.3333333  -0.3333333   0.1666667), wk =   0.0370370
        k(   47) = (   0.3333333  -0.3333333   0.3333333), wk =   0.0370370
        k(   48) = (   0.3333333  -0.3333333  -0.5000000), wk =   0.0185185
        k(   49) = (  -0.5000000   0.0000000   0.0000000), wk =   0.0092593
        k(   50) = (  -0.5000000   0.0000000   0.1666667), wk =   0.0185185
        k(   51) = (  -0.5000000   0.0000000   0.3333333), wk =   0.0185185
        k(   52) = (  -0.5000000   0.0000000  -0.5000000), wk =   0.0092593
        k(   53) = (  -0.5000000   0.1666667   0.0000000), wk =   0.0185185
        k(   54) = (  -0.5000000   0.1666667   0.1666667), wk =   0.0185185
        k(   55) = (  -0.5000000   0.1666667   0.3333333), wk =   0.0185185
        k(   56) = (  -0.5000000   0.1666667  -0.5000000), wk =   0.0185185
        k(   57) = (  -0.5000000   0.3333333   0.0000000), wk =   0.0185185
        k(   58) = (  -0.5000000   0.3333333   0.1666667), wk =   0.0185185
        k(   59) = (  -0.5000000   0.3333333   0.3333333), wk =   0.0185185
        k(   60) = (  -0.5000000   0.3333333  -0.5000000), wk =   0.0185185
        k(   61) = (  -0.5000000  -0.5000000   0.0000000), wk =   0.0092593
        k(   62) = (  -0.5000000  -0.5000000   0.1666667), wk =   0.0185185
        k(   63) = (  -0.5000000  -0.5000000   0.3333333), wk =   0.0185185
        k(   64) = (  -0.5000000  -0.5000000  -0.5000000), wk =   0.0092593
        k(   65) = (   0.0000000   0.1666667  -0.1666667), wk =   0.0185185
        k(   66) = (   0.0000000   0.1666667  -0.3333333), wk =   0.0185185
        k(   67) = (   0.0000000   0.3333333  -0.1666667), wk =   0.0185185
        k(   68) = (   0.0000000   0.3333333  -0.3333333), wk =   0.0185185
        k(   69) = (  -0.1666667   0.3333333  -0.1666667), wk =   0.0370370
        k(   70) = (  -0.1666667   0.3333333  -0.3333333), wk =   0.0370370
        k(   71) = (  -0.1666667   0.5000000  -0.1666667), wk =   0.0370370
        k(   72) = (  -0.1666667   0.5000000  -0.3333333), wk =   0.0370370
        k(   73) = (  -0.3333333   0.6666667  -0.1666667), wk =   0.0370370
        k(   74) = (  -0.3333333   0.6666667  -0.3333333), wk =   0.0370370
        k(   75) = (  -0.3333333   0.1666667  -0.1666667), wk =   0.0370370
        k(   76) = (  -0.3333333   0.1666667  -0.3333333), wk =   0.0370370
        k(   77) = (   0.5000000  -0.8333333  -0.1666667), wk =   0.0185185
        k(   78) = (   0.5000000  -0.8333333  -0.3333333), wk =   0.0185185
        k(   79) = (   0.5000000  -0.6666667  -0.1666667), wk =   0.0185185
        k(   80) = (   0.5000000  -0.6666667  -0.3333333), wk =   0.0185185

     Dense  grid:   119607 G-vectors     FFT dimensions: (  36,  72, 108)

     Smooth grid:    42277 G-vectors     FFT dimensions: (  25,  54,  75)

     Dynamical RAM for                 wfc:       1.45 MB

     Dynamical RAM for     wfc (w. buffer):      15.95 MB

     Dynamical RAM for           str. fact:       0.91 MB

     Dynamical RAM for           local pot:       0.00 MB

     Dynamical RAM for          nlocal pot:       4.19 MB

     Dynamical RAM for                qrad:       3.21 MB

     Dynamical RAM for          rho,v,vnew:       2.97 MB

     Dynamical RAM for               rhoin:       0.99 MB

     Dynamical RAM for            rho*nmix:       7.30 MB

     Dynamical RAM for           G-vectors:       1.79 MB

     Dynamical RAM for          h,s,v(r/c):       0.24 MB

     Dynamical RAM for          <psi|beta>:       0.23 MB

     Dynamical RAM for                 psi:       2.90 MB

     Dynamical RAM for                hpsi:       2.90 MB

     Dynamical RAM for                spsi:       2.90 MB

     Dynamical RAM for      wfcinit/wfcrot:       4.44 MB

     Dynamical RAM for           addusdens:      11.46 MB

     Dynamical RAM for          addusforce:      12.12 MB

     Estimated static dynamical RAM per process >      34.06 MB

     Estimated max dynamical RAM per process >      53.48 MB

     Estimated total dynamical RAM >       1.47 GB

     Initial potential from superposition of free atoms

     starting charge     143.9702, renormalised to     144.0000
     Starting wfcs are  104 randomized atomic wfcs

     total cpu time spent up to now is        8.6 secs

     per-process dynamical memory:    50.1 Mb

     Self-consistent Calculation

     iteration #  1     ecut=    50.00 Ry     beta= 0.30
     Davidson diagonalization with overlap

---- Real-time Memory Report at c_bands before calling an iterative solver
            81 MiB given to the printing process from OS
            48 MiB allocation reported by mallinfo(arena+hblkhd)
        105540 MiB available memory on the node where the printing process lives
------------------
     ethr =  1.00E-02,  avg # of iterations =  2.5

     total cpu time spent up to now is       17.6 secs

     total energy              =   -1444.54868077 Ry
     estimated scf accuracy    <       2.87663411 Ry

     iteration #  2     ecut=    50.00 Ry     beta= 0.30
     Davidson diagonalization with overlap

---- Real-time Memory Report at c_bands before calling an iterative solver
            98 MiB given to the printing process from OS
            65 MiB allocation reported by mallinfo(arena+hblkhd)
        105743 MiB available memory on the node where the printing process lives
------------------
     ethr =  2.00E-03,  avg # of iterations =  2.0

     total cpu time spent up to now is       28.2 secs

     total energy              =   -1444.59249782 Ry
     estimated scf accuracy    <       0.67239438 Ry

     iteration #  3     ecut=    50.00 Ry     beta= 0.30
     Davidson diagonalization with overlap

---- Real-time Memory Report at c_bands before calling an iterative solver
            98 MiB given to the printing process from OS
            65 MiB allocation reported by mallinfo(arena+hblkhd)
        105190 MiB available memory on the node where the printing process lives
------------------
     ethr =  4.67E-04,  avg # of iterations =  6.5

     total cpu time spent up to now is       48.5 secs

     total energy              =   -1445.02878544 Ry
     estimated scf accuracy    <       0.39600147 Ry

     iteration #  4     ecut=    50.00 Ry     beta= 0.30
     Davidson diagonalization with overlap

---- Real-time Memory Report at c_bands before calling an iterative solver
            98 MiB given to the printing process from OS
            65 MiB allocation reported by mallinfo(arena+hblkhd)
        105003 MiB available memory on the node where the printing process lives
------------------
     ethr =  2.75E-04,  avg # of iterations =  2.0

     total cpu time spent up to now is       57.5 secs

     total energy              =   -1444.99753492 Ry
     estimated scf accuracy    <       0.13629847 Ry

     iteration #  5     ecut=    50.00 Ry     beta= 0.30
     Davidson diagonalization with overlap

---- Real-time Memory Report at c_bands before calling an iterative solver
            98 MiB given to the printing process from OS
            65 MiB allocation reported by mallinfo(arena+hblkhd)
        105021 MiB available memory on the node where the printing process lives
------------------
     ethr =  9.47E-05,  avg # of iterations =  8.8

     total cpu time spent up to now is       84.8 secs

     total energy              =   -1445.15562345 Ry
     estimated scf accuracy    <       1.89482587 Ry

     iteration #  6     ecut=    50.00 Ry     beta= 0.30
     Davidson diagonalization with overlap

---- Real-time Memory Report at c_bands before calling an iterative solver
            98 MiB given to the printing process from OS
            65 MiB allocation reported by mallinfo(arena+hblkhd)
        104950 MiB available memory on the node where the printing process lives
------------------
     ethr =  9.47E-05,  avg # of iterations =  5.2

     total cpu time spent up to now is      101.3 secs

     total energy              =   -1444.90649464 Ry
     estimated scf accuracy    <       0.64598119 Ry

     iteration #  7     ecut=    50.00 Ry     beta= 0.30
     Davidson diagonalization with overlap

---- Real-time Memory Report at c_bands before calling an iterative solver
            98 MiB given to the printing process from OS
            65 MiB allocation reported by mallinfo(arena+hblkhd)
        104956 MiB available memory on the node where the printing process lives
------------------
     ethr =  9.47E-05,  avg # of iterations =  6.4

     total cpu time spent up to now is      121.4 secs

     total energy              =   -1445.04446533 Ry
     estimated scf accuracy    <       0.00028545 Ry

     iteration #  8     ecut=    50.00 Ry     beta= 0.30
     Davidson diagonalization with overlap

---- Real-time Memory Report at c_bands before calling an iterative solver
            98 MiB given to the printing process from OS
            65 MiB allocation reported by mallinfo(arena+hblkhd)
        104978 MiB available memory on the node where the printing process lives
------------------
     c_bands:  1 eigenvalues not converged
     c_bands:  1 eigenvalues not converged
     ethr =  1.98E-07,  avg # of iterations = 13.9

     total cpu time spent up to now is      159.6 secs

     total energy              =   -1445.04825507 Ry
     estimated scf accuracy    <       0.00099593 Ry

     iteration #  9     ecut=    50.00 Ry     beta= 0.30
     Davidson diagonalization with overlap

---- Real-time Memory Report at c_bands before calling an iterative solver
            98 MiB given to the printing process from OS
            65 MiB allocation reported by mallinfo(arena+hblkhd)
        104970 MiB available memory on the node where the printing process lives
------------------
     ethr =  1.98E-07,  avg # of iterations =  5.1

     total cpu time spent up to now is      176.1 secs

     total energy              =   -1445.04836600 Ry
     estimated scf accuracy    <       0.00004692 Ry

     iteration # 10     ecut=    50.00 Ry     beta= 0.30
     Davidson diagonalization with overlap

---- Real-time Memory Report at c_bands before calling an iterative solver
            98 MiB given to the printing process from OS
            65 MiB allocation reported by mallinfo(arena+hblkhd)
        104978 MiB available memory on the node where the printing process lives
------------------
     ethr =  3.26E-08,  avg # of iterations =  9.2

     total cpu time spent up to now is      203.7 secs

     total energy              =   -1445.04839493 Ry
     estimated scf accuracy    <       0.00034923 Ry

     iteration # 11     ecut=    50.00 Ry     beta= 0.30
     Davidson diagonalization with overlap

---- Real-time Memory Report at c_bands before calling an iterative solver
            98 MiB given to the printing process from OS
            65 MiB allocation reported by mallinfo(arena+hblkhd)
        104977 MiB available memory on the node where the printing process lives
------------------
     ethr =  3.26E-08,  avg # of iterations =  5.2

     total cpu time spent up to now is      220.4 secs

     total energy              =   -1445.04839272 Ry
     estimated scf accuracy    <       0.00009134 Ry

     iteration # 12     ecut=    50.00 Ry     beta= 0.30
     Davidson diagonalization with overlap

---- Real-time Memory Report at c_bands before calling an iterative solver
            98 MiB given to the printing process from OS
            65 MiB allocation reported by mallinfo(arena+hblkhd)
        104977 MiB available memory on the node where the printing process lives
------------------
     ethr =  3.26E-08,  avg # of iterations =  2.2

     total cpu time spent up to now is      231.1 secs

     total energy              =   -1445.04837911 Ry
     estimated scf accuracy    <       0.00003510 Ry

     iteration # 13     ecut=    50.00 Ry     beta= 0.30
     Davidson diagonalization with overlap

---- Real-time Memory Report at c_bands before calling an iterative solver
            98 MiB given to the printing process from OS
            65 MiB allocation reported by mallinfo(arena+hblkhd)
        104977 MiB available memory on the node where the printing process lives
------------------
     ethr =  2.44E-08,  avg # of iterations =  5.3

     total cpu time spent up to now is      247.8 secs

     total energy              =   -1445.04839493 Ry
     estimated scf accuracy    <       0.00000385 Ry

     iteration # 14     ecut=    50.00 Ry     beta= 0.30
     Davidson diagonalization with overlap

---- Real-time Memory Report at c_bands before calling an iterative solver
            98 MiB given to the printing process from OS
            65 MiB allocation reported by mallinfo(arena+hblkhd)
        104977 MiB available memory on the node where the printing process lives
------------------
     ethr =  2.67E-09,  avg # of iterations =  4.2

     total cpu time spent up to now is      262.2 secs

     total energy              =   -1445.04839535 Ry
     estimated scf accuracy    <       0.00000124 Ry

     iteration # 15     ecut=    50.00 Ry     beta= 0.30
     Davidson diagonalization with overlap

---- Real-time Memory Report at c_bands before calling an iterative solver
            98 MiB given to the printing process from OS
            65 MiB allocation reported by mallinfo(arena+hblkhd)
        104977 MiB available memory on the node where the printing process lives
------------------
     ethr =  8.61E-10,  avg # of iterations =  4.3

     total cpu time spent up to now is      276.5 secs

     total energy              =   -1445.04839579 Ry
     estimated scf accuracy    <       0.00000007 Ry

     iteration # 16     ecut=    50.00 Ry     beta= 0.30
     Davidson diagonalization with overlap

---- Real-time Memory Report at c_bands before calling an iterative solver
            98 MiB given to the printing process from OS
            65 MiB allocation reported by mallinfo(arena+hblkhd)
        104977 MiB available memory on the node where the printing process lives
------------------
     ethr =  5.13E-11,  avg # of iterations =  6.1

     total cpu time spent up to now is      294.5 secs

     total energy              =   -1445.04839567 Ry
     estimated scf accuracy    <       0.00000026 Ry

     iteration # 17     ecut=    50.00 Ry     beta= 0.30
     Davidson diagonalization with overlap

---- Real-time Memory Report at c_bands before calling an iterative solver
            98 MiB given to the printing process from OS
            65 MiB allocation reported by mallinfo(arena+hblkhd)
        104970 MiB available memory on the node where the printing process lives
------------------
     ethr =  5.13E-11,  avg # of iterations =  7.4

     total cpu time spent up to now is      315.6 secs

     total energy              =   -1445.04839575 Ry
     estimated scf accuracy    <       0.00000002 Ry

     iteration # 18     ecut=    50.00 Ry     beta= 0.30
     Davidson diagonalization with overlap

---- Real-time Memory Report at c_bands before calling an iterative solver
            98 MiB given to the printing process from OS
            65 MiB allocation reported by mallinfo(arena+hblkhd)
        104977 MiB available memory on the node where the printing process lives
------------------
     ethr =  1.28E-11,  avg # of iterations =  3.2

     total cpu time spent up to now is      327.7 secs

     End of self-consistent calculation

          k = 0.0000 0.0000 0.0000 (  5321 PWs)   bands (ev):

    -7.7745  -6.9609  -6.9609  -6.4630  -6.1445  -6.1445  -6.0942  -5.9437
     4.5002   4.5002   5.0813   5.0813   5.0854   5.1062   5.2186   5.8201
     5.8202   5.9134   5.9266   5.9266   5.9267   5.9267   6.1743   6.2221
     6.2222   6.2939   6.3630   6.3630   6.5575   6.5575   6.9406   7.2028
     8.2678   8.2678   8.3637   8.6674   8.6674   8.6674   8.6674   8.7036
     8.7764   8.7764   8.8499   8.8499   8.9087   8.9087   8.9825   9.0237
     9.2558   9.3297   9.5615   9.5615   9.7775  10.1448  10.3583  11.6972
    11.6972  11.9697  11.9697  12.4687  12.5208  12.5208  12.5438  12.5439
    12.8787  13.3492  13.3492  13.3493  13.3494  14.1310  14.1501  14.1502

     occupation numbers 
     1.0000   1.0000   1.0000   1.0000   1.0000   1.0000   1.0000   1.0000
     1.0000   1.0000   1.0000   1.0000   1.0000   1.0000   1.0000   1.0000
     1.0000   1.0000   1.0000   1.0000   1.0000   1.0000   1.0000   1.0000
     1.0000   1.0000   1.0000   1.0000   1.0000   1.0000   1.0000   1.0000
     1.0000   1.0000   1.0000   1.0000   1.0000   1.0000   1.0000   1.0000
     1.0000   1.0000   1.0000   1.0000   1.0000   1.0000   1.0000   1.0000
     1.0000   1.0000   1.0000   1.0000   1.0000   1.0000   1.0000   1.0000
     1.0000   1.0000   1.0000   1.0000   1.0000   1.0000   1.0000   1.0000
     1.0000   1.0000   1.0000   1.0000   1.0000   1.0000   1.0000   1.0000

          k = 0.0000 0.0000 0.0561 (  5331 PWs)   bands (ev):

    -7.7478  -7.1771  -6.7409  -6.4507  -6.2172  -6.1243  -6.0798  -5.9482
     4.5217   4.5528   4.9919   5.0488   5.0578   5.1818   5.2266   5.8208
     5.8210   5.8729   5.8826   5.8827   5.9829   5.9830   6.1847   6.2081
     6.2082   6.2798   6.2994   6.4414   6.4486   6.6893   6.9008   7.1727
     8.2841   8.2841   8.4052   8.5815   8.5815   8.7058   8.7404   8.7404
     8.7550   8.8022   8.8291   8.8483   8.8483   8.9634   8.9720   9.0357
     9.2712   9.4544   9.5216   9.5880   9.7398  10.2174  10.4902  11.3556
    11.4215  12.0201  12.1648  12.4691  12.5127  12.5703  12.5705  12.7409
    12.8407  13.1382  13.1383  13.5597  13.5599  13.9904  14.1235  14.1237

     occupation numbers 
     1.0000   1.0000   1.0000   1.0000   1.0000   1.0000   1.0000   1.0000
     1.0000   1.0000   1.0000   1.0000   1.0000   1.0000   1.0000   1.0000
     1.0000   1.0000   1.0000   1.0000   1.0000   1.0000   1.0000   1.0000
     1.0000   1.0000   1.0000   1.0000   1.0000   1.0000   1.0000   1.0000
     1.0000   1.0000   1.0000   1.0000   1.0000   1.0000   1.0000   1.0000
     1.0000   1.0000   1.0000   1.0000   1.0000   1.0000   1.0000   1.0000
     1.0000   1.0000   1.0000   1.0000   1.0000   1.0000   1.0000   1.0000
     1.0000   1.0000   1.0000   1.0000   1.0000   1.0000   1.0000   1.0000
     1.0000   1.0000   1.0000   1.0000   1.0000   1.0000   1.0000   1.0000

          k = 0.0000 0.0000 0.1122 (  5283 PWs)   bands (ev):

    -7.6690  -7.3752  -6.5328  -6.4149  -6.2914  -6.2124  -6.0272  -5.9626
     4.6165   4.6649   4.9293   4.9482   4.9694   5.0959   5.4071   5.7603
     5.8244   5.8245   5.8522   5.8523   6.0471   6.0472   6.1689   6.1690
     6.2165   6.2550   6.2596   6.3448   6.5548   6.8005   6.8300   7.0890
     8.3317   8.3317   8.4901   8.4901   8.5055   8.7123   8.7335   8.7372
     8.7941   8.7941   8.8343   8.8436   8.8436   8.9205   9.0187   9.0515
     9.3203   9.4645   9.6097   9.6800   9.7971  10.4130  10.8160  10.8465
    11.0129  11.7205  12.3084  12.6242  12.6488  12.6489  12.7289  12.8077
    12.9159  12.9421  12.9423  13.6833  13.7544  13.7546  14.0453  14.0455

     occupation numbers 
     1.0000   1.0000   1.0000   1.0000   1.0000   1.0000   1.0000   1.0000
     1.0000   1.0000   1.0000   1.0000   1.0000   1.0000   1.0000   1.0000
     1.0000   1.0000   1.0000   1.0000   1.0000   1.0000   1.0000   1.0000
     1.0000   1.0000   1.0000   1.0000   1.0000   1.0000   1.0000   1.0000
     1.0000   1.0000   1.0000   1.0000   1.0000   1.0000   1.0000   1.0000
     1.0000   1.0000   1.0000   1.0000   1.0000   1.0000   1.0000   1.0000
     1.0000   1.0000   1.0000   1.0000   1.0000   1.0000   1.0000   1.0000
     1.0000   1.0000   1.0000   1.0000   1.0000   1.0000   1.0000   1.0000
     1.0000   1.0000   1.0000   1.0000   1.0000   1.0000   1.0000   1.0000

          k = 0.0000 0.0000-0.1683 (  5282 PWs)   bands (ev):

    -7.5424  -7.5424  -6.3598  -6.3598  -6.3522  -6.3522  -5.9883  -5.9883
     4.7651   4.7651   4.8085   4.8085   5.0110   5.0110   5.5952   5.5952
     5.8336   5.8336   5.8337   5.8337   6.1120   6.1120   6.1121   6.1121
     6.2448   6.2448   6.2700   6.2700   6.6763   6.6763   6.9685   6.9685
     8.4035   8.4035   8.4035   8.4035   8.6230   8.6230   8.7232   8.7232
     8.8272   8.8272   8.8272   8.8272   8.8741   8.8741   9.0465   9.0465
     9.3925   9.3925   9.6371   9.6371  10.2849  10.2849  10.6900  10.6900
    11.2488  11.2488  12.5486  12.5486  12.7475  12.7475  12.7752  12.7752
    12.7754  12.7754  13.3181  13.3181  13.9198  13.9198  13.9200  13.9200

     occupation numbers 
     1.0000   1.0000   1.0000   1.0000   1.0000   1.0000   1.0000   1.0000
     1.0000   1.0000   1.0000   1.0000   1.0000   1.0000   1.0000   1.0000
     1.0000   1.0000   1.0000   1.0000   1.0000   1.0000   1.0000   1.0000
     1.0000   1.0000   1.0000   1.0000   1.0000   1.0000   1.0000   1.0000
     1.0000   1.0000   1.0000   1.0000   1.0000   1.0000   1.0000   1.0000
     1.0000   1.0000   1.0000   1.0000   1.0000   1.0000   1.0000   1.0000
     1.0000   1.0000   1.0000   1.0000   1.0000   1.0000   1.0000   1.0000
     1.0000   1.0000   1.0000   1.0000   1.0000   1.0000   1.0000   1.0000
     1.0000   1.0000   1.0000   1.0000   1.0000   1.0000   1.0000   1.0000

          k = 0.0000 0.0962 0.0000 (  5302 PWs)   bands (ev):

    -7.7054  -6.9099  -6.9099  -6.5945  -6.2034  -6.2034  -6.0718  -5.9174
     4.5318   4.5318   4.9716   5.0410   5.0410   5.2852   5.3133   5.6937
     5.8525   5.9415   5.9415   5.9669   5.9669   5.9884   6.1621   6.2063
     6.2601   6.2688   6.3224   6.3224   6.5133   6.5133   6.9292   7.1030
     8.2297   8.2637   8.2947   8.6193   8.6647   8.6647   8.6670   8.6670
     8.7229   8.7511   8.7511   8.8210   8.8210   8.8408   8.8627   8.9761
     9.2654   9.3531   9.8517   9.8517  10.1610  10.3530  10.5608  11.8222
    11.8222  11.9606  11.9606  12.2505  12.3953  12.5137  12.5137  12.6362
    12.9815  13.1258  13.1258  13.2456  13.2456  13.7352  14.0686  14.0802

     occupation numbers 
     1.0000   1.0000   1.0000   1.0000   1.0000   1.0000   1.0000   1.0000
     1.0000   1.0000   1.0000   1.0000   1.0000   1.0000   1.0000   1.0000
     1.0000   1.0000   1.0000   1.0000   1.0000   1.0000   1.0000   1.0000
     1.0000   1.0000   1.0000   1.0000   1.0000   1.0000   1.0000   1.0000
     1.0000   1.0000   1.0000   1.0000   1.0000   1.0000   1.0000   1.0000
     1.0000   1.0000   1.0000   1.0000   1.0000   1.0000   1.0000   1.0000
     1.0000   1.0000   1.0000   1.0000   1.0000   1.0000   1.0000   1.0000
     1.0000   1.0000   1.0000   1.0000   1.0000   1.0000   1.0000   1.0000
     1.0000   1.0000   1.0000   1.0000   1.0000   1.0000   1.0000   1.0000

          k = 0.0000 0.0962 0.0561 (  5303 PWs)   bands (ev):

    -7.6792  -7.1207  -6.6961  -6.5799  -6.2963  -6.1175  -6.1007  -5.9250
     4.5436   4.5938   4.9413   4.9684   5.1701   5.2401   5.2528   5.6770
     5.8537   5.9033   5.9210   5.9657   5.9936   6.0247   6.1717   6.1957
     6.2478   6.2545   6.2616   6.4065   6.4067   6.6347   6.8822   7.0759
     8.2485   8.2802   8.3136   8.5734   8.5770   8.6234   8.7126   8.7145
     8.7396   8.7462   8.7908   8.8128   8.8489   8.8611   8.9166   8.9612
     9.2608   9.4719   9.7191   9.9629  10.1718  10.4172  10.6167  11.4333
    11.4901  12.1126  12.1378  12.2776  12.4170  12.4237  12.6803  12.7886
    12.8842  12.9442  13.0244  13.3830  13.4655  13.6373  14.0527  14.0609

     occupation numbers 
     1.0000   1.0000   1.0000   1.0000   1.0000   1.0000   1.0000   1.0000
     1.0000   1.0000   1.0000   1.0000   1.0000   1.0000   1.0000   1.0000
     1.0000   1.0000   1.0000   1.0000   1.0000   1.0000   1.0000   1.0000
     1.0000   1.0000   1.0000   1.0000   1.0000   1.0000   1.0000   1.0000
     1.0000   1.0000   1.0000   1.0000   1.0000   1.0000   1.0000   1.0000
     1.0000   1.0000   1.0000   1.0000   1.0000   1.0000   1.0000   1.0000
     1.0000   1.0000   1.0000   1.0000   1.0000   1.0000   1.0000   1.0000
     1.0000   1.0000   1.0000   1.0000   1.0000   1.0000   1.0000   1.0000
     1.0000   1.0000   1.0000   1.0000   1.0000   1.0000   1.0000   1.0000

          k = 0.0000 0.0962 0.1122 (  5287 PWs)   bands (ev):

    -7.6019  -7.3142  -6.5376  -6.4945  -6.3886  -6.1854  -6.0446  -5.9481
     4.6216   4.7230   4.8569   4.9647   5.0962   5.1347   5.3324   5.6155
     5.8580   5.8833   5.8884   5.9185   6.0536   6.0901   6.1637   6.2007
     6.2145   6.2252   6.2255   6.3182   6.5131   6.7642   6.7695   7.0004
     8.3010   8.3272   8.3794   8.4741   8.4851   8.5969   8.6358   8.6825
     8.7964   8.8049   8.8339   8.8534   8.8539   8.9246   8.9794   8.9939
     9.2756   9.5638   9.8092  10.0549  10.1688  10.5946  10.8215  10.8634
    11.1599  11.6443  12.3578  12.4207  12.5073  12.6577  12.7866  12.8145
    12.8179  12.8341  12.9088  13.4146  13.6324  13.6684  13.9713  13.9935

     occupation numbers 
     1.0000   1.0000   1.0000   1.0000   1.0000   1.0000   1.0000   1.0000
     1.0000   1.0000   1.0000   1.0000   1.0000   1.0000   1.0000   1.0000
     1.0000   1.0000   1.0000   1.0000   1.0000   1.0000   1.0000   1.0000
     1.0000   1.0000   1.0000   1.0000   1.0000   1.0000   1.0000   1.0000
     1.0000   1.0000   1.0000   1.0000   1.0000   1.0000   1.0000   1.0000
     1.0000   1.0000   1.0000   1.0000   1.0000   1.0000   1.0000   1.0000
     1.0000   1.0000   1.0000   1.0000   1.0000   1.0000   1.0000   1.0000
     1.0000   1.0000   1.0000   1.0000   1.0000   1.0000   1.0000   1.0000
     1.0000   1.0000   1.0000   1.0000   1.0000   1.0000   1.0000   1.0000

          k = 0.0000 0.0962-0.1683 (  5290 PWs)   bands (ev):

    -7.4779  -7.4779  -6.4717  -6.4717  -6.3200  -6.3200  -5.9878  -5.9878
     4.7388   4.7389   4.9016   4.9016   5.0275   5.0275   5.4939   5.4939
     5.8684   5.8684   5.8865   5.8865   6.1136   6.1136   6.1565   6.1565
     6.2143   6.2143   6.2493   6.2494   6.6376   6.6376   6.8909   6.8909
     8.3797   8.3797   8.3985   8.3985   8.4810   8.4810   8.6556   8.6556
     8.8336   8.8336   8.8410   8.8410   8.8792   8.8792   9.0367   9.0367
     9.3933   9.3933  10.1262  10.1262  10.2996  10.2996  10.8527  10.8527
    11.1855  11.1855  12.4881  12.4881  12.6415  12.6415  12.6567  12.6567
    12.8888  12.8888  13.1345  13.1345  13.8407  13.8407  13.8450  13.8450

     occupation numbers 
     1.0000   1.0000   1.0000   1.0000   1.0000   1.0000   1.0000   1.0000
     1.0000   1.0000   1.0000   1.0000   1.0000   1.0000   1.0000   1.0000
     1.0000   1.0000   1.0000   1.0000   1.0000   1.0000   1.0000   1.0000
     1.0000   1.0000   1.0000   1.0000   1.0000   1.0000   1.0000   1.0000
     1.0000   1.0000   1.0000   1.0000   1.0000   1.0000   1.0000   1.0000
     1.0000   1.0000   1.0000   1.0000   1.0000   1.0000   1.0000   1.0000
     1.0000   1.0000   1.0000   1.0000   1.0000   1.0000   1.0000   1.0000
     1.0000   1.0000   1.0000   1.0000   1.0000   1.0000   1.0000   1.0000
     1.0000   1.0000   1.0000   1.0000   1.0000   1.0000   1.0000   1.0000

          k = 0.0000 0.1925 0.0000 (  5288 PWs)   bands (ev):

    -7.5090  -6.8867  -6.7683  -6.7683  -6.3609  -6.3609  -6.0140  -5.9068
     4.6259   4.6259   4.9261   4.9261   4.9985   5.3653   5.5232   5.5527
     5.9375   5.9964   5.9964   6.0462   6.0774   6.0774   6.1199   6.1676
     6.2195   6.2195   6.2437   6.3937   6.3937   6.4040   6.7899   6.8695
     8.0298   8.1281   8.2720   8.4594   8.6271   8.6606   8.6606   8.6686
     8.6686   8.7025   8.7025   8.7262   8.7262   8.7981   8.8940   8.9567
     9.4441   9.6585  10.0669  10.4909  10.4909  10.8461  11.4439  11.5126
    11.8141  11.8141  11.9932  12.1467  12.1467  12.4957  12.4957  12.6845
    12.6845  12.9603  12.9603  13.0295  13.0551  13.2464  13.8406  13.8780

     occupation numbers 
     1.0000   1.0000   1.0000   1.0000   1.0000   1.0000   1.0000   1.0000
     1.0000   1.0000   1.0000   1.0000   1.0000   1.0000   1.0000   1.0000
     1.0000   1.0000   1.0000   1.0000   1.0000   1.0000   1.0000   1.0000
     1.0000   1.0000   1.0000   1.0000   1.0000   1.0000   1.0000   1.0000
     1.0000   1.0000   1.0000   1.0000   1.0000   1.0000   1.0000   1.0000
     1.0000   1.0000   1.0000   1.0000   1.0000   1.0000   1.0000   1.0000
     1.0000   1.0000   1.0000   1.0000   1.0000   1.0000   1.0000   1.0000
     1.0000   1.0000   1.0000   1.0000   1.0000   1.0000   1.0000   1.0000
     1.0000   1.0000   1.0000   1.0000   1.0000   1.0000   1.0000   1.0000

          k = 0.0000 0.1925 0.0561 (  5278 PWs)   bands (ev):

    -7.4843  -6.9627  -6.8681  -6.5729  -6.4921  -6.2343  -6.0395  -5.9206
     4.6316   4.6927   4.8931   4.9741   5.0200   5.3212   5.4426   5.5050
     5.9396   5.9663   6.0255   6.0374   6.0436   6.1269   6.1412   6.1629
     6.1692   6.2339   6.2938   6.3084   6.3886   6.4919   6.7394   6.8478
     8.0709   8.1535   8.2876   8.4681   8.5563   8.5729   8.5914   8.6413
     8.7192   8.7389   8.7641   8.7646   8.8310   8.8440   8.8899   8.9464
     9.5430   9.6633  10.1421  10.3071  10.6482  10.8971  11.4089  11.4103
    11.5412  11.8380  12.0161  12.0265  12.0828  12.3414  12.4436  12.7135
    12.8780  12.9893  13.0691  13.0917  13.2036  13.2108  13.8478  13.8489

     occupation numbers 
     1.0000   1.0000   1.0000   1.0000   1.0000   1.0000   1.0000   1.0000
     1.0000   1.0000   1.0000   1.0000   1.0000   1.0000   1.0000   1.0000
     1.0000   1.0000   1.0000   1.0000   1.0000   1.0000   1.0000   1.0000
     1.0000   1.0000   1.0000   1.0000   1.0000   1.0000   1.0000   1.0000
     1.0000   1.0000   1.0000   1.0000   1.0000   1.0000   1.0000   1.0000
     1.0000   1.0000   1.0000   1.0000   1.0000   1.0000   1.0000   1.0000
     1.0000   1.0000   1.0000   1.0000   1.0000   1.0000   1.0000   1.0000
     1.0000   1.0000   1.0000   1.0000   1.0000   1.0000   1.0000   1.0000
     1.0000   1.0000   1.0000   1.0000   1.0000   1.0000   1.0000   1.0000

          k = 0.0000 0.1925 0.1122 (  5279 PWs)   bands (ev):

    -7.4116  -7.1424  -6.8138  -6.6180  -6.3904  -6.1215  -6.1143  -5.9616
     4.7002   4.8279   4.9044   4.9334   5.1506   5.1945   5.2470   5.4077
     5.9469   5.9585   5.9872   6.0086   6.1003   6.1432   6.1484   6.1503
     6.2045   6.2124   6.2385   6.3459   6.3892   6.5967   6.6265   6.7874
     8.1720   8.2230   8.3321   8.4371   8.4472   8.4831   8.4933   8.5834
     8.8021   8.8223   8.8358   8.8740   8.8762   8.8882   8.9176   8.9315
     9.7278   9.8558  10.1049  10.3494  10.7409  10.8934  11.0429  11.3312
    11.5367  11.5431  11.6270  11.9684  12.1242  12.4164  12.4808  12.7116
    12.8304  13.1056  13.1122  13.1499  13.4269  13.4485  13.7588  13.8249

     occupation numbers 
     1.0000   1.0000   1.0000   1.0000   1.0000   1.0000   1.0000   1.0000
     1.0000   1.0000   1.0000   1.0000   1.0000   1.0000   1.0000   1.0000
     1.0000   1.0000   1.0000   1.0000   1.0000   1.0000   1.0000   1.0000
     1.0000   1.0000   1.0000   1.0000   1.0000   1.0000   1.0000   1.0000
     1.0000   1.0000   1.0000   1.0000   1.0000   1.0000   1.0000   1.0000
     1.0000   1.0000   1.0000   1.0000   1.0000   1.0000   1.0000   1.0000
     1.0000   1.0000   1.0000   1.0000   1.0000   1.0000   1.0000   1.0000
     1.0000   1.0000   1.0000   1.0000   1.0000   1.0000   1.0000   1.0000
     1.0000   1.0000   1.0000   1.0000   1.0000   1.0000   1.0000   1.0000

          k = 0.0000 0.1925-0.1683 (  5274 PWs)   bands (ev):

    -7.2952  -7.2952  -6.7282  -6.7282  -6.2338  -6.2338  -6.0292  -6.0292
     4.8036   4.8036   5.0217   5.0217   5.0436   5.0437   5.2880   5.2880
     5.9618   5.9618   5.9751   5.9751   6.1395   6.1395   6.1575   6.1575
     6.1853   6.1853   6.2838   6.2838   6.5026   6.5026   6.6991   6.6991
     8.3034   8.3034   8.3221   8.3221   8.3999   8.3999   8.5328   8.5328
     8.8477   8.8477   8.8747   8.8747   8.8753   8.8753   8.9634   8.9634
     9.8955   9.8955  10.3403  10.3403  10.6279  10.6279  11.2638  11.2638
    11.3021  11.3021  11.7698  11.7698  12.2794  12.2794  12.6305  12.6305
    12.9363  12.9363  13.1897  13.1897  13.6158  13.6158  13.6993  13.6993

     occupation numbers 
     1.0000   1.0000   1.0000   1.0000   1.0000   1.0000   1.0000   1.0000
     1.0000   1.0000   1.0000   1.0000   1.0000   1.0000   1.0000   1.0000
     1.0000   1.0000   1.0000   1.0000   1.0000   1.0000   1.0000   1.0000
     1.0000   1.0000   1.0000   1.0000   1.0000   1.0000   1.0000   1.0000
     1.0000   1.0000   1.0000   1.0000   1.0000   1.0000   1.0000   1.0000
     1.0000   1.0000   1.0000   1.0000   1.0000   1.0000   1.0000   1.0000
     1.0000   1.0000   1.0000   1.0000   1.0000   1.0000   1.0000   1.0000
     1.0000   1.0000   1.0000   1.0000   1.0000   1.0000   1.0000   1.0000
     1.0000   1.0000   1.0000   1.0000   1.0000   1.0000   1.0000   1.0000

          k = 0.0000-0.2887 0.0000 (  5294 PWs)   bands (ev):

    -7.2179  -7.2179  -6.5686  -6.5686  -6.5686  -6.5686  -5.9473  -5.9473
     4.7703   4.7703   4.7703   4.7703   5.1641   5.1641   5.6227   5.6227
     6.0396   6.0396   6.0651   6.0651   6.0970   6.0970   6.0970   6.0970
     6.2333   6.2333   6.2333   6.2333   6.4774   6.4774   6.6131   6.6131
     8.0110   8.0110   8.3314   8.3314   8.6695   8.6695   8.6695   8.6695
     8.6826   8.6826   8.6826   8.6826   8.7115   8.7115   8.9280   8.9280
     9.6107   9.6107  10.6434  10.6434  11.2468  11.2468  11.2468  11.2468
    11.4375  11.4375  12.2962  12.2962  12.4991  12.4991  12.4991  12.4991
    12.5626  12.5626  12.5626  12.5626  13.4729  13.4729  13.5771  13.5771

     occupation numbers 
     1.0000   1.0000   1.0000   1.0000   1.0000   1.0000   1.0000   1.0000
     1.0000   1.0000   1.0000   1.0000   1.0000   1.0000   1.0000   1.0000
     1.0000   1.0000   1.0000   1.0000   1.0000   1.0000   1.0000   1.0000
     1.0000   1.0000   1.0000   1.0000   1.0000   1.0000   1.0000   1.0000
     1.0000   1.0000   1.0000   1.0000   1.0000   1.0000   1.0000   1.0000
     1.0000   1.0000   1.0000   1.0000   1.0000   1.0000   1.0000   1.0000
     1.0000   1.0000   1.0000   1.0000   1.0000   1.0000   1.0000   1.0000
     1.0000   1.0000   1.0000   1.0000   1.0000   1.0000   1.0000   1.0000
     1.0000   1.0000   1.0000   1.0000   1.0000   1.0000   1.0000   1.0000

          k = 0.0000-0.2887 0.0561 (  5288 PWs)   bands (ev):

    -7.1958  -7.1958  -6.7358  -6.7358  -6.4030  -6.4030  -5.9674  -5.9674
     4.7694   4.7694   4.8386   4.8386   5.1400   5.1400   5.5303   5.5303
     6.0441   6.0441   6.0608   6.0608   6.0718   6.0718   6.1536   6.1536
     6.1684   6.1684   6.3097   6.3097   6.4510   6.4510   6.5958   6.5958
     8.0495   8.0495   8.3446   8.3446   8.5508   8.5508   8.5893   8.5893
     8.7445   8.7445   8.7765   8.7765   8.7959   8.7959   8.9211   8.9211
     9.6808   9.6808  10.6776  10.6776  11.0276  11.0276  11.4070  11.4070
    11.4784  11.4784  12.0021  12.0021  12.2421  12.2421  12.2841  12.2841
    12.8339  12.8339  12.9597  12.9597  13.4992  13.4992  13.5440  13.5440

     occupation numbers 
     1.0000   1.0000   1.0000   1.0000   1.0000   1.0000   1.0000   1.0000
     1.0000   1.0000   1.0000   1.0000   1.0000   1.0000   1.0000   1.0000
     1.0000   1.0000   1.0000   1.0000   1.0000   1.0000   1.0000   1.0000
     1.0000   1.0000   1.0000   1.0000   1.0000   1.0000   1.0000   1.0000
     1.0000   1.0000   1.0000   1.0000   1.0000   1.0000   1.0000   1.0000
     1.0000   1.0000   1.0000   1.0000   1.0000   1.0000   1.0000   1.0000
     1.0000   1.0000   1.0000   1.0000   1.0000   1.0000   1.0000   1.0000
     1.0000   1.0000   1.0000   1.0000   1.0000   1.0000   1.0000   1.0000
     1.0000   1.0000   1.0000   1.0000   1.0000   1.0000   1.0000   1.0000

          k = 0.0000-0.2887 0.1122 (  5264 PWs)   bands (ev):

    -7.1308  -7.1308  -6.8925  -6.8925  -6.2511  -6.2511  -6.0269  -6.0268
     4.8390   4.8390   4.9601   4.9601   5.0679   5.0679   5.3295   5.3295
     6.0475   6.0475   6.0573   6.0573   6.0689   6.0689   6.1177   6.1177
     6.2256   6.2256   6.3863   6.3863   6.3932   6.3932   6.5471   6.5471
     8.1452   8.1452   8.3818   8.3818   8.4102   8.4102   8.5104   8.5104
     8.8101   8.8101   8.8799   8.8799   8.8830   8.8830   8.8998   8.8998
     9.9288   9.9288  10.7437  10.7437  10.7817  10.7817  11.2756  11.2756
    11.5971  11.5971  11.8094  11.8094  12.0175  12.0175  12.1086  12.1086
    13.0810  13.0810  13.2981  13.2981  13.4463  13.4463  13.5318  13.5318

     occupation numbers 
     1.0000   1.0000   1.0000   1.0000   1.0000   1.0000   1.0000   1.0000
     1.0000   1.0000   1.0000   1.0000   1.0000   1.0000   1.0000   1.0000
     1.0000   1.0000   1.0000   1.0000   1.0000   1.0000   1.0000   1.0000
     1.0000   1.0000   1.0000   1.0000   1.0000   1.0000   1.0000   1.0000
     1.0000   1.0000   1.0000   1.0000   1.0000   1.0000   1.0000   1.0000
     1.0000   1.0000   1.0000   1.0000   1.0000   1.0000   1.0000   1.0000
     1.0000   1.0000   1.0000   1.0000   1.0000   1.0000   1.0000   1.0000
     1.0000   1.0000   1.0000   1.0000   1.0000   1.0000   1.0000   1.0000
     1.0000   1.0000   1.0000   1.0000   1.0000   1.0000   1.0000   1.0000

          k = 0.0000-0.2887-0.1683 (  5280 PWs)   bands (ev):

    -7.0274  -7.0274  -7.0274  -7.0274  -6.1232  -6.1232  -6.1231  -6.1231
     4.9555   4.9555   4.9555   4.9555   5.1249   5.1249   5.1249   5.1249
     6.0542   6.0542   6.0542   6.0542   6.0812   6.0812   6.0812   6.0812
     6.3061   6.3061   6.3061   6.3061   6.4758   6.4758   6.4758   6.4758
     8.2710   8.2710   8.2710   8.2710   8.4389   8.4389   8.4389   8.4389
     8.8625   8.8625   8.8625   8.8625   8.9175   8.9175   8.9175   8.9175
    10.3401  10.3401  10.3401  10.3401  10.9705  10.9705  10.9705  10.9705
    11.7822  11.7822  11.7822  11.7822  11.9444  11.9444  11.9444  11.9444
    13.2891  13.2891  13.2891  13.2891  13.4846  13.4846  13.4846  13.4846

     occupation numbers 
     1.0000   1.0000   1.0000   1.0000   1.0000   1.0000   1.0000   1.0000
     1.0000   1.0000   1.0000   1.0000   1.0000   1.0000   1.0000   1.0000
     1.0000   1.0000   1.0000   1.0000   1.0000   1.0000   1.0000   1.0000
     1.0000   1.0000   1.0000   1.0000   1.0000   1.0000   1.0000   1.0000
     1.0000   1.0000   1.0000   1.0000   1.0000   1.0000   1.0000   1.0000
     1.0000   1.0000   1.0000   1.0000   1.0000   1.0000   1.0000   1.0000
     1.0000   1.0000   1.0000   1.0000   1.0000   1.0000   1.0000   1.0000
     1.0000   1.0000   1.0000   1.0000   1.0000   1.0000   1.0000   1.0000
     1.0000   1.0000   1.0000   1.0000   1.0000   1.0000   1.0000   1.0000

          k = 0.1667 0.0962 0.0000 (  5273 PWs)   bands (ev):

    -7.5090  -6.7683  -6.7683  -6.4846  -6.1504  -6.1504  -6.0140  -5.9306
     4.7104   4.7104   4.9261   4.9261   5.1986   5.3654   5.4724   5.5528
     5.9374   5.9965   5.9965   6.0462   6.0483   6.0699   6.0699   6.0773
     6.0773   6.2438   6.2449   6.4039   6.6730   6.6730   7.0098   7.1624
     8.1281   8.2035   8.2721   8.3075   8.5935   8.5935   8.6606   8.6606
     8.6687   8.6687   8.7982   8.8940   8.9026   8.9832   9.0365   9.0365
     9.3102   9.4441   9.6188   9.8446   9.8446  10.3532  10.7073  11.1645
    11.1645  11.5127  11.8141  11.8141  11.9931  12.3063  12.5584  12.5584
    12.5695  12.6845  12.6845  12.9602  12.9602  13.0551  13.8406  13.8779

     occupation numbers 
     1.0000   1.0000   1.0000   1.0000   1.0000   1.0000   1.0000   1.0000
     1.0000   1.0000   1.0000   1.0000   1.0000   1.0000   1.0000   1.0000
     1.0000   1.0000   1.0000   1.0000   1.0000   1.0000   1.0000   1.0000
     1.0000   1.0000   1.0000   1.0000   1.0000   1.0000   1.0000   1.0000
     1.0000   1.0000   1.0000   1.0000   1.0000   1.0000   1.0000   1.0000
     1.0000   1.0000   1.0000   1.0000   1.0000   1.0000   1.0000   1.0000
     1.0000   1.0000   1.0000   1.0000   1.0000   1.0000   1.0000   1.0000
     1.0000   1.0000   1.0000   1.0000   1.0000   1.0000   1.0000   1.0000
     1.0000   1.0000   1.0000   1.0000   1.0000   1.0000   1.0000   1.0000

          k = 0.1667 0.0962 0.0561 (  5278 PWs)   bands (ev):

    -7.4843  -6.9627  -6.5729  -6.4718  -6.2275  -6.0811  -6.0395  -5.9358
     4.7349   4.7648   4.8931   5.0200   5.1676   5.3212   5.4198   5.5051
     5.9395   5.9664   6.0254   6.0374   6.0377   6.0436   6.0478   6.0918
     6.1411   6.2275   6.2339   6.3886   6.6611   6.7248   6.9595   7.1204
     8.1535   8.1957   8.2876   8.4286   8.5264   8.5564   8.5729   8.6372
     8.7388   8.7646   8.8310   8.8899   8.9335   8.9693   8.9878   9.0959
     9.3216   9.5431   9.6660   9.6939   9.9652  10.3562  10.7686  10.8474
    11.4103  11.4622  11.5413  12.0264  12.0829  12.2355  12.3107  12.3415
    12.5736  12.7134  12.7618  12.9894  13.0917  13.2035  13.8477  13.8489

     occupation numbers 
     1.0000   1.0000   1.0000   1.0000   1.0000   1.0000   1.0000   1.0000
     1.0000   1.0000   1.0000   1.0000   1.0000   1.0000   1.0000   1.0000
     1.0000   1.0000   1.0000   1.0000   1.0000   1.0000   1.0000   1.0000
     1.0000   1.0000   1.0000   1.0000   1.0000   1.0000   1.0000   1.0000
     1.0000   1.0000   1.0000   1.0000   1.0000   1.0000   1.0000   1.0000
     1.0000   1.0000   1.0000   1.0000   1.0000   1.0000   1.0000   1.0000
     1.0000   1.0000   1.0000   1.0000   1.0000   1.0000   1.0000   1.0000
     1.0000   1.0000   1.0000   1.0000   1.0000   1.0000   1.0000   1.0000
     1.0000   1.0000   1.0000   1.0000   1.0000   1.0000   1.0000   1.0000

          k = 0.1667 0.0962 0.1122 (  5279 PWs)   bands (ev):

    -7.4116  -7.1424  -6.4346  -6.3904  -6.3057  -6.1143  -6.0240  -5.9522
     4.8266   4.8937   4.9335   5.0799   5.1506   5.1945   5.2729   5.4078
     5.9468   5.9585   5.9872   6.0086   6.0207   6.0280   6.1004   6.1164
     6.1884   6.2046   6.2123   6.3458   6.6897   6.8099   6.8535   7.0266
     8.2230   8.2493   8.3321   8.4371   8.4391   8.4831   8.5814   8.6567
     8.8021   8.8359   8.8741   8.8762   8.9435   8.9547   9.0560   9.1572
     9.3152   9.5165   9.8195   9.8558  10.0429  10.3467  10.5501  10.8934
    10.9732  11.6066  11.6271  11.9626  11.9685  12.1241  12.2487  12.4164
    12.4807  12.6399  12.8184  12.8305  13.4268  13.4485  13.7587  13.8250

     occupation numbers 
     1.0000   1.0000   1.0000   1.0000   1.0000   1.0000   1.0000   1.0000
     1.0000   1.0000   1.0000   1.0000   1.0000   1.0000   1.0000   1.0000
     1.0000   1.0000   1.0000   1.0000   1.0000   1.0000   1.0000   1.0000
     1.0000   1.0000   1.0000   1.0000   1.0000   1.0000   1.0000   1.0000
     1.0000   1.0000   1.0000   1.0000   1.0000   1.0000   1.0000   1.0000
     1.0000   1.0000   1.0000   1.0000   1.0000   1.0000   1.0000   1.0000
     1.0000   1.0000   1.0000   1.0000   1.0000   1.0000   1.0000   1.0000
     1.0000   1.0000   1.0000   1.0000   1.0000   1.0000   1.0000   1.0000
     1.0000   1.0000   1.0000   1.0000   1.0000   1.0000   1.0000   1.0000

          k = 0.1667 0.0962-0.1683 (  5262 PWs)   bands (ev):

    -7.2952  -7.2952  -6.3772  -6.3772  -6.2338  -6.2338  -5.9811  -5.9811
     4.9549   4.9549   5.0437   5.0437   5.0772   5.0772   5.2880   5.2880
     5.9617   5.9617   5.9752   5.9752   6.0169   6.0169   6.1484   6.1484
     6.1576   6.1576   6.2837   6.2837   6.7557   6.7557   6.9160   6.9160
     8.3221   8.3221   8.3409   8.3409   8.3999   8.3999   8.6468   8.6468
     8.8477   8.8477   8.8753   8.8753   8.9394   8.9394   9.1856   9.1856
     9.3425   9.3425  10.0048  10.0048  10.3403  10.3403  10.3645  10.3645
    11.3033  11.3033  11.7698  11.7698  12.0895  12.0895  12.2793  12.2793
    12.6306  12.6306  12.7543  12.7543  13.6157  13.6157  13.6993  13.6993

     occupation numbers 
     1.0000   1.0000   1.0000   1.0000   1.0000   1.0000   1.0000   1.0000
     1.0000   1.0000   1.0000   1.0000   1.0000   1.0000   1.0000   1.0000
     1.0000   1.0000   1.0000   1.0000   1.0000   1.0000   1.0000   1.0000
     1.0000   1.0000   1.0000   1.0000   1.0000   1.0000   1.0000   1.0000
     1.0000   1.0000   1.0000   1.0000   1.0000   1.0000   1.0000   1.0000
     1.0000   1.0000   1.0000   1.0000   1.0000   1.0000   1.0000   1.0000
     1.0000   1.0000   1.0000   1.0000   1.0000   1.0000   1.0000   1.0000
     1.0000   1.0000   1.0000   1.0000   1.0000   1.0000   1.0000   1.0000
     1.0000   1.0000   1.0000   1.0000   1.0000   1.0000   1.0000   1.0000

          k = 0.1667 0.1925 0.0000 (  5277 PWs)   bands (ev):

    -7.3285  -6.7575  -6.6428  -6.6428  -6.2862  -6.2862  -5.9695  -5.9014
     4.7115   4.7115   4.8386   4.8386   5.1477   5.2950   5.4971   5.5396
     6.0195   6.0195   6.0239   6.0609   6.0609   6.1028   6.1188   6.2011
     6.2011   6.2292   6.3067   6.5371   6.5371   6.5455   6.7940   6.9639
     8.0205   8.0710   8.2773   8.3316   8.6402   8.6402   8.6583   8.6583
     8.6832   8.6832   8.7542   8.8029   8.8518   8.8518   8.9145   8.9648
     9.5482   9.5960  10.1075  10.2872  10.3978  10.3978  11.0221  11.2550
    11.5200  11.5260  11.5260  11.5386  11.5386  12.5168  12.5168  12.5469
    12.5469  12.6163  12.6602  12.6602  12.7874  12.8835  13.6240  13.6369

     occupation numbers 
     1.0000   1.0000   1.0000   1.0000   1.0000   1.0000   1.0000   1.0000
     1.0000   1.0000   1.0000   1.0000   1.0000   1.0000   1.0000   1.0000
     1.0000   1.0000   1.0000   1.0000   1.0000   1.0000   1.0000   1.0000
     1.0000   1.0000   1.0000   1.0000   1.0000   1.0000   1.0000   1.0000
     1.0000   1.0000   1.0000   1.0000   1.0000   1.0000   1.0000   1.0000
     1.0000   1.0000   1.0000   1.0000   1.0000   1.0000   1.0000   1.0000
     1.0000   1.0000   1.0000   1.0000   1.0000   1.0000   1.0000   1.0000
     1.0000   1.0000   1.0000   1.0000   1.0000   1.0000   1.0000   1.0000
     1.0000   1.0000   1.0000   1.0000   1.0000   1.0000   1.0000   1.0000

          k = 0.1667 0.1925 0.0561 (  5283 PWs)   bands (ev):

    -7.3053  -6.8208  -6.7405  -6.4655  -6.4019  -6.1763  -5.9917  -5.9126
     4.7366   4.7620   4.8325   4.9099   5.1218   5.2702   5.4403   5.4653
     6.0000   6.0165   6.0412   6.0521   6.0727   6.0956   6.1007   6.1689
     6.2104   6.2621   6.2980   6.5105   6.5282   6.5983   6.7423   6.9388
     8.0534   8.1001   8.2978   8.4161   8.5385   8.5498   8.5811   8.6718
     8.7433   8.7842   8.8057   8.8485   8.8490   8.9085   8.9094   8.9556
     9.5880   9.6298  10.1670  10.2090  10.3631  10.5535  11.0533  11.2214
    11.2544  11.2553  11.5565  11.7193  11.7386  12.0534  12.1958  12.3769
    12.5597  12.7589  12.8663  12.8965  12.9146  13.0139  13.6023  13.6455

     occupation numbers 
     1.0000   1.0000   1.0000   1.0000   1.0000   1.0000   1.0000   1.0000
     1.0000   1.0000   1.0000   1.0000   1.0000   1.0000   1.0000   1.0000
     1.0000   1.0000   1.0000   1.0000   1.0000   1.0000   1.0000   1.0000
     1.0000   1.0000   1.0000   1.0000   1.0000   1.0000   1.0000   1.0000
     1.0000   1.0000   1.0000   1.0000   1.0000   1.0000   1.0000   1.0000
     1.0000   1.0000   1.0000   1.0000   1.0000   1.0000   1.0000   1.0000
     1.0000   1.0000   1.0000   1.0000   1.0000   1.0000   1.0000   1.0000
     1.0000   1.0000   1.0000   1.0000   1.0000   1.0000   1.0000   1.0000
     1.0000   1.0000   1.0000   1.0000   1.0000   1.0000   1.0000   1.0000

          k = 0.1667 0.1925 0.1122 (  5286 PWs)   bands (ev):

    -7.2372  -6.9866  -6.6910  -6.5141  -6.3015  -6.0799  -6.0571  -5.9462
     4.8233   4.8873   4.9024   5.0236   5.0476   5.1874   5.2816   5.3026
     5.9976   6.0110   6.0421   6.0476   6.0675   6.0690   6.0909   6.1669
     6.1841   6.2706   6.3361   6.4807   6.5225   6.6477   6.6840   6.8717
     8.1429   8.1786   8.3486   8.4052   8.4178   8.4963   8.5397   8.6517
     8.8076   8.8644   8.8729   8.8849   8.8904   8.9321   8.9704   8.9892
     9.6179   9.9081   9.9942  10.3239  10.5823  10.6354  10.8635  11.0185
    11.1429  11.1475  11.4665  11.5667  11.6614  11.9222  12.1955  12.2492
    12.4229  12.6474  13.0033  13.0424  13.1402  13.3674  13.5043  13.6584

     occupation numbers 
     1.0000   1.0000   1.0000   1.0000   1.0000   1.0000   1.0000   1.0000
     1.0000   1.0000   1.0000   1.0000   1.0000   1.0000   1.0000   1.0000
     1.0000   1.0000   1.0000   1.0000   1.0000   1.0000   1.0000   1.0000
     1.0000   1.0000   1.0000   1.0000   1.0000   1.0000   1.0000   1.0000
     1.0000   1.0000   1.0000   1.0000   1.0000   1.0000   1.0000   1.0000
     1.0000   1.0000   1.0000   1.0000   1.0000   1.0000   1.0000   1.0000
     1.0000   1.0000   1.0000   1.0000   1.0000   1.0000   1.0000   1.0000
     1.0000   1.0000   1.0000   1.0000   1.0000   1.0000   1.0000   1.0000
     1.0000   1.0000   1.0000   1.0000   1.0000   1.0000   1.0000   1.0000

          k = 0.1667 0.1925-0.1683 (  5278 PWs)   bands (ev):

    -7.1286  -7.1286  -6.6133  -6.6133  -6.1624  -6.1624  -6.0022  -6.0022
     4.9390   4.9390   5.0393   5.0393   5.0743   5.0743   5.1546   5.1546
     6.0089   6.0089   6.0400   6.0400   6.0509   6.0509   6.1222   6.1222
     6.2278   6.2278   6.4128   6.4128   6.5700   6.5700   6.7805   6.7805
     8.2671   8.2671   8.2898   8.2898   8.4168   8.4168   8.6098   8.6098
     8.8571   8.8571   8.9027   8.9027   8.9044   8.9044   9.0318   9.0318
     9.7714   9.7714  10.3648  10.3648  10.5248  10.5248  10.8826  10.8826
    11.1203  11.1203  11.3111  11.3111  11.8157  11.8157  12.2632  12.2632
    12.4658  12.4658  13.0725  13.0725  13.3470  13.3470  13.5820  13.5820

     occupation numbers 
     1.0000   1.0000   1.0000   1.0000   1.0000   1.0000   1.0000   1.0000
     1.0000   1.0000   1.0000   1.0000   1.0000   1.0000   1.0000   1.0000
     1.0000   1.0000   1.0000   1.0000   1.0000   1.0000   1.0000   1.0000
     1.0000   1.0000   1.0000   1.0000   1.0000   1.0000   1.0000   1.0000
     1.0000   1.0000   1.0000   1.0000   1.0000   1.0000   1.0000   1.0000
     1.0000   1.0000   1.0000   1.0000   1.0000   1.0000   1.0000   1.0000
     1.0000   1.0000   1.0000   1.0000   1.0000   1.0000   1.0000   1.0000
     1.0000   1.0000   1.0000   1.0000   1.0000   1.0000   1.0000   1.0000
     1.0000   1.0000   1.0000   1.0000   1.0000   1.0000   1.0000   1.0000

          k = 0.1667 0.2887 0.0000 (  5308 PWs)   bands (ev):

    -7.0615  -7.0615  -6.4671  -6.4671  -6.4671  -6.4671  -5.9216  -5.9216
     4.7548   4.7548   4.7548   4.7548   5.1971   5.1971   5.5111   5.5111
     6.0386   6.0386   6.0386   6.0386   6.1235   6.1235   6.1781   6.1781
     6.3718   6.3718   6.3718   6.3718   6.4812   6.4812   6.7518   6.7518
     8.0242   8.0242   8.3026   8.3026   8.6563   8.6563   8.6563   8.6563
     8.7206   8.7206   8.7343   8.7343   8.7343   8.7343   8.9381   8.9381
     9.7020   9.7020  10.4730  10.4730  10.8191  10.8191  11.0174  11.0174
    11.0174  11.0174  11.9939  11.9939  12.0645  12.0645  12.0645  12.0645
    12.5415  12.5415  12.5415  12.5415  13.2403  13.2403  13.2896  13.2896

     occupation numbers 
     1.0000   1.0000   1.0000   1.0000   1.0000   1.0000   1.0000   1.0000
     1.0000   1.0000   1.0000   1.0000   1.0000   1.0000   1.0000   1.0000
     1.0000   1.0000   1.0000   1.0000   1.0000   1.0000   1.0000   1.0000
     1.0000   1.0000   1.0000   1.0000   1.0000   1.0000   1.0000   1.0000
     1.0000   1.0000   1.0000   1.0000   1.0000   1.0000   1.0000   1.0000
     1.0000   1.0000   1.0000   1.0000   1.0000   1.0000   1.0000   1.0000
     1.0000   1.0000   1.0000   1.0000   1.0000   1.0000   1.0000   1.0000
     1.0000   1.0000   1.0000   1.0000   1.0000   1.0000   1.0000   1.0000
     1.0000   1.0000   1.0000   1.0000   1.0000   1.0000   1.0000   1.0000

          k = 0.1667 0.2887 0.0561 (  5302 PWs)   bands (ev):

    -7.0409  -7.0409  -6.6182  -6.6182  -6.3191  -6.3191  -5.9388  -5.9388
     4.7783   4.7783   4.8018   4.8018   5.1747   5.1747   5.4434   5.4434
     6.0301   6.0301   6.0527   6.0528   6.1067   6.1067   6.1591   6.1591
     6.3387   6.3387   6.4341   6.4341   6.4611   6.4611   6.7315   6.7315
     8.0556   8.0556   8.3460   8.3460   8.5449   8.5449   8.6231   8.6231
     8.7724   8.7724   8.7815   8.7815   8.8196   8.8196   8.9307   8.9307
     9.7518   9.7518  10.5186  10.5186  10.8112  10.8112  10.8616  10.8616
    11.1909  11.1909  11.8216  11.8216  11.9085  11.9085  11.9465  11.9465
    12.4479  12.4479  12.9490  12.9490  13.2023  13.2023  13.3222  13.3222

     occupation numbers 
     1.0000   1.0000   1.0000   1.0000   1.0000   1.0000   1.0000   1.0000
     1.0000   1.0000   1.0000   1.0000   1.0000   1.0000   1.0000   1.0000
     1.0000   1.0000   1.0000   1.0000   1.0000   1.0000   1.0000   1.0000
     1.0000   1.0000   1.0000   1.0000   1.0000   1.0000   1.0000   1.0000
     1.0000   1.0000   1.0000   1.0000   1.0000   1.0000   1.0000   1.0000
     1.0000   1.0000   1.0000   1.0000   1.0000   1.0000   1.0000   1.0000
     1.0000   1.0000   1.0000   1.0000   1.0000   1.0000   1.0000   1.0000
     1.0000   1.0000   1.0000   1.0000   1.0000   1.0000   1.0000   1.0000
     1.0000   1.0000   1.0000   1.0000   1.0000   1.0000   1.0000   1.0000

          k = 0.1667 0.2887 0.1122 (  5288 PWs)   bands (ev):

    -6.9807  -6.9807  -6.7612  -6.7612  -6.1848  -6.1848  -5.9898  -5.9898
     4.8821   4.8821   4.8968   4.8968   5.1093   5.1093   5.2675   5.2675
     6.0378   6.0378   6.0620   6.0620   6.0808   6.0808   6.1138   6.1138
     6.3410   6.3410   6.4179   6.4179   6.5136   6.5136   6.6763   6.6763
     8.1416   8.1416   8.4029   8.4029   8.4206   8.4206   8.5568   8.5568
     8.8270   8.8270   8.9001   8.9001   8.9078   8.9078   8.9089   8.9089
     9.9401   9.9401  10.5681  10.5681  10.6615  10.6615  10.9817  10.9817
    11.2726  11.2726  11.3820  11.3820  11.6484  11.6484  11.8304  11.8304
    12.6898  12.6898  13.0913  13.0913  13.2376  13.2376  13.3776  13.3776

     occupation numbers 
     1.0000   1.0000   1.0000   1.0000   1.0000   1.0000   1.0000   1.0000
     1.0000   1.0000   1.0000   1.0000   1.0000   1.0000   1.0000   1.0000
     1.0000   1.0000   1.0000   1.0000   1.0000   1.0000   1.0000   1.0000
     1.0000   1.0000   1.0000   1.0000   1.0000   1.0000   1.0000   1.0000
     1.0000   1.0000   1.0000   1.0000   1.0000   1.0000   1.0000   1.0000
     1.0000   1.0000   1.0000   1.0000   1.0000   1.0000   1.0000   1.0000
     1.0000   1.0000   1.0000   1.0000   1.0000   1.0000   1.0000   1.0000
     1.0000   1.0000   1.0000   1.0000   1.0000   1.0000   1.0000   1.0000
     1.0000   1.0000   1.0000   1.0000   1.0000   1.0000   1.0000   1.0000

          k = 0.1667 0.2887-0.1683 (  5304 PWs)   bands (ev):

    -6.8851  -6.8851  -6.8851  -6.8851  -6.0730  -6.0730  -6.0730  -6.0730
     5.0095   5.0095   5.0095   5.0095   5.0571   5.0571   5.0571   5.0571
     6.0672   6.0672   6.0672   6.0672   6.0676   6.0676   6.0676   6.0676
     6.3726   6.3726   6.3726   6.3726   6.5987   6.5987   6.5987   6.5987
     8.2632   8.2632   8.2632   8.2632   8.4893   8.4893   8.4893   8.4893
     8.8735   8.8735   8.8735   8.8735   8.9468   8.9468   8.9468   8.9468
    10.2608  10.2608  10.2608  10.2608  10.9358  10.9358  10.9358  10.9358
    11.1517  11.1517  11.1517  11.1517  11.6972  11.6972  11.6972  11.6972
    12.9155  12.9155  12.9155  12.9155  13.3720  13.3720  13.3720  13.3720

     occupation numbers 
     1.0000   1.0000   1.0000   1.0000   1.0000   1.0000   1.0000   1.0000
     1.0000   1.0000   1.0000   1.0000   1.0000   1.0000   1.0000   1.0000
     1.0000   1.0000   1.0000   1.0000   1.0000   1.0000   1.0000   1.0000
     1.0000   1.0000   1.0000   1.0000   1.0000   1.0000   1.0000   1.0000
     1.0000   1.0000   1.0000   1.0000   1.0000   1.0000   1.0000   1.0000
     1.0000   1.0000   1.0000   1.0000   1.0000   1.0000   1.0000   1.0000
     1.0000   1.0000   1.0000   1.0000   1.0000   1.0000   1.0000   1.0000
     1.0000   1.0000   1.0000   1.0000   1.0000   1.0000   1.0000   1.0000
     1.0000   1.0000   1.0000   1.0000   1.0000   1.0000   1.0000   1.0000

          k = 0.1667 0.0000 0.0000 (  5299 PWs)   bands (ev):

    -7.5726  -6.8136  -6.8136  -6.3552  -6.1000  -6.1000  -6.0317  -5.9694
     4.7180   4.7180   4.9650   4.9650   5.2778   5.3934   5.4235   5.5332
     5.9197   5.9649   5.9649   6.0105   6.0519   6.0519   6.0575   6.0690
     6.0690   6.1930   6.2378   6.3651   6.7326   6.7326   7.0360   7.2749
     8.1691   8.2566   8.2923   8.4790   8.5581   8.5581   8.6596   8.6596
     8.6692   8.6692   8.8161   8.8689   8.8817   8.8835   9.1042   9.1809
     9.1809   9.4117   9.5757   9.5757   9.7191   9.9990  10.7930  11.0258
    11.0258  11.7802  11.8901  11.8901  12.0465  12.0628  12.4522  12.5626
    12.5626  12.8085  12.8085  13.0271  13.0271  13.2666  13.9183  13.9239

     occupation numbers 
     1.0000   1.0000   1.0000   1.0000   1.0000   1.0000   1.0000   1.0000
     1.0000   1.0000   1.0000   1.0000   1.0000   1.0000   1.0000   1.0000
     1.0000   1.0000   1.0000   1.0000   1.0000   1.0000   1.0000   1.0000
     1.0000   1.0000   1.0000   1.0000   1.0000   1.0000   1.0000   1.0000
     1.0000   1.0000   1.0000   1.0000   1.0000   1.0000   1.0000   1.0000
     1.0000   1.0000   1.0000   1.0000   1.0000   1.0000   1.0000   1.0000
     1.0000   1.0000   1.0000   1.0000   1.0000   1.0000   1.0000   1.0000
     1.0000   1.0000   1.0000   1.0000   1.0000   1.0000   1.0000   1.0000
     1.0000   1.0000   1.0000   1.0000   1.0000   1.0000   1.0000   1.0000

          k = 0.1667 0.0000 0.0561 (  5283 PWs)   bands (ev):

    -7.5474  -7.0135  -6.6121  -6.3448  -6.1552  -6.0583  -6.0532  -5.9716
     4.7539   4.7622   4.9209   5.0683   5.2451   5.3334   5.3696   5.5141
     5.9194   5.9390   5.9772   6.0058   6.0371   6.0376   6.0395   6.0981
     6.1086   6.1899   6.2222   6.3499   6.7241   6.7813   6.9970   7.2243
     8.1910   8.2744   8.3216   8.5092   8.5230   8.5617   8.5724   8.5855
     8.7386   8.7590   8.8410   8.8807   8.8832   8.8840   9.1477   9.1639
     9.2031   9.5173   9.5769   9.5946   9.7119   9.9816  10.6936  10.8910
    11.3461  11.4322  11.8083  12.0581  12.0940  12.2380  12.2860  12.4480
    12.4858  12.7019  12.7939  13.1719  13.1955  13.2612  13.8941  13.9232

     occupation numbers 
     1.0000   1.0000   1.0000   1.0000   1.0000   1.0000   1.0000   1.0000
     1.0000   1.0000   1.0000   1.0000   1.0000   1.0000   1.0000   1.0000
     1.0000   1.0000   1.0000   1.0000   1.0000   1.0000   1.0000   1.0000
     1.0000   1.0000   1.0000   1.0000   1.0000   1.0000   1.0000   1.0000
     1.0000   1.0000   1.0000   1.0000   1.0000   1.0000   1.0000   1.0000
     1.0000   1.0000   1.0000   1.0000   1.0000   1.0000   1.0000   1.0000
     1.0000   1.0000   1.0000   1.0000   1.0000   1.0000   1.0000   1.0000
     1.0000   1.0000   1.0000   1.0000   1.0000   1.0000   1.0000   1.0000
     1.0000   1.0000   1.0000   1.0000   1.0000   1.0000   1.0000   1.0000

          k = 0.1667 0.0000 0.1122 (  5271 PWs)   bands (ev):

    -7.4732  -7.1977  -6.4233  -6.3149  -6.2139  -6.1364  -6.0176  -5.9789
     4.8680   4.8712   4.9494   5.1510   5.1937   5.2060   5.2253   5.4523
     5.9221   5.9317   5.9524   5.9918   5.9984   6.0146   6.0813   6.1259
     6.1712   6.1767   6.1886   6.3074   6.7546   6.8670   6.9092   7.1091
     8.2519   8.3230   8.3797   8.4495   8.4807   8.4821   8.5653   8.6017
     8.8002   8.8267   8.8683   8.8701   8.9197   8.9348   9.0773   9.1029
     9.4079   9.5850   9.6269   9.6916   9.8394   9.9780  10.3694  10.8886
    11.1509  11.6371  11.8922  11.9146  12.0263  12.1848  12.2276  12.4371
    12.4862  12.6557  12.6996  13.0267  13.4794  13.5034  13.8061  13.8878

     occupation numbers 
     1.0000   1.0000   1.0000   1.0000   1.0000   1.0000   1.0000   1.0000
     1.0000   1.0000   1.0000   1.0000   1.0000   1.0000   1.0000   1.0000
     1.0000   1.0000   1.0000   1.0000   1.0000   1.0000   1.0000   1.0000
     1.0000   1.0000   1.0000   1.0000   1.0000   1.0000   1.0000   1.0000
     1.0000   1.0000   1.0000   1.0000   1.0000   1.0000   1.0000   1.0000
     1.0000   1.0000   1.0000   1.0000   1.0000   1.0000   1.0000   1.0000
     1.0000   1.0000   1.0000   1.0000   1.0000   1.0000   1.0000   1.0000
     1.0000   1.0000   1.0000   1.0000   1.0000   1.0000   1.0000   1.0000
     1.0000   1.0000   1.0000   1.0000   1.0000   1.0000   1.0000   1.0000

          k = 0.1667 0.0000-0.1683 (  5264 PWs)   bands (ev):

    -7.3542  -7.3542  -6.2693  -6.2693  -6.2608  -6.2608  -5.9934  -5.9934
     5.0142   5.0142   5.0391   5.0391   5.0482   5.0482   5.3447   5.3447
     5.9324   5.9324   5.9500   5.9500   5.9998   5.9998   6.1322   6.1322
     6.1550   6.1550   6.2463   6.2463   6.8195   6.8195   6.9809   6.9809
     8.3423   8.3423   8.3946   8.3946   8.4350   8.4350   8.5983   8.5983
     8.8431   8.8431   8.8656   8.8656   8.9925   8.9925   9.0170   9.0170
     9.5551   9.5551   9.6617   9.6617  10.0994  10.0994  10.3281  10.3281
    11.5131  11.5131  11.8759  11.8759  12.0316  12.0316  12.3241  12.3241
    12.5990  12.5990  12.8199  12.8199  13.6651  13.6651  13.7513  13.7513

     occupation numbers 
     1.0000   1.0000   1.0000   1.0000   1.0000   1.0000   1.0000   1.0000
     1.0000   1.0000   1.0000   1.0000   1.0000   1.0000   1.0000   1.0000
     1.0000   1.0000   1.0000   1.0000   1.0000   1.0000   1.0000   1.0000
     1.0000   1.0000   1.0000   1.0000   1.0000   1.0000   1.0000   1.0000
     1.0000   1.0000   1.0000   1.0000   1.0000   1.0000   1.0000   1.0000
     1.0000   1.0000   1.0000   1.0000   1.0000   1.0000   1.0000   1.0000
     1.0000   1.0000   1.0000   1.0000   1.0000   1.0000   1.0000   1.0000
     1.0000   1.0000   1.0000   1.0000   1.0000   1.0000   1.0000   1.0000
     1.0000   1.0000   1.0000   1.0000   1.0000   1.0000   1.0000   1.0000

          k = 0.3333 0.1925 0.0000 (  5283 PWs)   bands (ev):

    -6.8867  -6.4846  -6.3609  -6.3609  -6.1504  -6.1504  -5.9306  -5.9069
     4.6260   4.6260   4.7104   4.7104   4.9986   5.1986   5.4724   5.5233
     6.0482   6.0699   6.0699   6.1198   6.1676   6.2195   6.2195   6.2449
     6.3936   6.3936   6.6730   6.6730   6.7900   6.8694   7.0098   7.1624
     8.0298   8.2035   8.3075   8.4594   8.5936   8.5936   8.6271   8.7025
     8.7025   8.7262   8.7262   8.9026   8.9567   8.9832   9.0365   9.0365
[...]
     8.9057   8.9057   8.9308   8.9308   9.0634   9.0634   9.0659   9.0659
     9.2755   9.2755   9.4560   9.4560   9.7752   9.7752   9.8520   9.8520
    10.2528  10.2528  10.8440  10.8440  10.9211  10.9211  11.7511  11.7511
    12.1431  12.1431  12.4887  12.4887  12.7068  12.7068  12.8168  12.8168

     occupation numbers 
     1.0000   1.0000   1.0000   1.0000   1.0000   1.0000   1.0000   1.0000
     1.0000   1.0000   1.0000   1.0000   1.0000   1.0000   1.0000   1.0000
     1.0000   1.0000   1.0000   1.0000   1.0000   1.0000   1.0000   1.0000
     1.0000   1.0000   1.0000   1.0000   1.0000   1.0000   1.0000   1.0000
     1.0000   1.0000   1.0000   1.0000   1.0000   1.0000   1.0000   1.0000
     1.0000   1.0000   1.0000   1.0000   1.0000   1.0000   1.0000   1.0000
     1.0000   1.0000   1.0000   1.0000   1.0000   1.0000   1.0000   1.0000
     1.0000   1.0000   1.0000   1.0000   1.0000   1.0000   1.0000   1.0000
     1.0000   1.0000   1.0000   1.0000   1.0000   1.0000   1.0000   1.0000

          k = 0.5000-0.0962-0.0561 (  5274 PWs)   bands (ev):

    -6.4718  -6.4718  -6.2275  -6.2275  -6.0811  -6.0811  -5.9358  -5.9358
     4.7350   4.7350   4.7648   4.7648   5.1676   5.1676   5.4198   5.4198
     6.0376   6.0376   6.0478   6.0478   6.0918   6.0918   6.2275   6.2275
     6.6610   6.6610   6.7247   6.7247   6.9595   6.9595   7.1203   7.1203
     8.1957   8.1957   8.4286   8.4286   8.5264   8.5264   8.6372   8.6372
     8.9336   8.9336   8.9693   8.9693   8.9879   8.9879   9.0959   9.0959
     9.3216   9.3216   9.6660   9.6660   9.6939   9.6939   9.9652   9.9652
    10.3563  10.3563  10.7686  10.7686  10.8473  10.8473  11.4622  11.4622
    12.2355  12.2355  12.3106  12.3106  12.5735  12.5735  12.7618  12.7618

     occupation numbers 
     1.0000   1.0000   1.0000   1.0000   1.0000   1.0000   1.0000   1.0000
     1.0000   1.0000   1.0000   1.0000   1.0000   1.0000   1.0000   1.0000
     1.0000   1.0000   1.0000   1.0000   1.0000   1.0000   1.0000   1.0000
     1.0000   1.0000   1.0000   1.0000   1.0000   1.0000   1.0000   1.0000
     1.0000   1.0000   1.0000   1.0000   1.0000   1.0000   1.0000   1.0000
     1.0000   1.0000   1.0000   1.0000   1.0000   1.0000   1.0000   1.0000
     1.0000   1.0000   1.0000   1.0000   1.0000   1.0000   1.0000   1.0000
     1.0000   1.0000   1.0000   1.0000   1.0000   1.0000   1.0000   1.0000
     1.0000   1.0000   1.0000   1.0000   1.0000   1.0000   1.0000   1.0000

          k = 0.5000-0.0962-0.1122 (  5292 PWs)   bands (ev):

    -6.4346  -6.4346  -6.3057  -6.3057  -6.0240  -6.0240  -5.9522  -5.9522
     4.8267   4.8267   4.8937   4.8937   5.0800   5.0800   5.2729   5.2729
     6.0206   6.0206   6.0280   6.0280   6.1164   6.1164   6.1884   6.1884
     6.6897   6.6897   6.8098   6.8098   6.8535   6.8535   7.0265   7.0265
     8.2493   8.2493   8.4391   8.4391   8.5814   8.5814   8.6567   8.6567
     8.9435   8.9435   8.9547   8.9547   9.0561   9.0561   9.1573   9.1573
     9.3152   9.3152   9.5166   9.5166   9.8195   9.8195  10.0429  10.0429
    10.3468  10.3468  10.5500  10.5500  10.9732  10.9732  11.6066  11.6066
    11.9626  11.9626  12.2486  12.2486  12.6399  12.6399  12.8184  12.8184

     occupation numbers 
     1.0000   1.0000   1.0000   1.0000   1.0000   1.0000   1.0000   1.0000
     1.0000   1.0000   1.0000   1.0000   1.0000   1.0000   1.0000   1.0000
     1.0000   1.0000   1.0000   1.0000   1.0000   1.0000   1.0000   1.0000
     1.0000   1.0000   1.0000   1.0000   1.0000   1.0000   1.0000   1.0000
     1.0000   1.0000   1.0000   1.0000   1.0000   1.0000   1.0000   1.0000
     1.0000   1.0000   1.0000   1.0000   1.0000   1.0000   1.0000   1.0000
     1.0000   1.0000   1.0000   1.0000   1.0000   1.0000   1.0000   1.0000
     1.0000   1.0000   1.0000   1.0000   1.0000   1.0000   1.0000   1.0000
     1.0000   1.0000   1.0000   1.0000   1.0000   1.0000   1.0000   1.0000

     highest occupied level (ev):    14.1502

!    total energy              =   -1445.04839575 Ry
     estimated scf accuracy    <          3.7E-09 Ry

     The total energy is the sum of the following terms:
     one-electron contribution =    -428.70973966 Ry
     hartree contribution      =     410.13247925 Ry
     xc contribution           =    -442.44322148 Ry
     ewald contribution        =    -984.02791386 Ry

     convergence has been achieved in  18 iterations

     Forces acting on atoms (cartesian axes, Ry/au):

     atom    1 type  1   force =     0.00000000   -0.00002081   -0.15379835
     atom    2 type  1   force =     0.00000000    0.00001961   -0.15379904
     atom    3 type  2   force =     0.00000000    0.00000202    0.15379989
     atom    4 type  2   force =     0.00000000   -0.00000187    0.15379863
     atom    5 type  1   force =     0.00000000   -0.00001938   -0.15380020
     atom    6 type  1   force =     0.00000000    0.00001967   -0.15379956
     atom    7 type  2   force =     0.00000000    0.00000216    0.15379938
     atom    8 type  2   force =     0.00000000   -0.00000219    0.15379998
     atom    9 type  1   force =     0.00000000   -0.00002070   -0.15379921
     atom   10 type  1   force =     0.00000000    0.00002137   -0.15379839
     atom   11 type  2   force =     0.00000000    0.00000173    0.15379894
     atom   12 type  2   force =     0.00000000   -0.00000195    0.15379941
     atom   13 type  1   force =     0.00000000   -0.00001906   -0.15379999
     atom   14 type  1   force =     0.00000000    0.00001895   -0.15380102
     atom   15 type  2   force =     0.00000000    0.00000218    0.15379964
     atom   16 type  2   force =     0.00000000   -0.00000174    0.15379987
     The non-local contrib.  to forces
     atom    1 type  1   force =     0.00000000    0.00002722   -0.30119115
     atom    2 type  1   force =     0.00000000   -0.00002811   -0.30119177
     atom    3 type  2   force =     0.00000000    0.00014857   -0.15045903
     atom    4 type  2   force =     0.00000000   -0.00014872   -0.15046033
     atom    5 type  1   force =     0.00000000    0.00002758   -0.30119284
     atom    6 type  1   force =     0.00000000   -0.00002714   -0.30119204
     atom    7 type  2   force =     0.00000000    0.00014907   -0.15045970
     atom    8 type  2   force =     0.00000000   -0.00014882   -0.15045881
     atom    9 type  1   force =     0.00000000    0.00002766   -0.30119151
     atom   10 type  1   force =     0.00000000   -0.00002711   -0.30119173
     atom   11 type  2   force =     0.00000000    0.00014783   -0.15045916
     atom   12 type  2   force =     0.00000000   -0.00014819   -0.15045995
     atom   13 type  1   force =     0.00000000    0.00002746   -0.30119329
     atom   14 type  1   force =     0.00000000   -0.00002800   -0.30119216
     atom   15 type  2   force =     0.00000000    0.00014783   -0.15045913
     atom   16 type  2   force =     0.00000000   -0.00014809   -0.15045918
     The ionic contribution  to forces
     atom    1 type  1   force =    -0.00000000    0.00000001   -2.15847727
     atom    2 type  1   force =     0.00000000    0.00000001   -2.15847727
     atom    3 type  2   force =    -0.00000000    0.00000001    2.15847727
     atom    4 type  2   force =     0.00000000    0.00000000    2.15847727
     atom    5 type  1   force =    -0.00000000    0.00000001   -2.15847727
     atom    6 type  1   force =     0.00000000    0.00000001   -2.15847727
     atom    7 type  2   force =    -0.00000000    0.00000001    2.15847727
     atom    8 type  2   force =     0.00000000    0.00000000    2.15847727
     atom    9 type  1   force =    -0.00000001   -0.00000000   -2.15847728
     atom   10 type  1   force =     0.00000001   -0.00000002   -2.15847727
     atom   11 type  2   force =    -0.00000001    0.00000000    2.15847728
     atom   12 type  2   force =     0.00000001   -0.00000001    2.15847727
     atom   13 type  1   force =    -0.00000001   -0.00000000   -2.15847728
     atom   14 type  1   force =     0.00000001   -0.00000002   -2.15847727
     atom   15 type  2   force =    -0.00000001    0.00000000    2.15847728
     atom   16 type  2   force =     0.00000001   -0.00000001    2.15847727
     The local contribution  to forces
     atom    1 type  1   force =    -0.00000007   -0.00004708    2.27262673
     atom    2 type  1   force =     0.00000000    0.00004916    2.27262798
     atom    3 type  2   force =    -0.00000002   -0.00014370   -1.85475054
     atom    4 type  2   force =     0.00000000    0.00014431   -1.85475230
     atom    5 type  1   force =    -0.00000007   -0.00004830    2.27263100
     atom    6 type  1   force =     0.00000000    0.00004731    2.27262913
     atom    7 type  2   force =    -0.00000002   -0.00014377   -1.85475241
     atom    8 type  2   force =    -0.00000000    0.00014373   -1.85474925
     atom    9 type  1   force =    -0.00000007   -0.00004836    2.27262709
     atom   10 type  1   force =     0.00000007    0.00004665    2.27262778
     atom   11 type  2   force =    -0.00000002   -0.00014201   -1.85475278
     atom   12 type  2   force =     0.00000002    0.00014247   -1.85475166
     atom   13 type  1   force =    -0.00000007   -0.00004834    2.27263153
     atom   14 type  1   force =     0.00000007    0.00004951    2.27262957
     atom   15 type  2   force =    -0.00000002   -0.00014372   -1.85475128
     atom   16 type  2   force =     0.00000002    0.00014510   -1.85474899
     The core correction contribution to forces
     atom    1 type  1   force =    -0.00000001    0.00000178    0.03325082
     atom    2 type  1   force =    -0.00000000   -0.00000178    0.03325084
     atom    3 type  2   force =     0.00000000   -0.00000166    0.00053273
     atom    4 type  2   force =     0.00000000    0.00000167    0.00053274
     atom    5 type  1   force =    -0.00000001    0.00000177    0.03325081
     atom    6 type  1   force =    -0.00000000   -0.00000176    0.03325081
     atom    7 type  2   force =     0.00000000   -0.00000167    0.00053273
     atom    8 type  2   force =     0.00000000    0.00000167    0.00053273
     atom    9 type  1   force =    -0.00000001    0.00000180    0.03325086
     atom   10 type  1   force =     0.00000001   -0.00000179    0.03325083
     atom   11 type  2   force =     0.00000000   -0.00000165    0.00053272
     atom   12 type  2   force =    -0.00000000    0.00000166    0.00053274
     atom   13 type  1   force =    -0.00000001    0.00000177    0.03325080
     atom   14 type  1   force =     0.00000001   -0.00000177    0.03325084
     atom   15 type  2   force =     0.00000000   -0.00000165    0.00053273
     atom   16 type  2   force =    -0.00000000    0.00000166    0.00053273
     The Hubbard contrib.    to forces
     atom    1 type  1   force =     0.00000000    0.00000000    0.00000000
     atom    2 type  1   force =     0.00000000    0.00000000    0.00000000
     atom    3 type  2   force =     0.00000000    0.00000000    0.00000000
     atom    4 type  2   force =     0.00000000    0.00000000    0.00000000
     atom    5 type  1   force =     0.00000000    0.00000000    0.00000000
     atom    6 type  1   force =     0.00000000    0.00000000    0.00000000
     atom    7 type  2   force =     0.00000000    0.00000000    0.00000000
     atom    8 type  2   force =     0.00000000    0.00000000    0.00000000
     atom    9 type  1   force =     0.00000000    0.00000000    0.00000000
     atom   10 type  1   force =     0.00000000    0.00000000    0.00000000
     atom   11 type  2   force =     0.00000000    0.00000000    0.00000000
     atom   12 type  2   force =     0.00000000    0.00000000    0.00000000
     atom   13 type  1   force =     0.00000000    0.00000000    0.00000000
     atom   14 type  1   force =     0.00000000    0.00000000    0.00000000
     atom   15 type  2   force =     0.00000000    0.00000000    0.00000000
     atom   16 type  2   force =     0.00000000    0.00000000    0.00000000
     The SCF correction term to forces
     atom    1 type  1   force =     0.00000000   -0.00000285   -0.00000782
     atom    2 type  1   force =    -0.00000000    0.00000024   -0.00000915
     atom    3 type  2   force =     0.00000000   -0.00000129   -0.00000087
     atom    4 type  2   force =    -0.00000000    0.00000078    0.00000091
     atom    5 type  1   force =     0.00000000   -0.00000053   -0.00001222
     atom    6 type  1   force =    -0.00000000    0.00000116   -0.00001052
     atom    7 type  2   force =     0.00000000   -0.00000157    0.00000116
     atom    8 type  2   force =    -0.00000000    0.00000114   -0.00000229
     atom    9 type  1   force =     0.00000000   -0.00000191   -0.00000871
     atom   10 type  1   force =    -0.00000000    0.00000356   -0.00000833
     atom   11 type  2   force =     0.00000000   -0.00000253    0.00000054
     atom   12 type  2   force =    -0.00000000    0.00000203    0.00000067
     atom   13 type  1   force =     0.00000000   -0.00000004   -0.00001209
     atom   14 type  1   force =    -0.00000000   -0.00000086   -0.00001233
     atom   15 type  2   force =     0.00000000   -0.00000037   -0.00000029
     atom   16 type  2   force =    -0.00000000   -0.00000049   -0.00000230

     Total force =     0.615198     Total SCF correction =     0.000030

     init_run     :      7.82s CPU      8.08s WALL (       1 calls)
     electrons    :    309.29s CPU    319.20s WALL (       1 calls)
     forces       :      3.04s CPU      3.09s WALL (       1 calls)

     Called by init_run:
     wfcinit      :      4.14s CPU      4.31s WALL (       1 calls)
     wfcinit:atom :      0.02s CPU      0.03s WALL (      10 calls)
     wfcinit:wfcr :      3.87s CPU      4.03s WALL (      10 calls)
     potinit      :      1.05s CPU      1.08s WALL (       1 calls)
     hinit0       :      2.38s CPU      2.40s WALL (       1 calls)

     Called by electrons:
     c_bands      :    284.93s CPU    293.50s WALL (      18 calls)
     sum_band     :     20.79s CPU     21.89s WALL (      18 calls)
     v_of_rho     :      2.13s CPU      2.26s WALL (      19 calls)
     v_h          :      0.11s CPU      0.13s WALL (      19 calls)
     v_xc         :      2.12s CPU      2.24s WALL (      20 calls)
     newd         :      1.11s CPU      1.15s WALL (      19 calls)
     mix_rho      :      0.28s CPU      0.30s WALL (      18 calls)

     Called by c_bands:
     init_us_2    :      1.21s CPU      1.22s WALL (     380 calls)
     init_us_2:cp :      1.20s CPU      1.22s WALL (     380 calls)
     cegterg      :    249.83s CPU    258.28s WALL (     180 calls)

     Called by sum_band:
     sum_band:wei :      0.01s CPU      0.01s WALL (      18 calls)
     sum_band:loo :     18.18s CPU     19.16s WALL (      18 calls)
     sum_band:buf :      0.13s CPU      0.15s WALL (     180 calls)
     sum_band:ini :      0.51s CPU      0.51s WALL (     180 calls)
     sum_band:cal :      4.61s CPU      4.67s WALL (     180 calls)
     sum_band:bec :      0.07s CPU      0.07s WALL (     180 calls)
     addusdens    :      0.98s CPU      1.03s WALL (      18 calls)
     addusd:skk   :      0.01s CPU      0.01s WALL (      36 calls)
     addusd:dgemm :      0.25s CPU      0.28s WALL (      36 calls)
     addusd:qvan2 :      0.54s CPU      0.55s WALL (      36 calls)

     Called by *egterg:
     cdiaghg      :     27.32s CPU     28.00s WALL (    1316 calls)
     cegterg:over :     23.14s CPU     23.29s WALL (    1136 calls)
     cegterg:upda :     13.02s CPU     13.13s WALL (    1136 calls)
     cegterg:last :     27.92s CPU     28.13s WALL (     675 calls)
     cdiaghg:chol :      1.51s CPU      1.53s WALL (    1316 calls)
     cdiaghg:inve :      0.42s CPU      0.42s WALL (    1316 calls)
     cdiaghg:para :      4.23s CPU      4.78s WALL (    2632 calls)
     h_psi        :    139.05s CPU    146.39s WALL (    1326 calls)
     s_psi        :     16.87s CPU     16.91s WALL (    1326 calls)
     g_psi        :      0.64s CPU      0.65s WALL (    1136 calls)

     Called by h_psi:
     h_psi:calbec :     20.16s CPU     20.48s WALL (    1326 calls)
     vloc_psi     :    101.31s CPU    108.30s WALL (    1326 calls)
     add_vuspsi   :     17.09s CPU     17.13s WALL (    1326 calls)

     General routines
     calbec       :     25.87s CPU     26.27s WALL (    1546 calls)
     fft          :      1.65s CPU      1.80s WALL (     256 calls)
     ffts         :      0.16s CPU      0.17s WALL (      37 calls)
     fftw         :    102.10s CPU    109.26s WALL (  114452 calls)
     interpolate  :      0.21s CPU      0.23s WALL (      19 calls)

     Parallel routines

     PWSCF        :   5m20.72s CPU   5m30.97s WALL


   This run was terminated on:  18:47:28  28Aug2025            

=------------------------------------------------------------------------------=
   JOB DONE.
=------------------------------------------------------------------------------=
Note: The following floating-point exceptions are signalling: IEEE_UNDERFLOW_FLAG IEEE_DENORMAL
Note: The following floating-point exceptions are signalling: IEEE_UNDERFLOW_FLAG IEEE_DENORMAL
Note: The following floating-point exceptions are signalling: IEEE_UNDERFLOW_FLAG IEEE_DENORMAL
Note: The following floating-point exceptions are signalling: IEEE_UNDERFLOW_FLAG IEEE_DENORMAL
Note: The following floating-point exceptions are signalling: IEEE_UNDERFLOW_FLAG IEEE_DENORMAL
Note: The following floating-point exceptions are signalling: IEEE_UNDERFLOW_FLAG IEEE_DENORMAL
Note: The following floating-point exceptions are signalling: IEEE_UNDERFLOW_FLAG IEEE_DENORMAL
Note: The following floating-point exceptions are signalling: IEEE_UNDERFLOW_FLAG IEEE_DENORMAL
Note: The following floating-point exceptions are signalling: IEEE_UNDERFLOW_FLAG IEEE_DENORMAL
Note: The following floating-point exceptions are signalling: IEEE_UNDERFLOW_FLAG IEEE_DENORMAL
Note: The following floating-point exceptions are signalling: IEEE_UNDERFLOW_FLAG IEEE_DENORMAL
Note: The following floating-point exceptions are signalling: IEEE_UNDERFLOW_FLAG IEEE_DENORMAL
Note: The following floating-point exceptions are signalling: IEEE_UNDERFLOW_FLAG IEEE_DENORMAL
Note: The following floating-point exceptions are signalling: IEEE_UNDERFLOW_FLAG IEEE_DENORMAL
Note: The following floating-point exceptions are signalling: IEEE_UNDERFLOW_FLAG IEEE_DENORMAL
Note: The following floating-point exceptions are signalling: IEEE_UNDERFLOW_FLAG IEEE_DENORMAL
Note: The following floating-point exceptions are signalling: IEEE_UNDERFLOW_FLAG IEEE_DENORMAL
Note: The following floating-point exceptions are signalling: IEEE_UNDERFLOW_FLAG IEEE_DENORMAL
Note: The following floating-point exceptions are signalling: IEEE_UNDERFLOW_FLAG IEEE_DENORMAL
Note: The following floating-point exceptions are signalling: IEEE_UNDERFLOW_FLAG IEEE_DENORMAL
Note: The following floating-point exceptions are signalling: IEEE_UNDERFLOW_FLAG IEEE_DENORMAL
Note: The following floating-point exceptions are signalling: IEEE_UNDERFLOW_FLAG IEEE_DENORMAL
Note: The following floating-point exceptions are signalling: IEEE_UNDERFLOW_FLAG IEEE_DENORMAL
Note: The following floating-point exceptions are signalling: IEEE_UNDERFLOW_FLAG IEEE_DENORMAL
Note: The following floating-point exceptions are signalling: IEEE_UNDERFLOW_FLAG IEEE_DENORMAL
Note: The following floating-point exceptions are signalling: IEEE_UNDERFLOW_FLAG IEEE_DENORMAL
Note: The following floating-point exceptions are signalling: IEEE_UNDERFLOW_FLAG IEEE_DENORMAL
Note: The following floating-point exceptions are signalling: IEEE_UNDERFLOW_FLAG IEEE_DENORMAL
Note: The following floating-point exceptions are signalling: IEEE_UNDERFLOW_FLAG IEEE_DENORMAL
Note: The following floating-point exceptions are signalling: IEEE_UNDERFLOW_FLAG IEEE_DENORMAL
Note: The following floating-point exceptions are signalling: IEEE_UNDERFLOW_FLAG IEEE_DENORMAL
Note: The following floating-point exceptions are signalling: IEEE_UNDERFLOW_FLAG IEEE_DENORMAL
