
     Program PWSCF v.7.0 starts on 29Aug2025 at  9:29:26 

     This program is part of the open-source Quantum ESPRESSO suite
     for quantum simulation of materials; please cite
         "P. Giannozzi et al., J. Phys.:Condens. Matter 21 395502 (2009);
         "P. Giannozzi et al., J. Phys.:Condens. Matter 29 465901 (2017);
         "P. Giannozzi et al., J. Chem. Phys. 152 154105 (2020);
          URL http://www.quantum-espresso.org", 
     in publications or presentations arising from this work. More details at
     http://www.quantum-espresso.org/quote

     Parallel version (MPI & OpenMP), running on      32 processor cores
     Number of MPI processes:                32
     Threads/MPI process:                     1

     MPI processes distributed on     1 nodes
     K-points division:     npool     =       8
     R & G space division:  proc/nbgrp/npool/nimage =       4
     104891 MiB available memory on the printing compute node when the environment starts

     Reading input from /home/jvc/QEspresso7.2/ZnO_database/scripts/cell122.in/ZnO-3.40-1.58-122.in
Warning: card &CELL ignored
Warning: card / ignored
Warning: card &FCP ignored
Warning: card / ignored
Warning: card &RISM ignored
Warning: card / ignored

     Current dimensions of program PWSCF are:
     Max number of different atomic species (ntypx) = 10
     Max number of k-points (npk) =  40000
     Max angular momentum in pseudopotentials (lmaxx) =  4
     file Zn.upf: wavefunction(s)  3D renormalized
     Found identity + (  0.0000  0.0000 -0.5000) symmetry
     This is a supercell, fractional translations are disabled
     Message from routine setup:
     using ibrav=0 with symmetry is DISCOURAGED, use correct ibrav instead

     Subspace diagonalization in iterative solution of the eigenvalue problem:
     one sub-group per band group will be used
     scalapack distributed-memory algorithm (size of sub-group:  2*  2 procs)


     Parallelization info
     --------------------
     sticks:   dense  smooth     PW     G-vecs:    dense   smooth      PW
     Min         569     283     85                49121    17337    2935
     Max         570     284     86                49126    17342    2938
     Sum        2279    1135    343               196495    69361   11745

     Using Slab Decomposition



     bravais-lattice index     =            0
     lattice parameter (alat)  =       6.4260  a.u.
     unit-cell volume          =    1454.2546 (a.u.)^3
     number of atoms/cell      =           16
     number of atomic types    =            2
     number of electrons       =       144.00
     number of Kohn-Sham states=           72
     kinetic-energy cutoff     =      50.0000  Ry
     charge density cutoff     =     400.0000  Ry
     scf convergence threshold =      1.0E-08
     mixing beta               =       0.3000
     number of iterations used =            8  plain     mixing
     Exchange-correlation= PBE
                           (   1   4   3   4   0   0   0)

     celldm(1)=   6.426008  celldm(2)=   0.000000  celldm(3)=   0.000000
     celldm(4)=   0.000000  celldm(5)=   0.000000  celldm(6)=   0.000000

     crystal axes: (cart. coord. in units of alat)
               a(1) = (   1.000000   0.000000   0.000000 )  
               a(2) = (  -1.000000   1.732051   0.000000 )  
               a(3) = (   0.000000   0.000000   3.164142 )  

     reciprocal axes: (cart. coord. in units 2 pi/alat)
               b(1) = (  1.000000  0.577350 -0.000000 )  
               b(2) = (  0.000000  0.577350  0.000000 )  
               b(3) = (  0.000000 -0.000000  0.316041 )  


     PseudoPot. # 1 for Zn read from file:
     /home/jvc/QEspresso7.2/ZnO_database/pseudos/Zn.upf
     MD5 check sum: 7f56cabf9682ed8c977c2f7d0c5985c5
     Pseudo is Ultrasoft + core correction, Zval = 12.0
     Generated using &quot;atomic&quot; code by A. Dal Corso  v.6.2.2
     Using radial grid of 1201 points,  6 beta functions with: 
                l(1) =   0
                l(2) =   0
                l(3) =   1
                l(4) =   1
                l(5) =   2
                l(6) =   2
     Q(r) pseudized with 0 coefficients 


     PseudoPot. # 2 for O  read from file:
     /home/jvc/QEspresso7.2/ZnO_database/pseudos/O.upf
     MD5 check sum: 91400c9766925bcf19f520983a725ff0
     Pseudo is Ultrasoft + core correction, Zval =  6.0
     Generated using &quot;atomic&quot; code by A. Dal Corso  v.6.3MaX
     Using radial grid of 1095 points,  4 beta functions with: 
                l(1) =   0
                l(2) =   0
                l(3) =   1
                l(4) =   1
     Q(r) pseudized with 0 coefficients 


     atomic species   valence    mass     pseudopotential
        Zn            12.00    65.38000     Zn( 1.00)
        O              6.00    15.99900     O ( 1.00)

      2 Sym. Ops. (no inversion) found


                                    s                        frac. trans.

      isym =  1     identity                                     

 cryst.   s( 1) = (     1          0          0      )
                  (     0          1          0      )
                  (     0          0          1      )

 cart.    s( 1) = (  1.0000000  0.0000000  0.0000000 )
                  (  0.0000000  1.0000000  0.0000000 )
                  (  0.0000000  0.0000000  1.0000000 )


      isym =  2     inv. 180 deg rotation - cart. axis [1,0,0]   

 cryst.   s( 2) = (    -1          0          0      )
                  (     2          1          0      )
                  (     0          0          1      )

 cart.    s( 2) = ( -1.0000000  0.0000000  0.0000000 )
                  (  0.0000000  1.0000000  0.0000000 )
                  (  0.0000000  0.0000000  1.0000000 )


   Cartesian axes

     site n.     atom                  positions (alat units)
         1           Zn  tau(   1) = (   0.5000000   0.2886751   0.7920380  )
         2           Zn  tau(   2) = (   0.0000000   0.5773503   0.0010024  )
         3           O   tau(   3) = (   0.5000000   0.2886751   1.3917107  )
         4           O   tau(   4) = (   0.0000000   0.5773503   0.6006751  )
         5           Zn  tau(   5) = (   0.5000000   0.2886751   2.3741092  )
         6           Zn  tau(   6) = (   0.0000000   0.5773503   1.5830736  )
         7           O   tau(   7) = (   0.5000000   0.2886751   2.9737819  )
         8           O   tau(   8) = (   0.0000000   0.5773503   2.1827463  )
         9           Zn  tau(   9) = (   0.0000000   1.1547005   0.7920380  )
        10           Zn  tau(  10) = (  -0.5000000   1.4433757   0.0010024  )
        11           O   tau(  11) = (   0.0000000   1.1547005   1.3917107  )
        12           O   tau(  12) = (  -0.5000000   1.4433757   0.6006751  )
        13           Zn  tau(  13) = (   0.0000000   1.1547005   2.3741092  )
        14           Zn  tau(  14) = (  -0.5000000   1.4433757   1.5830736  )
        15           O   tau(  15) = (   0.0000000   1.1547005   2.9737819  )
        16           O   tau(  16) = (  -0.5000000   1.4433757   2.1827463  )

   Crystallographic axes

     site n.     atom                  positions (cryst. coord.)
         1           Zn  tau(   1) = (  0.6666667  0.1666667  0.2503168  )
         2           Zn  tau(   2) = (  0.3333333  0.3333333  0.0003168  )
         3           O   tau(   3) = (  0.6666667  0.1666667  0.4398382  )
         4           O   tau(   4) = (  0.3333333  0.3333333  0.1898382  )
         5           Zn  tau(   5) = (  0.6666667  0.1666667  0.7503168  )
         6           Zn  tau(   6) = (  0.3333333  0.3333333  0.5003168  )
         7           O   tau(   7) = (  0.6666667  0.1666667  0.9398382  )
         8           O   tau(   8) = (  0.3333333  0.3333333  0.6898382  )
         9           Zn  tau(   9) = (  0.6666667  0.6666667  0.2503168  )
        10           Zn  tau(  10) = (  0.3333333  0.8333333  0.0003168  )
        11           O   tau(  11) = (  0.6666667  0.6666667  0.4398382  )
        12           O   tau(  12) = (  0.3333333  0.8333333  0.1898382  )
        13           Zn  tau(  13) = (  0.6666667  0.6666667  0.7503168  )
        14           Zn  tau(  14) = (  0.3333333  0.8333333  0.5003168  )
        15           O   tau(  15) = (  0.6666667  0.6666667  0.9398382  )
        16           O   tau(  16) = (  0.3333333  0.8333333  0.6898382  )

     number of k points=    80
                       cart. coord. in units 2pi/alat
        k(    1) = (   0.0000000   0.0000000   0.0000000), wk =   0.0092593
        k(    2) = (   0.0000000   0.0000000   0.0526736), wk =   0.0185185
        k(    3) = (   0.0000000   0.0000000   0.1053471), wk =   0.0185185
        k(    4) = (   0.0000000   0.0000000  -0.1580207), wk =   0.0092593
        k(    5) = (   0.0000000   0.0962250   0.0000000), wk =   0.0185185
        k(    6) = (   0.0000000   0.0962250   0.0526736), wk =   0.0185185
        k(    7) = (   0.0000000   0.0962250   0.1053471), wk =   0.0185185
        k(    8) = (   0.0000000   0.0962250  -0.1580207), wk =   0.0185185
        k(    9) = (   0.0000000   0.1924501   0.0000000), wk =   0.0185185
        k(   10) = (   0.0000000   0.1924501   0.0526736), wk =   0.0185185
        k(   11) = (   0.0000000   0.1924501   0.1053471), wk =   0.0185185
        k(   12) = (   0.0000000   0.1924501  -0.1580207), wk =   0.0185185
        k(   13) = (   0.0000000  -0.2886751   0.0000000), wk =   0.0092593
        k(   14) = (   0.0000000  -0.2886751   0.0526736), wk =   0.0185185
        k(   15) = (   0.0000000  -0.2886751   0.1053471), wk =   0.0185185
        k(   16) = (   0.0000000  -0.2886751  -0.1580207), wk =   0.0092593
        k(   17) = (   0.1666667   0.0962250   0.0000000), wk =   0.0370370
        k(   18) = (   0.1666667   0.0962250   0.0526736), wk =   0.0370370
        k(   19) = (   0.1666667   0.0962250   0.1053471), wk =   0.0370370
        k(   20) = (   0.1666667   0.0962250  -0.1580207), wk =   0.0370370
        k(   21) = (   0.1666667   0.1924501   0.0000000), wk =   0.0370370
        k(   22) = (   0.1666667   0.1924501   0.0526736), wk =   0.0370370
        k(   23) = (   0.1666667   0.1924501   0.1053471), wk =   0.0370370
        k(   24) = (   0.1666667   0.1924501  -0.1580207), wk =   0.0370370
        k(   25) = (   0.1666667   0.2886751   0.0000000), wk =   0.0185185
        k(   26) = (   0.1666667   0.2886751   0.0526736), wk =   0.0370370
        k(   27) = (   0.1666667   0.2886751   0.1053471), wk =   0.0370370
        k(   28) = (   0.1666667   0.2886751  -0.1580207), wk =   0.0185185
        k(   29) = (   0.1666667   0.0000000   0.0000000), wk =   0.0185185
        k(   30) = (   0.1666667   0.0000000   0.0526736), wk =   0.0370370
        k(   31) = (   0.1666667   0.0000000   0.1053471), wk =   0.0370370
        k(   32) = (   0.1666667   0.0000000  -0.1580207), wk =   0.0185185
        k(   33) = (   0.3333333   0.1924501   0.0000000), wk =   0.0370370
        k(   34) = (   0.3333333   0.1924501   0.0526736), wk =   0.0370370
        k(   35) = (   0.3333333   0.1924501   0.1053471), wk =   0.0370370
        k(   36) = (   0.3333333   0.1924501  -0.1580207), wk =   0.0370370
        k(   37) = (   0.3333333   0.2886751   0.0000000), wk =   0.0185185
        k(   38) = (   0.3333333   0.2886751   0.0526736), wk =   0.0370370
        k(   39) = (   0.3333333   0.2886751   0.1053471), wk =   0.0370370
        k(   40) = (   0.3333333   0.2886751  -0.1580207), wk =   0.0185185
        k(   41) = (   0.3333333  -0.0962250   0.0000000), wk =   0.0370370
        k(   42) = (   0.3333333  -0.0962250   0.0526736), wk =   0.0370370
        k(   43) = (   0.3333333  -0.0962250   0.1053471), wk =   0.0370370
        k(   44) = (   0.3333333  -0.0962250  -0.1580207), wk =   0.0370370
        k(   45) = (   0.3333333  -0.0000000   0.0000000), wk =   0.0185185
        k(   46) = (   0.3333333  -0.0000000   0.0526736), wk =   0.0370370
        k(   47) = (   0.3333333  -0.0000000   0.1053471), wk =   0.0370370
        k(   48) = (   0.3333333  -0.0000000  -0.1580207), wk =   0.0185185
        k(   49) = (  -0.5000000  -0.2886751   0.0000000), wk =   0.0092593
        k(   50) = (  -0.5000000  -0.2886751   0.0526736), wk =   0.0185185
        k(   51) = (  -0.5000000  -0.2886751   0.1053471), wk =   0.0185185
        k(   52) = (  -0.5000000  -0.2886751  -0.1580207), wk =   0.0092593
        k(   53) = (  -0.5000000  -0.1924501   0.0000000), wk =   0.0185185
        k(   54) = (  -0.5000000  -0.1924501   0.0526736), wk =   0.0185185
        k(   55) = (  -0.5000000  -0.1924501   0.1053471), wk =   0.0185185
        k(   56) = (  -0.5000000  -0.1924501  -0.1580207), wk =   0.0185185
        k(   57) = (  -0.5000000  -0.0962250   0.0000000), wk =   0.0185185
        k(   58) = (  -0.5000000  -0.0962250   0.0526736), wk =   0.0185185
        k(   59) = (  -0.5000000  -0.0962250   0.1053471), wk =   0.0185185
        k(   60) = (  -0.5000000  -0.0962250  -0.1580207), wk =   0.0185185
        k(   61) = (  -0.5000000  -0.5773503   0.0000000), wk =   0.0092593
        k(   62) = (  -0.5000000  -0.5773503   0.0526736), wk =   0.0185185
        k(   63) = (  -0.5000000  -0.5773503   0.1053471), wk =   0.0185185
        k(   64) = (  -0.5000000  -0.5773503  -0.1580207), wk =   0.0092593
        k(   65) = (   0.0000000   0.0962250  -0.0526736), wk =   0.0185185
        k(   66) = (   0.0000000   0.0962250  -0.1053471), wk =   0.0185185
        k(   67) = (   0.0000000   0.1924501  -0.0526736), wk =   0.0185185
        k(   68) = (   0.0000000   0.1924501  -0.1053471), wk =   0.0185185
        k(   69) = (  -0.1666667   0.0962250  -0.0526736), wk =   0.0370370
        k(   70) = (  -0.1666667   0.0962250  -0.1053471), wk =   0.0370370
        k(   71) = (  -0.1666667   0.1924501  -0.0526736), wk =   0.0370370
        k(   72) = (  -0.1666667   0.1924501  -0.1053471), wk =   0.0370370
        k(   73) = (  -0.3333333   0.1924501  -0.0526736), wk =   0.0370370
        k(   74) = (  -0.3333333   0.1924501  -0.1053471), wk =   0.0370370
        k(   75) = (  -0.3333333  -0.0962250  -0.0526736), wk =   0.0370370
        k(   76) = (  -0.3333333  -0.0962250  -0.1053471), wk =   0.0370370
        k(   77) = (   0.5000000  -0.1924501  -0.0526736), wk =   0.0185185
        k(   78) = (   0.5000000  -0.1924501  -0.1053471), wk =   0.0185185
        k(   79) = (   0.5000000  -0.0962250  -0.0526736), wk =   0.0185185
        k(   80) = (   0.5000000  -0.0962250  -0.1053471), wk =   0.0185185

                       cryst. coord.
        k(    1) = (   0.0000000   0.0000000   0.0000000), wk =   0.0092593
        k(    2) = (   0.0000000   0.0000000   0.1666667), wk =   0.0185185
        k(    3) = (   0.0000000   0.0000000   0.3333333), wk =   0.0185185
        k(    4) = (   0.0000000   0.0000000  -0.5000000), wk =   0.0092593
        k(    5) = (   0.0000000   0.1666667   0.0000000), wk =   0.0185185
        k(    6) = (   0.0000000   0.1666667   0.1666667), wk =   0.0185185
        k(    7) = (   0.0000000   0.1666667   0.3333333), wk =   0.0185185
        k(    8) = (   0.0000000   0.1666667  -0.5000000), wk =   0.0185185
        k(    9) = (   0.0000000   0.3333333   0.0000000), wk =   0.0185185
        k(   10) = (   0.0000000   0.3333333   0.1666667), wk =   0.0185185
        k(   11) = (   0.0000000   0.3333333   0.3333333), wk =   0.0185185
        k(   12) = (   0.0000000   0.3333333  -0.5000000), wk =   0.0185185
        k(   13) = (   0.0000000  -0.5000000   0.0000000), wk =   0.0092593
        k(   14) = (   0.0000000  -0.5000000   0.1666667), wk =   0.0185185
        k(   15) = (   0.0000000  -0.5000000   0.3333333), wk =   0.0185185
        k(   16) = (   0.0000000  -0.5000000  -0.5000000), wk =   0.0092593
        k(   17) = (   0.1666667   0.0000000   0.0000000), wk =   0.0370370
        k(   18) = (   0.1666667   0.0000000   0.1666667), wk =   0.0370370
        k(   19) = (   0.1666667   0.0000000   0.3333333), wk =   0.0370370
        k(   20) = (   0.1666667   0.0000000  -0.5000000), wk =   0.0370370
        k(   21) = (   0.1666667   0.1666667   0.0000000), wk =   0.0370370
        k(   22) = (   0.1666667   0.1666667   0.1666667), wk =   0.0370370
        k(   23) = (   0.1666667   0.1666667   0.3333333), wk =   0.0370370
        k(   24) = (   0.1666667   0.1666667  -0.5000000), wk =   0.0370370
        k(   25) = (   0.1666667   0.3333333   0.0000000), wk =   0.0185185
        k(   26) = (   0.1666667   0.3333333   0.1666667), wk =   0.0370370
        k(   27) = (   0.1666667   0.3333333   0.3333333), wk =   0.0370370
        k(   28) = (   0.1666667   0.3333333  -0.5000000), wk =   0.0185185
        k(   29) = (   0.1666667  -0.1666667   0.0000000), wk =   0.0185185
        k(   30) = (   0.1666667  -0.1666667   0.1666667), wk =   0.0370370
        k(   31) = (   0.1666667  -0.1666667   0.3333333), wk =   0.0370370
        k(   32) = (   0.1666667  -0.1666667  -0.5000000), wk =   0.0185185
        k(   33) = (   0.3333333   0.0000000   0.0000000), wk =   0.0370370
        k(   34) = (   0.3333333   0.0000000   0.1666667), wk =   0.0370370
        k(   35) = (   0.3333333   0.0000000   0.3333333), wk =   0.0370370
        k(   36) = (   0.3333333   0.0000000  -0.5000000), wk =   0.0370370
        k(   37) = (   0.3333333   0.1666667   0.0000000), wk =   0.0185185
        k(   38) = (   0.3333333   0.1666667   0.1666667), wk =   0.0370370
        k(   39) = (   0.3333333   0.1666667   0.3333333), wk =   0.0370370
        k(   40) = (   0.3333333   0.1666667  -0.5000000), wk =   0.0185185
        k(   41) = (   0.3333333  -0.5000000   0.0000000), wk =   0.0370370
        k(   42) = (   0.3333333  -0.5000000   0.1666667), wk =   0.0370370
        k(   43) = (   0.3333333  -0.5000000   0.3333333), wk =   0.0370370
        k(   44) = (   0.3333333  -0.5000000  -0.5000000), wk =   0.0370370
        k(   45) = (   0.3333333  -0.3333333   0.0000000), wk =   0.0185185
        k(   46) = (   0.3333333  -0.3333333   0.1666667), wk =   0.0370370
        k(   47) = (   0.3333333  -0.3333333   0.3333333), wk =   0.0370370
        k(   48) = (   0.3333333  -0.3333333  -0.5000000), wk =   0.0185185
        k(   49) = (  -0.5000000  -0.0000000   0.0000000), wk =   0.0092593
        k(   50) = (  -0.5000000  -0.0000000   0.1666667), wk =   0.0185185
        k(   51) = (  -0.5000000  -0.0000000   0.3333333), wk =   0.0185185
        k(   52) = (  -0.5000000  -0.0000000  -0.5000000), wk =   0.0092593
        k(   53) = (  -0.5000000   0.1666667   0.0000000), wk =   0.0185185
        k(   54) = (  -0.5000000   0.1666667   0.1666667), wk =   0.0185185
        k(   55) = (  -0.5000000   0.1666667   0.3333333), wk =   0.0185185
        k(   56) = (  -0.5000000   0.1666667  -0.5000000), wk =   0.0185185
        k(   57) = (  -0.5000000   0.3333333   0.0000000), wk =   0.0185185
        k(   58) = (  -0.5000000   0.3333333   0.1666667), wk =   0.0185185
        k(   59) = (  -0.5000000   0.3333333   0.3333333), wk =   0.0185185
        k(   60) = (  -0.5000000   0.3333333  -0.5000000), wk =   0.0185185
        k(   61) = (  -0.5000000  -0.5000000   0.0000000), wk =   0.0092593
        k(   62) = (  -0.5000000  -0.5000000   0.1666667), wk =   0.0185185
        k(   63) = (  -0.5000000  -0.5000000   0.3333333), wk =   0.0185185
        k(   64) = (  -0.5000000  -0.5000000  -0.5000000), wk =   0.0092593
        k(   65) = (   0.0000000   0.1666667  -0.1666667), wk =   0.0185185
        k(   66) = (   0.0000000   0.1666667  -0.3333333), wk =   0.0185185
        k(   67) = (   0.0000000   0.3333333  -0.1666667), wk =   0.0185185
        k(   68) = (   0.0000000   0.3333333  -0.3333333), wk =   0.0185185
        k(   69) = (  -0.1666667   0.3333333  -0.1666667), wk =   0.0370370
        k(   70) = (  -0.1666667   0.3333333  -0.3333333), wk =   0.0370370
        k(   71) = (  -0.1666667   0.5000000  -0.1666667), wk =   0.0370370
        k(   72) = (  -0.1666667   0.5000000  -0.3333333), wk =   0.0370370
        k(   73) = (  -0.3333333   0.6666667  -0.1666667), wk =   0.0370370
        k(   74) = (  -0.3333333   0.6666667  -0.3333333), wk =   0.0370370
        k(   75) = (  -0.3333333   0.1666667  -0.1666667), wk =   0.0370370
        k(   76) = (  -0.3333333   0.1666667  -0.3333333), wk =   0.0370370
        k(   77) = (   0.5000000  -0.8333333  -0.1666667), wk =   0.0185185
        k(   78) = (   0.5000000  -0.8333333  -0.3333333), wk =   0.0185185
        k(   79) = (   0.5000000  -0.6666667  -0.1666667), wk =   0.0185185
        k(   80) = (   0.5000000  -0.6666667  -0.3333333), wk =   0.0185185

     Dense  grid:   196495 G-vectors     FFT dimensions: (  45,  81, 135)

     Smooth grid:    69361 G-vectors     FFT dimensions: (  30,  60,  96)

     Dynamical RAM for                 wfc:       2.38 MB

     Dynamical RAM for     wfc (w. buffer):      26.22 MB

     Dynamical RAM for           str. fact:       1.50 MB

     Dynamical RAM for           local pot:       0.00 MB

     Dynamical RAM for          nlocal pot:       6.89 MB

     Dynamical RAM for                qrad:       3.21 MB

     Dynamical RAM for          rho,v,vnew:       5.09 MB

     Dynamical RAM for               rhoin:       1.70 MB

     Dynamical RAM for            rho*nmix:      11.99 MB

     Dynamical RAM for           G-vectors:       2.94 MB

     Dynamical RAM for          h,s,v(r/c):       0.24 MB

     Dynamical RAM for          <psi|beta>:       0.23 MB

     Dynamical RAM for                 psi:       4.77 MB

     Dynamical RAM for                hpsi:       4.77 MB

     Dynamical RAM for                spsi:       4.77 MB

     Dynamical RAM for      wfcinit/wfcrot:       7.14 MB

     Dynamical RAM for           addusdens:      18.83 MB

     Dynamical RAM for          addusforce:      19.89 MB

     Estimated static dynamical RAM per process >      54.52 MB

     Estimated max dynamical RAM per process >      86.41 MB

     Estimated total dynamical RAM >       2.37 GB

     Check: negative core charge=   -0.000002

     Initial potential from superposition of free atoms

     starting charge     143.9702, renormalised to     144.0000
     Starting wfcs are  104 randomized atomic wfcs

     total cpu time spent up to now is       13.9 secs

     per-process dynamical memory:    74.0 Mb

     Self-consistent Calculation

     iteration #  1     ecut=    50.00 Ry     beta= 0.30
     Davidson diagonalization with overlap

---- Real-time Memory Report at c_bands before calling an iterative solver
           102 MiB given to the printing process from OS
            72 MiB allocation reported by mallinfo(arena+hblkhd)
        102611 MiB available memory on the node where the printing process lives
------------------
     ethr =  1.00E-02,  avg # of iterations =  1.8

     total cpu time spent up to now is       30.2 secs

     total energy              =   -1445.81661580 Ry
     estimated scf accuracy    <       2.92669877 Ry

     iteration #  2     ecut=    50.00 Ry     beta= 0.30
     Davidson diagonalization with overlap

---- Real-time Memory Report at c_bands before calling an iterative solver
           130 MiB given to the printing process from OS
            99 MiB allocation reported by mallinfo(arena+hblkhd)
        101733 MiB available memory on the node where the printing process lives
------------------
     ethr =  2.03E-03,  avg # of iterations =  2.0

     total cpu time spent up to now is       50.0 secs

     total energy              =   -1446.28473162 Ry
     estimated scf accuracy    <       0.32424941 Ry

     iteration #  3     ecut=    50.00 Ry     beta= 0.30
     Davidson diagonalization with overlap

---- Real-time Memory Report at c_bands before calling an iterative solver
           130 MiB given to the printing process from OS
            99 MiB allocation reported by mallinfo(arena+hblkhd)
        101844 MiB available memory on the node where the printing process lives
------------------
     ethr =  2.25E-04,  avg # of iterations =  7.2

     total cpu time spent up to now is       83.7 secs

     total energy              =   -1446.37017811 Ry
     estimated scf accuracy    <       0.27676818 Ry

     iteration #  4     ecut=    50.00 Ry     beta= 0.30
     Davidson diagonalization with overlap

---- Real-time Memory Report at c_bands before calling an iterative solver
           130 MiB given to the printing process from OS
            99 MiB allocation reported by mallinfo(arena+hblkhd)
        101851 MiB available memory on the node where the printing process lives
------------------
     ethr =  1.92E-04,  avg # of iterations =  9.8

     total cpu time spent up to now is      128.0 secs

     total energy              =   -1446.58054205 Ry
     estimated scf accuracy    <       1.23985621 Ry

     iteration #  5     ecut=    50.00 Ry     beta= 0.30
     Davidson diagonalization with overlap

---- Real-time Memory Report at c_bands before calling an iterative solver
           130 MiB given to the printing process from OS
            99 MiB allocation reported by mallinfo(arena+hblkhd)
        101851 MiB available memory on the node where the printing process lives
------------------
     ethr =  1.92E-04,  avg # of iterations =  2.0

     total cpu time spent up to now is      144.7 secs

     total energy              =   -1446.51989228 Ry
     estimated scf accuracy    <       0.75907246 Ry

     iteration #  6     ecut=    50.00 Ry     beta= 0.30
     Davidson diagonalization with overlap

---- Real-time Memory Report at c_bands before calling an iterative solver
           130 MiB given to the printing process from OS
            99 MiB allocation reported by mallinfo(arena+hblkhd)
        101850 MiB available memory on the node where the printing process lives
------------------
     ethr =  1.92E-04,  avg # of iterations =  2.0

     total cpu time spent up to now is      162.6 secs

     total energy              =   -1446.30723424 Ry
     estimated scf accuracy    <       0.43399288 Ry

     iteration #  7     ecut=    50.00 Ry     beta= 0.30
     Davidson diagonalization with overlap

---- Real-time Memory Report at c_bands before calling an iterative solver
           130 MiB given to the printing process from OS
            99 MiB allocation reported by mallinfo(arena+hblkhd)
        101814 MiB available memory on the node where the printing process lives
------------------
     ethr =  1.92E-04,  avg # of iterations =  6.8

     total cpu time spent up to now is      194.3 secs

     total energy              =   -1446.54350159 Ry
     estimated scf accuracy    <       0.16706688 Ry

     iteration #  8     ecut=    50.00 Ry     beta= 0.30
     Davidson diagonalization with overlap

---- Real-time Memory Report at c_bands before calling an iterative solver
           130 MiB given to the printing process from OS
            99 MiB allocation reported by mallinfo(arena+hblkhd)
        101824 MiB available memory on the node where the printing process lives
------------------
     ethr =  1.16E-04,  avg # of iterations =  1.2

     total cpu time spent up to now is      209.7 secs

     total energy              =   -1446.53721069 Ry
     estimated scf accuracy    <       0.15310164 Ry

     iteration #  9     ecut=    50.00 Ry     beta= 0.30
     Davidson diagonalization with overlap

---- Real-time Memory Report at c_bands before calling an iterative solver
           130 MiB given to the printing process from OS
            99 MiB allocation reported by mallinfo(arena+hblkhd)
        101832 MiB available memory on the node where the printing process lives
------------------
     ethr =  1.06E-04,  avg # of iterations =  1.0

     total cpu time spent up to now is      225.1 secs

     total energy              =   -1446.53037214 Ry
     estimated scf accuracy    <       0.13798132 Ry

     iteration # 10     ecut=    50.00 Ry     beta= 0.30
     Davidson diagonalization with overlap

---- Real-time Memory Report at c_bands before calling an iterative solver
           130 MiB given to the printing process from OS
            99 MiB allocation reported by mallinfo(arena+hblkhd)
        101832 MiB available memory on the node where the printing process lives
------------------
     ethr =  9.58E-05,  avg # of iterations =  1.0

     total cpu time spent up to now is      240.6 secs

     total energy              =   -1446.52247808 Ry
     estimated scf accuracy    <       0.11864088 Ry

     iteration # 11     ecut=    50.00 Ry     beta= 0.30
     Davidson diagonalization with overlap

---- Real-time Memory Report at c_bands before calling an iterative solver
           130 MiB given to the printing process from OS
            99 MiB allocation reported by mallinfo(arena+hblkhd)
        101832 MiB available memory on the node where the printing process lives
------------------
     ethr =  8.24E-05,  avg # of iterations =  1.0

     total cpu time spent up to now is      255.8 secs

     total energy              =   -1446.51795367 Ry
     estimated scf accuracy    <       0.09395750 Ry

     iteration # 12     ecut=    50.00 Ry     beta= 0.30
     Davidson diagonalization with overlap

---- Real-time Memory Report at c_bands before calling an iterative solver
           130 MiB given to the printing process from OS
            99 MiB allocation reported by mallinfo(arena+hblkhd)
        101832 MiB available memory on the node where the printing process lives
------------------
     ethr =  6.52E-05,  avg # of iterations =  1.0

     total cpu time spent up to now is      271.2 secs

     total energy              =   -1446.51240755 Ry
     estimated scf accuracy    <       0.07784688 Ry

     iteration # 13     ecut=    50.00 Ry     beta= 0.30
     Davidson diagonalization with overlap

---- Real-time Memory Report at c_bands before calling an iterative solver
           130 MiB given to the printing process from OS
            99 MiB allocation reported by mallinfo(arena+hblkhd)
        101832 MiB available memory on the node where the printing process lives
------------------
     ethr =  5.41E-05,  avg # of iterations =  1.0

     total cpu time spent up to now is      286.4 secs

     total energy              =   -1446.51889984 Ry
     estimated scf accuracy    <       0.05927402 Ry

     iteration # 14     ecut=    50.00 Ry     beta= 0.30
     Davidson diagonalization with overlap

---- Real-time Memory Report at c_bands before calling an iterative solver
           130 MiB given to the printing process from OS
            99 MiB allocation reported by mallinfo(arena+hblkhd)
        101832 MiB available memory on the node where the printing process lives
------------------
     ethr =  4.12E-05,  avg # of iterations =  1.0

     total cpu time spent up to now is      301.7 secs

     total energy              =   -1446.46732771 Ry
     estimated scf accuracy    <       0.06877016 Ry

     iteration # 15     ecut=    50.00 Ry     beta= 0.30
     Davidson diagonalization with overlap

---- Real-time Memory Report at c_bands before calling an iterative solver
           130 MiB given to the printing process from OS
            99 MiB allocation reported by mallinfo(arena+hblkhd)
        101832 MiB available memory on the node where the printing process lives
------------------
     ethr =  4.12E-05,  avg # of iterations =  8.4

     total cpu time spent up to now is      342.0 secs

     total energy              =   -1446.49251304 Ry
     estimated scf accuracy    <       0.11776733 Ry

     iteration # 16     ecut=    50.00 Ry     beta= 0.30
     Davidson diagonalization with overlap

---- Real-time Memory Report at c_bands before calling an iterative solver
           130 MiB given to the printing process from OS
            99 MiB allocation reported by mallinfo(arena+hblkhd)
        101832 MiB available memory on the node where the printing process lives
------------------
     ethr =  4.12E-05,  avg # of iterations =  2.0

     total cpu time spent up to now is      360.4 secs

     total energy              =   -1446.49813358 Ry
     estimated scf accuracy    <       0.03898109 Ry

     iteration # 17     ecut=    50.00 Ry     beta= 0.30
     Davidson diagonalization with overlap

---- Real-time Memory Report at c_bands before calling an iterative solver
           130 MiB given to the printing process from OS
            99 MiB allocation reported by mallinfo(arena+hblkhd)
        101826 MiB available memory on the node where the printing process lives
------------------
     ethr =  2.71E-05,  avg # of iterations =  2.4

     total cpu time spent up to now is      379.1 secs

     total energy              =   -1446.49943402 Ry
     estimated scf accuracy    <       0.02258053 Ry

     iteration # 18     ecut=    50.00 Ry     beta= 0.30
     Davidson diagonalization with overlap

---- Real-time Memory Report at c_bands before calling an iterative solver
           130 MiB given to the printing process from OS
            99 MiB allocation reported by mallinfo(arena+hblkhd)
        101831 MiB available memory on the node where the printing process lives
------------------
     ethr =  1.57E-05,  avg # of iterations =  4.2

     total cpu time spent up to now is      399.1 secs

     total energy              =   -1446.50107010 Ry
     estimated scf accuracy    <       0.00939209 Ry

     iteration # 19     ecut=    50.00 Ry     beta= 0.30
     Davidson diagonalization with overlap

---- Real-time Memory Report at c_bands before calling an iterative solver
           130 MiB given to the printing process from OS
            99 MiB allocation reported by mallinfo(arena+hblkhd)
        101832 MiB available memory on the node where the printing process lives
------------------
     ethr =  6.52E-06,  avg # of iterations =  5.3

     total cpu time spent up to now is      423.4 secs

     total energy              =   -1446.50386229 Ry
     estimated scf accuracy    <       0.00046482 Ry

     iteration # 20     ecut=    50.00 Ry     beta= 0.30
     Davidson diagonalization with overlap

---- Real-time Memory Report at c_bands before calling an iterative solver
           130 MiB given to the printing process from OS
            99 MiB allocation reported by mallinfo(arena+hblkhd)
        101832 MiB available memory on the node where the printing process lives
------------------
     ethr =  3.23E-07,  avg # of iterations =  8.7

     total cpu time spent up to now is      460.9 secs

     total energy              =   -1446.50431331 Ry
     estimated scf accuracy    <       0.00046070 Ry

     iteration # 21     ecut=    50.00 Ry     beta= 0.30
     Davidson diagonalization with overlap

---- Real-time Memory Report at c_bands before calling an iterative solver
           130 MiB given to the printing process from OS
            99 MiB allocation reported by mallinfo(arena+hblkhd)
        101832 MiB available memory on the node where the printing process lives
------------------
     c_bands:  1 eigenvalues not converged
     ethr =  3.20E-07,  avg # of iterations = 12.3

     total cpu time spent up to now is      515.1 secs

     total energy              =   -1446.50649749 Ry
     estimated scf accuracy    <       0.00980794 Ry

     iteration # 22     ecut=    50.00 Ry     beta= 0.30
     Davidson diagonalization with overlap

---- Real-time Memory Report at c_bands before calling an iterative solver
           130 MiB given to the printing process from OS
            99 MiB allocation reported by mallinfo(arena+hblkhd)
        101832 MiB available memory on the node where the printing process lives
------------------
     ethr =  3.20E-07,  avg # of iterations =  1.4

     total cpu time spent up to now is      531.1 secs

     total energy              =   -1446.50299730 Ry
     estimated scf accuracy    <       0.00916920 Ry

     iteration # 23     ecut=    50.00 Ry     beta= 0.30
     Davidson diagonalization with overlap

---- Real-time Memory Report at c_bands before calling an iterative solver
           130 MiB given to the printing process from OS
            99 MiB allocation reported by mallinfo(arena+hblkhd)
        101832 MiB available memory on the node where the printing process lives
------------------
     ethr =  3.20E-07,  avg # of iterations = 10.8

     total cpu time spent up to now is      578.8 secs

     total energy              =   -1446.50428167 Ry
     estimated scf accuracy    <       0.00012285 Ry

     iteration # 24     ecut=    50.00 Ry     beta= 0.30
     Davidson diagonalization with overlap

---- Real-time Memory Report at c_bands before calling an iterative solver
           130 MiB given to the printing process from OS
            99 MiB allocation reported by mallinfo(arena+hblkhd)
        101832 MiB available memory on the node where the printing process lives
------------------
     ethr =  8.53E-08,  avg # of iterations = 11.0

     total cpu time spent up to now is      623.9 secs

     total energy              =   -1446.50495462 Ry
     estimated scf accuracy    <       0.00091552 Ry

     iteration # 25     ecut=    50.00 Ry     beta= 0.30
     Davidson diagonalization with overlap

---- Real-time Memory Report at c_bands before calling an iterative solver
           130 MiB given to the printing process from OS
            99 MiB allocation reported by mallinfo(arena+hblkhd)
        101832 MiB available memory on the node where the printing process lives
------------------
     ethr =  8.53E-08,  avg # of iterations =  7.0

     total cpu time spent up to now is      656.8 secs

     total energy              =   -1446.50423161 Ry
     estimated scf accuracy    <       0.00282349 Ry

     iteration # 26     ecut=    50.00 Ry     beta= 0.30
     Davidson diagonalization with overlap

---- Real-time Memory Report at c_bands before calling an iterative solver
           130 MiB given to the printing process from OS
            99 MiB allocation reported by mallinfo(arena+hblkhd)
        101834 MiB available memory on the node where the printing process lives
------------------
     ethr =  8.53E-08,  avg # of iterations =  9.1

     total cpu time spent up to now is      698.3 secs

     total energy              =   -1446.50434095 Ry
     estimated scf accuracy    <       0.00038936 Ry

     iteration # 27     ecut=    50.00 Ry     beta= 0.30
     Davidson diagonalization with overlap

---- Real-time Memory Report at c_bands before calling an iterative solver
           130 MiB given to the printing process from OS
            99 MiB allocation reported by mallinfo(arena+hblkhd)
        101837 MiB available memory on the node where the printing process lives
------------------
     ethr =  8.53E-08,  avg # of iterations =  4.3

     total cpu time spent up to now is      719.2 secs

     total energy              =   -1446.50424983 Ry
     estimated scf accuracy    <       0.00018449 Ry

     iteration # 28     ecut=    50.00 Ry     beta= 0.30
     Davidson diagonalization with overlap

---- Real-time Memory Report at c_bands before calling an iterative solver
           130 MiB given to the printing process from OS
            99 MiB allocation reported by mallinfo(arena+hblkhd)
        101837 MiB available memory on the node where the printing process lives
------------------
     ethr =  8.53E-08,  avg # of iterations =  7.8

     total cpu time spent up to now is      756.7 secs

     total energy              =   -1446.50435838 Ry
     estimated scf accuracy    <       0.00014609 Ry

     iteration # 29     ecut=    50.00 Ry     beta= 0.30
     Davidson diagonalization with overlap

---- Real-time Memory Report at c_bands before calling an iterative solver
           130 MiB given to the printing process from OS
            99 MiB allocation reported by mallinfo(arena+hblkhd)
        101837 MiB available memory on the node where the printing process lives
------------------
     ethr =  8.53E-08,  avg # of iterations =  1.1

     total cpu time spent up to now is      772.2 secs

     total energy              =   -1446.50432014 Ry
     estimated scf accuracy    <       0.00007224 Ry

     iteration # 30     ecut=    50.00 Ry     beta= 0.30
     Davidson diagonalization with overlap

---- Real-time Memory Report at c_bands before calling an iterative solver
           130 MiB given to the printing process from OS
            99 MiB allocation reported by mallinfo(arena+hblkhd)
        101837 MiB available memory on the node where the printing process lives
------------------
     ethr =  5.02E-08,  avg # of iterations =  6.2

     total cpu time spent up to now is      802.8 secs

     total energy              =   -1446.50435564 Ry
     estimated scf accuracy    <       0.00003949 Ry

     iteration # 31     ecut=    50.00 Ry     beta= 0.30
     Davidson diagonalization with overlap

---- Real-time Memory Report at c_bands before calling an iterative solver
           130 MiB given to the printing process from OS
            99 MiB allocation reported by mallinfo(arena+hblkhd)
        101837 MiB available memory on the node where the printing process lives
------------------
     ethr =  2.74E-08,  avg # of iterations =  1.8

     total cpu time spent up to now is      819.0 secs

     total energy              =   -1446.50435029 Ry
     estimated scf accuracy    <       0.00001380 Ry

     iteration # 32     ecut=    50.00 Ry     beta= 0.30
     Davidson diagonalization with overlap

---- Real-time Memory Report at c_bands before calling an iterative solver
           130 MiB given to the printing process from OS
            99 MiB allocation reported by mallinfo(arena+hblkhd)
        101837 MiB available memory on the node where the printing process lives
------------------
     ethr =  9.58E-09,  avg # of iterations =  5.9

     total cpu time spent up to now is      849.3 secs

     total energy              =   -1446.50435766 Ry
     estimated scf accuracy    <       0.00000678 Ry

     iteration # 33     ecut=    50.00 Ry     beta= 0.30
     Davidson diagonalization with overlap

---- Real-time Memory Report at c_bands before calling an iterative solver
           130 MiB given to the printing process from OS
            99 MiB allocation reported by mallinfo(arena+hblkhd)
        101837 MiB available memory on the node where the printing process lives
------------------
     ethr =  4.71E-09,  avg # of iterations =  2.0

     total cpu time spent up to now is      867.0 secs

     total energy              =   -1446.50435692 Ry
     estimated scf accuracy    <       0.00000162 Ry

     iteration # 34     ecut=    50.00 Ry     beta= 0.30
     Davidson diagonalization with overlap

---- Real-time Memory Report at c_bands before calling an iterative solver
           130 MiB given to the printing process from OS
            99 MiB allocation reported by mallinfo(arena+hblkhd)
        101837 MiB available memory on the node where the printing process lives
------------------
     ethr =  1.12E-09,  avg # of iterations =  9.2

     total cpu time spent up to now is      909.2 secs

     total energy              =   -1446.50435730 Ry
     estimated scf accuracy    <       0.00000709 Ry

     iteration # 35     ecut=    50.00 Ry     beta= 0.30
     Davidson diagonalization with overlap

---- Real-time Memory Report at c_bands before calling an iterative solver
           130 MiB given to the printing process from OS
            99 MiB allocation reported by mallinfo(arena+hblkhd)
        101837 MiB available memory on the node where the printing process lives
------------------
     ethr =  1.12E-09,  avg # of iterations =  6.4

     total cpu time spent up to now is      941.6 secs

     End of self-consistent calculation

          k = 0.0000 0.0000 0.0000 (  8643 PWs)   bands (ev):

   -11.6457 -11.3647 -11.3647 -11.1304 -11.0723 -11.0352 -11.0352 -10.9532
     0.1482   0.1482   0.2466   0.2466   0.2476   0.3546   0.3548   0.3735
     0.4134   0.4134   0.4136   0.4136   0.5184   0.5185   0.5395   0.5449
     0.7390   0.7390   0.8007   0.8221   0.8221   0.8524   0.9357   0.9851
     1.1877   1.1878   1.2398   1.2905   1.2905   1.2905   1.2905   1.3192
     1.3384   1.3384   1.3547   1.3547   1.3895   1.4164   1.4164   1.4432
     1.5932   1.9882   2.0405   2.0405   2.4147   3.0732   3.4143   3.4143
     3.6150   4.2705   4.2705   4.4224   4.4224   4.4536   4.8212   4.8216
     4.8640   5.1776   5.1777   5.1781   5.1781   5.5061   5.5224   5.5229

     occupation numbers 
     1.0000   1.0000   1.0000   1.0000   1.0000   1.0000   1.0000   1.0000
     1.0000   1.0000   1.0000   1.0000   1.0000   1.0000   1.0000   1.0000
     1.0000   1.0000   1.0000   1.0000   1.0000   1.0000   1.0000   1.0000
     1.0000   1.0000   1.0000   1.0000   1.0000   1.0000   1.0000   1.0000
     1.0000   1.0000   1.0000   1.0000   1.0000   1.0000   1.0000   1.0000
     1.0000   1.0000   1.0000   1.0000   1.0000   1.0000   1.0000   1.0000
     1.0000   1.0000   1.0000   1.0000   1.0000   1.0000   1.0000   1.0000
     1.0000   1.0000   1.0000   1.0000   1.0000   1.0000   1.0000   1.0000
     1.0000   1.0000   1.0000   1.0000   1.0000   1.0000   1.0000   1.0000

          k = 0.0000 0.0000 0.0527 (  8662 PWs)   bands (ev):

   -11.6363 -11.4385 -11.2901 -11.1270 -11.0824 -11.0587 -11.0127 -10.9558
     0.1394   0.1866   0.2388   0.2494   0.2743   0.3559   0.3561   0.3650
     0.3941   0.3943   0.4358   0.4359   0.5115   0.5139   0.5141   0.5510
     0.6842   0.7264   0.7972   0.8183   0.8330   0.8489   0.9247   0.9760
     1.1919   1.1919   1.2548   1.2674   1.2674   1.3113   1.3113   1.3197
     1.3322   1.3460   1.3532   1.3532   1.3861   1.3952   1.4300   1.4434
     1.7078   1.9760   1.9902   2.1045   2.3926   3.0374   3.1489   3.6393
     3.7906   4.1096   4.1936   4.4276   4.4822   4.5738   4.8335   4.8339
     4.8443   5.0865   5.0869   5.2681   5.2685   5.2883   5.5109   5.5113

     occupation numbers 
     1.0000   1.0000   1.0000   1.0000   1.0000   1.0000   1.0000   1.0000
     1.0000   1.0000   1.0000   1.0000   1.0000   1.0000   1.0000   1.0000
     1.0000   1.0000   1.0000   1.0000   1.0000   1.0000   1.0000   1.0000
     1.0000   1.0000   1.0000   1.0000   1.0000   1.0000   1.0000   1.0000
     1.0000   1.0000   1.0000   1.0000   1.0000   1.0000   1.0000   1.0000
     1.0000   1.0000   1.0000   1.0000   1.0000   1.0000   1.0000   1.0000
     1.0000   1.0000   1.0000   1.0000   1.0000   1.0000   1.0000   1.0000
     1.0000   1.0000   1.0000   1.0000   1.0000   1.0000   1.0000   1.0000
     1.0000   1.0000   1.0000   1.0000   1.0000   1.0000   1.0000   1.0000

          k = 0.0000 0.0000 0.1053 (  8720 PWs)   bands (ev):

   -11.6087 -11.5066 -11.2199 -11.1170 -11.1121 -11.0813 -10.9925 -10.9634
     0.1547   0.2153   0.2546   0.2728   0.3388   0.3404   0.3599   0.3601
     0.3785   0.3787   0.4382   0.4593   0.4595   0.5012   0.5013   0.5684
     0.5808   0.6361   0.8215   0.8400   0.8507   0.8550   0.9005   0.9492
     1.2035   1.2035   1.2433   1.2433   1.2897   1.3211   1.3273   1.3281
     1.3281   1.3487   1.3487   1.3554   1.3663   1.3774   1.4382   1.4431
     1.9545   1.9575   1.9727   2.1789   2.3350   2.6638   3.3485   3.7095
     3.9146   3.9552   4.1661   4.5506   4.5714   4.6355   4.7862   4.8696
     4.8700   4.9220   5.0008   5.0012   5.3516   5.3520   5.4769   5.4774

     occupation numbers 
     1.0000   1.0000   1.0000   1.0000   1.0000   1.0000   1.0000   1.0000
     1.0000   1.0000   1.0000   1.0000   1.0000   1.0000   1.0000   1.0000
     1.0000   1.0000   1.0000   1.0000   1.0000   1.0000   1.0000   1.0000
     1.0000   1.0000   1.0000   1.0000   1.0000   1.0000   1.0000   1.0000
     1.0000   1.0000   1.0000   1.0000   1.0000   1.0000   1.0000   1.0000
     1.0000   1.0000   1.0000   1.0000   1.0000   1.0000   1.0000   1.0000
     1.0000   1.0000   1.0000   1.0000   1.0000   1.0000   1.0000   1.0000
     1.0000   1.0000   1.0000   1.0000   1.0000   1.0000   1.0000   1.0000
     1.0000   1.0000   1.0000   1.0000   1.0000   1.0000   1.0000   1.0000

          k = 0.0000 0.0000-0.1580 (  8706 PWs)   bands (ev):

   -11.5646 -11.5646 -11.1591 -11.1591 -11.1013 -11.1013 -10.9758 -10.9758
     0.1839   0.1840   0.3066   0.3066   0.3442   0.3442   0.3672   0.3673
     0.3674   0.3674   0.4429   0.4430   0.4822   0.4822   0.4824   0.4824
     0.5971   0.5971   0.8297   0.8298   0.8742   0.8742   0.9074   0.9074
     1.2212   1.2213   1.2213   1.2213   1.3237   1.3237   1.3299   1.3299
     1.3407   1.3407   1.3407   1.3407   1.3662   1.3663   1.4420   1.4420
     1.9455   1.9455   2.2588   2.2588   2.3033   2.3033   3.6197   3.6197
     3.8181   3.8182   4.5429   4.5429   4.6170   4.6170   4.6934   4.6934
     4.9267   4.9267   4.9271   4.9272   5.4227   5.4227   5.4231   5.4232

     occupation numbers 
     1.0000   1.0000   1.0000   1.0000   1.0000   1.0000   1.0000   1.0000
     1.0000   1.0000   1.0000   1.0000   1.0000   1.0000   1.0000   1.0000
     1.0000   1.0000   1.0000   1.0000   1.0000   1.0000   1.0000   1.0000
     1.0000   1.0000   1.0000   1.0000   1.0000   1.0000   1.0000   1.0000
     1.0000   1.0000   1.0000   1.0000   1.0000   1.0000   1.0000   1.0000
     1.0000   1.0000   1.0000   1.0000   1.0000   1.0000   1.0000   1.0000
     1.0000   1.0000   1.0000   1.0000   1.0000   1.0000   1.0000   1.0000
     1.0000   1.0000   1.0000   1.0000   1.0000   1.0000   1.0000   1.0000
     1.0000   1.0000   1.0000   1.0000   1.0000   1.0000   1.0000   1.0000

          k = 0.0000 0.0962 0.0000 (  8691 PWs)   bands (ev):

   -11.6167 -11.3434 -11.3434 -11.1778 -11.0603 -11.0581 -11.0581 -10.9500
     0.1451   0.1451   0.2300   0.2301   0.2301   0.3253   0.3720   0.3972
     0.4328   0.4328   0.4351   0.4351   0.5048   0.5190   0.5380   0.5436
     0.7183   0.7183   0.7711   0.7711   0.8269   0.8410   0.9138   0.9467
     1.1768   1.1861   1.2184   1.2895   1.2895   1.2912   1.2912   1.2954
     1.3278   1.3278   1.3576   1.3772   1.3772   1.3865   1.3993   1.5338
     1.5891   1.9875   2.2290   2.2290   2.4753   3.1185   3.4011   3.4011
     3.7030   4.3347   4.3347   4.4114   4.4114   4.5862   4.5918   4.7422
     4.9123   5.0193   5.0193   5.0255   5.1190   5.1190   5.4652   5.4831

     occupation numbers 
     1.0000   1.0000   1.0000   1.0000   1.0000   1.0000   1.0000   1.0000
     1.0000   1.0000   1.0000   1.0000   1.0000   1.0000   1.0000   1.0000
     1.0000   1.0000   1.0000   1.0000   1.0000   1.0000   1.0000   1.0000
     1.0000   1.0000   1.0000   1.0000   1.0000   1.0000   1.0000   1.0000
     1.0000   1.0000   1.0000   1.0000   1.0000   1.0000   1.0000   1.0000
     1.0000   1.0000   1.0000   1.0000   1.0000   1.0000   1.0000   1.0000
     1.0000   1.0000   1.0000   1.0000   1.0000   1.0000   1.0000   1.0000
     1.0000   1.0000   1.0000   1.0000   1.0000   1.0000   1.0000   1.0000
     1.0000   1.0000   1.0000   1.0000   1.0000   1.0000   1.0000   1.0000

          k = 0.0000 0.0962 0.0527 (  8691 PWs)   bands (ev):

   -11.6075 -11.4151 -11.2710 -11.1735 -11.0881 -11.0701 -11.0289 -10.9535
     0.1328   0.1864   0.2220   0.2294   0.2602   0.3207   0.3735   0.3941
     0.4139   0.4148   0.4563   0.4584   0.4839   0.5123   0.5391   0.5436
     0.6675   0.7543   0.7679   0.7724   0.7836   0.8346   0.8976   0.9382
     1.1813   1.1902   1.2259   1.2654   1.2659   1.2964   1.3109   1.3146
     1.3183   1.3389   1.3433   1.3560   1.3809   1.3834   1.4100   1.5252
     1.7197   1.9836   2.1492   2.3137   2.4971   3.0436   3.1617   3.7262
     3.7486   4.1572   4.1787   4.4873   4.5942   4.6041   4.6096   4.7552
     4.8930   4.9090   4.9342   5.0227   5.1312   5.2145   5.4478   5.4710

     occupation numbers 
     1.0000   1.0000   1.0000   1.0000   1.0000   1.0000   1.0000   1.0000
     1.0000   1.0000   1.0000   1.0000   1.0000   1.0000   1.0000   1.0000
     1.0000   1.0000   1.0000   1.0000   1.0000   1.0000   1.0000   1.0000
     1.0000   1.0000   1.0000   1.0000   1.0000   1.0000   1.0000   1.0000
     1.0000   1.0000   1.0000   1.0000   1.0000   1.0000   1.0000   1.0000
     1.0000   1.0000   1.0000   1.0000   1.0000   1.0000   1.0000   1.0000
     1.0000   1.0000   1.0000   1.0000   1.0000   1.0000   1.0000   1.0000
     1.0000   1.0000   1.0000   1.0000   1.0000   1.0000   1.0000   1.0000
     1.0000   1.0000   1.0000   1.0000   1.0000   1.0000   1.0000   1.0000

          k = 0.0000 0.0962 0.1053 (  8702 PWs)   bands (ev):

   -11.5806 -11.4813 -11.2030 -11.1612 -11.1166 -11.0988 -11.0025 -10.9637
     0.1445   0.2000   0.2493   0.2553   0.3051   0.3242   0.3781   0.3891
     0.3984   0.4013   0.4247   0.4829   0.4842   0.4883   0.5260   0.5599
     0.6176   0.6229   0.7755   0.8033   0.8170   0.8260   0.8627   0.9133
     1.1946   1.2018   1.2391   1.2417   1.2465   1.2991   1.3088   1.3101
     1.3285   1.3343   1.3509   1.3509   1.3641   1.3749   1.4419   1.5026
     1.9907   1.9949   2.0791   2.3979   2.5097   2.6819   3.3115   3.7933
     3.8610   4.0295   4.0831   4.6223   4.6272   4.6622   4.6898   4.7283
     4.7934   4.8082   4.8365   4.9322   5.2368   5.3027   5.4005   5.4351

     occupation numbers 
     1.0000   1.0000   1.0000   1.0000   1.0000   1.0000   1.0000   1.0000
     1.0000   1.0000   1.0000   1.0000   1.0000   1.0000   1.0000   1.0000
     1.0000   1.0000   1.0000   1.0000   1.0000   1.0000   1.0000   1.0000
     1.0000   1.0000   1.0000   1.0000   1.0000   1.0000   1.0000   1.0000
     1.0000   1.0000   1.0000   1.0000   1.0000   1.0000   1.0000   1.0000
     1.0000   1.0000   1.0000   1.0000   1.0000   1.0000   1.0000   1.0000
     1.0000   1.0000   1.0000   1.0000   1.0000   1.0000   1.0000   1.0000
     1.0000   1.0000   1.0000   1.0000   1.0000   1.0000   1.0000   1.0000
     1.0000   1.0000   1.0000   1.0000   1.0000   1.0000   1.0000   1.0000

          k = 0.0000 0.0962-0.1580 (  8714 PWs)   bands (ev):

   -11.5377 -11.5376 -11.1442 -11.1442 -11.1417 -11.1416 -10.9804 -10.9803
     0.1707   0.1707   0.2784   0.2784   0.3412   0.3412   0.3861   0.3861
     0.3862   0.3862   0.4241   0.4241   0.5064   0.5064   0.5239   0.5239
     0.5866   0.5866   0.7938   0.7939   0.8294   0.8294   0.8745   0.8745
     1.2147   1.2148   1.2197   1.2197   1.2756   1.2756   1.3037   1.3037
     1.3420   1.3420   1.3502   1.3502   1.3633   1.3633   1.4732   1.4732
     2.0238   2.0239   2.3266   2.3266   2.4703   2.4704   3.5622   3.5623
     3.8975   3.8975   4.3988   4.3988   4.7032   4.7032   4.7255   4.7255
     4.7460   4.7460   4.8539   4.8539   5.3287   5.3287   5.3778   5.3778

     occupation numbers 
     1.0000   1.0000   1.0000   1.0000   1.0000   1.0000   1.0000   1.0000
     1.0000   1.0000   1.0000   1.0000   1.0000   1.0000   1.0000   1.0000
     1.0000   1.0000   1.0000   1.0000   1.0000   1.0000   1.0000   1.0000
     1.0000   1.0000   1.0000   1.0000   1.0000   1.0000   1.0000   1.0000
     1.0000   1.0000   1.0000   1.0000   1.0000   1.0000   1.0000   1.0000
     1.0000   1.0000   1.0000   1.0000   1.0000   1.0000   1.0000   1.0000
     1.0000   1.0000   1.0000   1.0000   1.0000   1.0000   1.0000   1.0000
     1.0000   1.0000   1.0000   1.0000   1.0000   1.0000   1.0000   1.0000
     1.0000   1.0000   1.0000   1.0000   1.0000   1.0000   1.0000   1.0000

          k = 0.0000 0.1925 0.0000 (  8679 PWs)   bands (ev):

   -11.5351 -11.2874 -11.2847 -11.2846 -11.1200 -11.1200 -11.0289 -10.9596
     0.1443   0.1443   0.1935   0.1935   0.2055   0.2695   0.4175   0.4356
     0.4695   0.4849   0.4849   0.4945   0.4945   0.5147   0.5322   0.6159
     0.6598   0.6598   0.6655   0.6655   0.7090   0.8475   0.9015   0.9857
     1.1471   1.1645   1.1881   1.2468   1.2885   1.2885   1.2954   1.2954
     1.3074   1.3074   1.3317   1.3317   1.3643   1.3798   1.5182   1.5479
     1.5962   1.9938   2.6353   2.6353   2.6928   3.3159   3.3159   3.4151
     3.9337   3.9927   4.4001   4.4001   4.4314   4.5063   4.5063   4.5274
     4.6940   4.6940   4.8633   4.9572   4.9572   5.0410   5.3418   5.3709

     occupation numbers 
     1.0000   1.0000   1.0000   1.0000   1.0000   1.0000   1.0000   1.0000
     1.0000   1.0000   1.0000   1.0000   1.0000   1.0000   1.0000   1.0000
     1.0000   1.0000   1.0000   1.0000   1.0000   1.0000   1.0000   1.0000
     1.0000   1.0000   1.0000   1.0000   1.0000   1.0000   1.0000   1.0000
     1.0000   1.0000   1.0000   1.0000   1.0000   1.0000   1.0000   1.0000
     1.0000   1.0000   1.0000   1.0000   1.0000   1.0000   1.0000   1.0000
     1.0000   1.0000   1.0000   1.0000   1.0000   1.0000   1.0000   1.0000
     1.0000   1.0000   1.0000   1.0000   1.0000   1.0000   1.0000   1.0000
     1.0000   1.0000   1.0000   1.0000   1.0000   1.0000   1.0000   1.0000

          k = 0.0000 0.1925 0.0527 (  8692 PWs)   bands (ev):

   -11.5267 -11.3500 -11.2816 -11.2189 -11.1627 -11.0777 -11.0377 -10.9649
     0.1275   0.1855   0.1893   0.1986   0.2301   0.2638   0.4195   0.4311
     0.4551   0.4672   0.4707   0.5105   0.5191   0.5212   0.5236   0.6108
     0.6188   0.6537   0.6898   0.7026   0.7038   0.8322   0.8402   0.9515
     1.1544   1.1645   1.1919   1.2487   1.2630   1.2647   1.2899   1.2913
     1.3107   1.3242   1.3252   1.3623   1.3719   1.3768   1.4443   1.5237
     1.7761   2.0577   2.5277   2.7332   2.7390   3.0283   3.4089   3.5731
     3.9543   4.0044   4.1117   4.3632   4.3933   4.5204   4.5424   4.6359
     4.6471   4.8477   4.8742   4.8749   5.0231   5.0657   5.3272   5.3570

     occupation numbers 
     1.0000   1.0000   1.0000   1.0000   1.0000   1.0000   1.0000   1.0000
     1.0000   1.0000   1.0000   1.0000   1.0000   1.0000   1.0000   1.0000
     1.0000   1.0000   1.0000   1.0000   1.0000   1.0000   1.0000   1.0000
     1.0000   1.0000   1.0000   1.0000   1.0000   1.0000   1.0000   1.0000
     1.0000   1.0000   1.0000   1.0000   1.0000   1.0000   1.0000   1.0000
     1.0000   1.0000   1.0000   1.0000   1.0000   1.0000   1.0000   1.0000
     1.0000   1.0000   1.0000   1.0000   1.0000   1.0000   1.0000   1.0000
     1.0000   1.0000   1.0000   1.0000   1.0000   1.0000   1.0000   1.0000
     1.0000   1.0000   1.0000   1.0000   1.0000   1.0000   1.0000   1.0000

          k = 0.0000 0.1925 0.1053 (  8694 PWs)   bands (ev):

   -11.5019 -11.4106 -11.2647 -11.2030 -11.1573 -11.0634 -11.0387 -10.9806
     0.1344   0.1800   0.1989   0.2473   0.2595   0.2959   0.4114   0.4163
     0.4255   0.4510   0.4592   0.4975   0.5321   0.5459   0.5487   0.5829
     0.5965   0.6545   0.6862   0.7012   0.7283   0.7475   0.8193   0.8686
     1.1729   1.1787   1.2029   1.2300   1.2410   1.2482   1.2546   1.2765
     1.3298   1.3409   1.3519   1.3559   1.3684   1.4020   1.4100   1.4837
     2.0646   2.1827   2.4185   2.7151   2.8249   2.8277   3.4252   3.7965
     3.8091   4.0141   4.0232   4.2271   4.3084   4.3739   4.5861   4.7447
     4.7766   4.7963   4.8905   4.9706   5.0433   5.1658   5.2766   5.3163

     occupation numbers 
     1.0000   1.0000   1.0000   1.0000   1.0000   1.0000   1.0000   1.0000
     1.0000   1.0000   1.0000   1.0000   1.0000   1.0000   1.0000   1.0000
     1.0000   1.0000   1.0000   1.0000   1.0000   1.0000   1.0000   1.0000
     1.0000   1.0000   1.0000   1.0000   1.0000   1.0000   1.0000   1.0000
     1.0000   1.0000   1.0000   1.0000   1.0000   1.0000   1.0000   1.0000
     1.0000   1.0000   1.0000   1.0000   1.0000   1.0000   1.0000   1.0000
     1.0000   1.0000   1.0000   1.0000   1.0000   1.0000   1.0000   1.0000
     1.0000   1.0000   1.0000   1.0000   1.0000   1.0000   1.0000   1.0000
     1.0000   1.0000   1.0000   1.0000   1.0000   1.0000   1.0000   1.0000

          k = 0.0000 0.1925-0.1580 (  8684 PWs)   bands (ev):

   -11.4624 -11.4624 -11.2378 -11.2378 -11.1043 -11.1042 -11.0057 -11.0057
     0.1555   0.1555   0.2231   0.2231   0.3410   0.3410   0.3724   0.3725
     0.4360   0.4360   0.4670   0.4670   0.5536   0.5536   0.5749   0.5749
     0.6013   0.6013   0.6672   0.6672   0.7864   0.7864   0.7872   0.7872
     1.1991   1.1991   1.2092   1.2092   1.2200   1.2200   1.2641   1.2641
     1.3452   1.3452   1.3559   1.3559   1.3761   1.3761   1.4465   1.4465
     2.3054   2.3054   2.3875   2.3875   2.8713   2.8713   3.5537   3.5537
     3.9667   3.9667   4.1076   4.1076   4.2837   4.2838   4.6553   4.6553
     4.8758   4.8758   4.8866   4.8867   5.1813   5.1813   5.2512   5.2512

     occupation numbers 
     1.0000   1.0000   1.0000   1.0000   1.0000   1.0000   1.0000   1.0000
     1.0000   1.0000   1.0000   1.0000   1.0000   1.0000   1.0000   1.0000
     1.0000   1.0000   1.0000   1.0000   1.0000   1.0000   1.0000   1.0000
     1.0000   1.0000   1.0000   1.0000   1.0000   1.0000   1.0000   1.0000
     1.0000   1.0000   1.0000   1.0000   1.0000   1.0000   1.0000   1.0000
     1.0000   1.0000   1.0000   1.0000   1.0000   1.0000   1.0000   1.0000
     1.0000   1.0000   1.0000   1.0000   1.0000   1.0000   1.0000   1.0000
     1.0000   1.0000   1.0000   1.0000   1.0000   1.0000   1.0000   1.0000
     1.0000   1.0000   1.0000   1.0000   1.0000   1.0000   1.0000   1.0000

          k = 0.0000-0.2887 0.0000 (  8670 PWs)   bands (ev):

   -11.4171 -11.4171 -11.2032 -11.2031 -11.2031 -11.2031 -10.9900 -10.9899
     0.1599   0.1599   0.1599   0.1599   0.2183   0.2183   0.4565   0.4565
     0.4719   0.4719   0.5638   0.5638   0.5638   0.5639   0.5771   0.5771
     0.5771   0.5772   0.5958   0.5958   0.7249   0.7249   0.9922   0.9922
     1.1173   1.1173   1.2064   1.2064   1.2928   1.2928   1.2928   1.2928
     1.3070   1.3070   1.3070   1.3070   1.3723   1.3723   1.5435   1.5435
     1.7768   1.7769   3.0544   3.0544   3.0544   3.0544   3.2849   3.2849
     3.8898   3.8898   4.2342   4.2343   4.4621   4.4621   4.4622   4.4622
     4.7341   4.7341   4.7342   4.7342   5.1359   5.1360   5.2098   5.2099

     occupation numbers 
     1.0000   1.0000   1.0000   1.0000   1.0000   1.0000   1.0000   1.0000
     1.0000   1.0000   1.0000   1.0000   1.0000   1.0000   1.0000   1.0000
     1.0000   1.0000   1.0000   1.0000   1.0000   1.0000   1.0000   1.0000
     1.0000   1.0000   1.0000   1.0000   1.0000   1.0000   1.0000   1.0000
     1.0000   1.0000   1.0000   1.0000   1.0000   1.0000   1.0000   1.0000
     1.0000   1.0000   1.0000   1.0000   1.0000   1.0000   1.0000   1.0000
     1.0000   1.0000   1.0000   1.0000   1.0000   1.0000   1.0000   1.0000
     1.0000   1.0000   1.0000   1.0000   1.0000   1.0000   1.0000   1.0000
     1.0000   1.0000   1.0000   1.0000   1.0000   1.0000   1.0000   1.0000

          k = 0.0000-0.2887 0.0527 (  8662 PWs)   bands (ev):

   -11.4099 -11.4098 -11.2585 -11.2585 -11.1478 -11.1477 -10.9972 -10.9971
     0.1449   0.1449   0.2032   0.2032   0.2123   0.2123   0.4464   0.4465
     0.4748   0.4748   0.5464   0.5465   0.5482   0.5482   0.5893   0.5893
     0.5911   0.5911   0.6108   0.6108   0.7189   0.7189   0.9279   0.9280
     1.1293   1.1293   1.2094   1.2094   1.2674   1.2674   1.2714   1.2714
     1.3140   1.3140   1.3444   1.3444   1.3695   1.3695   1.4932   1.4932
     1.9154   1.9155   2.8791   2.8791   3.2059   3.2059   3.3056   3.3057
     3.8673   3.8673   4.2003   4.2003   4.2518   4.2519   4.6077   4.6077
     4.7077   4.7077   4.8590   4.8591   5.1327   5.1328   5.1939   5.1939

     occupation numbers 
     1.0000   1.0000   1.0000   1.0000   1.0000   1.0000   1.0000   1.0000
     1.0000   1.0000   1.0000   1.0000   1.0000   1.0000   1.0000   1.0000
     1.0000   1.0000   1.0000   1.0000   1.0000   1.0000   1.0000   1.0000
     1.0000   1.0000   1.0000   1.0000   1.0000   1.0000   1.0000   1.0000
     1.0000   1.0000   1.0000   1.0000   1.0000   1.0000   1.0000   1.0000
     1.0000   1.0000   1.0000   1.0000   1.0000   1.0000   1.0000   1.0000
     1.0000   1.0000   1.0000   1.0000   1.0000   1.0000   1.0000   1.0000
     1.0000   1.0000   1.0000   1.0000   1.0000   1.0000   1.0000   1.0000
     1.0000   1.0000   1.0000   1.0000   1.0000   1.0000   1.0000   1.0000

          k = 0.0000-0.2887 0.1053 (  8660 PWs)   bands (ev):

   -11.3885 -11.3884 -11.3102 -11.3101 -11.0963 -11.0962 -11.0184 -11.0183
     0.1525   0.1525   0.1956   0.1956   0.2725   0.2725   0.4133   0.4134
     0.4838   0.4839   0.5201   0.5201   0.5444   0.5444   0.5723   0.5723
     0.6325   0.6325   0.6448   0.6448   0.7020   0.7020   0.8031   0.8031
     1.1547   1.1547   1.2184   1.2184   1.2270   1.2270   1.2508   1.2508
     1.3333   1.3333   1.3618   1.3618   1.3785   1.3785   1.4443   1.4443
     2.1688   2.1689   2.6740   2.6740   3.3279   3.3279   3.3572   3.3572
     3.8216   3.8216   3.9672   3.9672   4.3032   4.3033   4.4882   4.4883
     4.9060   4.9061   4.9742   4.9742   5.1097   5.1097   5.1470   5.1471

     occupation numbers 
     1.0000   1.0000   1.0000   1.0000   1.0000   1.0000   1.0000   1.0000
     1.0000   1.0000   1.0000   1.0000   1.0000   1.0000   1.0000   1.0000
     1.0000   1.0000   1.0000   1.0000   1.0000   1.0000   1.0000   1.0000
     1.0000   1.0000   1.0000   1.0000   1.0000   1.0000   1.0000   1.0000
     1.0000   1.0000   1.0000   1.0000   1.0000   1.0000   1.0000   1.0000
     1.0000   1.0000   1.0000   1.0000   1.0000   1.0000   1.0000   1.0000
     1.0000   1.0000   1.0000   1.0000   1.0000   1.0000   1.0000   1.0000
     1.0000   1.0000   1.0000   1.0000   1.0000   1.0000   1.0000   1.0000
     1.0000   1.0000   1.0000   1.0000   1.0000   1.0000   1.0000   1.0000

          k = 0.0000-0.2887-0.1580 (  8680 PWs)   bands (ev):

   -11.3545 -11.3545 -11.3544 -11.3544 -11.0522 -11.0522 -11.0521 -11.0521
     0.1728   0.1728   0.1728   0.1728   0.3516   0.3516   0.3516   0.3516
     0.4990   0.4990   0.4990   0.4990   0.5536   0.5536   0.5536   0.5536
     0.6762   0.6762   0.6762   0.6763   0.6983   0.6984   0.6984   0.6984
     1.1882   1.1882   1.1882   1.1882   1.2326   1.2326   1.2326   1.2326
     1.3494   1.3494   1.3494   1.3495   1.4102   1.4102   1.4102   1.4102
     2.4339   2.4339   2.4339   2.4339   3.3871   3.3871   3.3871   3.3871
     3.8282   3.8282   3.8283   3.8283   4.3841   4.3842   4.3842   4.3842
     5.0401   5.0402   5.0402   5.0402   5.0722   5.0722   5.0723   5.0723

     occupation numbers 
     1.0000   1.0000   1.0000   1.0000   1.0000   1.0000   1.0000   1.0000
     1.0000   1.0000   1.0000   1.0000   1.0000   1.0000   1.0000   1.0000
     1.0000   1.0000   1.0000   1.0000   1.0000   1.0000   1.0000   1.0000
     1.0000   1.0000   1.0000   1.0000   1.0000   1.0000   1.0000   1.0000
     1.0000   1.0000   1.0000   1.0000   1.0000   1.0000   1.0000   1.0000
     1.0000   1.0000   1.0000   1.0000   1.0000   1.0000   1.0000   1.0000
     1.0000   1.0000   1.0000   1.0000   1.0000   1.0000   1.0000   1.0000
     1.0000   1.0000   1.0000   1.0000   1.0000   1.0000   1.0000   1.0000
     1.0000   1.0000   1.0000   1.0000   1.0000   1.0000   1.0000   1.0000

          k = 0.1667 0.0962 0.0000 (  8684 PWs)   bands (ev):

   -11.5351 -11.2847 -11.2846 -11.1357 -11.0365 -11.0365 -11.0289 -10.9501
     0.1935   0.1935   0.2464   0.2464   0.2696   0.3200   0.4173   0.4356
     0.4849   0.4849   0.4944   0.4944   0.5122   0.5323   0.6157   0.6598
     0.6678   0.6678   0.7711   0.7978   0.7978   0.9016   0.9732   1.0199
     1.1471   1.1882   1.1936   1.2405   1.2885   1.2885   1.2951   1.2951
     1.2954   1.2954   1.3643   1.4002   1.4512   1.4512   1.5183   1.5584
     1.5962   2.0055   2.2501   2.2501   2.5382   3.0517   3.3159   3.3159
     3.3431   3.8137   3.8137   3.9929   4.4316   4.4468   4.5145   4.5145
     4.5271   4.5922   4.6942   4.6942   4.9569   4.9569   5.3418   5.3705

     occupation numbers 
     1.0000   1.0000   1.0000   1.0000   1.0000   1.0000   1.0000   1.0000
     1.0000   1.0000   1.0000   1.0000   1.0000   1.0000   1.0000   1.0000
     1.0000   1.0000   1.0000   1.0000   1.0000   1.0000   1.0000   1.0000
     1.0000   1.0000   1.0000   1.0000   1.0000   1.0000   1.0000   1.0000
     1.0000   1.0000   1.0000   1.0000   1.0000   1.0000   1.0000   1.0000
     1.0000   1.0000   1.0000   1.0000   1.0000   1.0000   1.0000   1.0000
     1.0000   1.0000   1.0000   1.0000   1.0000   1.0000   1.0000   1.0000
     1.0000   1.0000   1.0000   1.0000   1.0000   1.0000   1.0000   1.0000
     1.0000   1.0000   1.0000   1.0000   1.0000   1.0000   1.0000   1.0000

          k = 0.1667 0.0962 0.0527 (  8692 PWs)   bands (ev):

   -11.5267 -11.3500 -11.2189 -11.1321 -11.0610 -11.0377 -11.0128 -10.9528
     0.1856   0.2302   0.2373   0.2639   0.2852   0.3160   0.4193   0.4311
     0.4673   0.4705   0.5062   0.5106   0.5210   0.5237   0.6107   0.6229
     0.6404   0.7103   0.7685   0.8050   0.8107   0.8322   0.9575   1.0023
     1.1544   1.1863   1.1919   1.2608   1.2630   1.2647   1.2798   1.3032
     1.3107   1.3252   1.3623   1.3993   1.4276   1.4443   1.4781   1.5561
     1.7761   2.0063   2.1752   2.3290   2.5419   3.0283   3.0757   3.3958
     3.5732   3.6260   3.9900   4.0046   4.3225   4.3935   4.4597   4.5206
     4.5421   4.5833   4.6401   4.8474   4.8751   5.0653   5.3272   5.3567

     occupation numbers 
     1.0000   1.0000   1.0000   1.0000   1.0000   1.0000   1.0000   1.0000
     1.0000   1.0000   1.0000   1.0000   1.0000   1.0000   1.0000   1.0000
     1.0000   1.0000   1.0000   1.0000   1.0000   1.0000   1.0000   1.0000
     1.0000   1.0000   1.0000   1.0000   1.0000   1.0000   1.0000   1.0000
     1.0000   1.0000   1.0000   1.0000   1.0000   1.0000   1.0000   1.0000
     1.0000   1.0000   1.0000   1.0000   1.0000   1.0000   1.0000   1.0000
     1.0000   1.0000   1.0000   1.0000   1.0000   1.0000   1.0000   1.0000
     1.0000   1.0000   1.0000   1.0000   1.0000   1.0000   1.0000   1.0000
     1.0000   1.0000   1.0000   1.0000   1.0000   1.0000   1.0000   1.0000

          k = 0.1667 0.0962 0.1053 (  8697 PWs)   bands (ev):

   -11.5019 -11.4106 -11.1573 -11.1217 -11.0846 -11.0634 -10.9916 -10.9609
     0.1990   0.2474   0.2519   0.2960   0.3023   0.3509   0.4163   0.4254
     0.4508   0.4593   0.4836   0.4976   0.5459   0.5486   0.5887   0.5964
     0.5982   0.7012   0.7353   0.7605   0.8316   0.8471   0.9155   0.9580
     1.1729   1.1983   1.2029   1.2300   1.2411   1.2563   1.2850   1.3046
     1.3298   1.3519   1.3558   1.3983   1.4020   1.4104   1.5051   1.5469
     2.0191   2.0646   2.1081   2.4080   2.5284   2.7151   3.1541   3.4448
     3.5484   3.7966   4.0129   4.0234   4.2203   4.3086   4.3741   4.4377
     4.5858   4.6027   4.6841   4.7444   5.0435   5.1655   5.2767   5.3159

     occupation numbers 
     1.0000   1.0000   1.0000   1.0000   1.0000   1.0000   1.0000   1.0000
     1.0000   1.0000   1.0000   1.0000   1.0000   1.0000   1.0000   1.0000
     1.0000   1.0000   1.0000   1.0000   1.0000   1.0000   1.0000   1.0000
     1.0000   1.0000   1.0000   1.0000   1.0000   1.0000   1.0000   1.0000
     1.0000   1.0000   1.0000   1.0000   1.0000   1.0000   1.0000   1.0000
     1.0000   1.0000   1.0000   1.0000   1.0000   1.0000   1.0000   1.0000
     1.0000   1.0000   1.0000   1.0000   1.0000   1.0000   1.0000   1.0000
     1.0000   1.0000   1.0000   1.0000   1.0000   1.0000   1.0000   1.0000
     1.0000   1.0000   1.0000   1.0000   1.0000   1.0000   1.0000   1.0000

          k = 0.1667 0.0962-0.1580 (  8678 PWs)   bands (ev):

   -11.4624 -11.4624 -11.1054 -11.1054 -11.1043 -11.1042 -10.9740 -10.9740
     0.2232   0.2232   0.2783   0.2783   0.3725   0.3725   0.4278   0.4278
     0.4359   0.4359   0.4671   0.4671   0.5748   0.5748   0.5759   0.5759
     0.6014   0.6014   0.7492   0.7492   0.8685   0.8685   0.9027   0.9027
     1.1991   1.1991   1.2200   1.2200   1.2266   1.2266   1.2992   1.2992
     1.3452   1.3452   1.3761   1.3762   1.4010   1.4010   1.5292   1.5292
     2.0540   2.0540   2.3875   2.3875   2.4794   2.4794   3.2826   3.2827
     3.7747   3.7747   3.9668   3.9668   4.2839   4.2840   4.3405   4.3406
     4.6550   4.6550   4.6589   4.6589   5.1815   5.1815   5.2508   5.2509

     occupation numbers 
     1.0000   1.0000   1.0000   1.0000   1.0000   1.0000   1.0000   1.0000
     1.0000   1.0000   1.0000   1.0000   1.0000   1.0000   1.0000   1.0000
     1.0000   1.0000   1.0000   1.0000   1.0000   1.0000   1.0000   1.0000
     1.0000   1.0000   1.0000   1.0000   1.0000   1.0000   1.0000   1.0000
     1.0000   1.0000   1.0000   1.0000   1.0000   1.0000   1.0000   1.0000
     1.0000   1.0000   1.0000   1.0000   1.0000   1.0000   1.0000   1.0000
     1.0000   1.0000   1.0000   1.0000   1.0000   1.0000   1.0000   1.0000
     1.0000   1.0000   1.0000   1.0000   1.0000   1.0000   1.0000   1.0000
     1.0000   1.0000   1.0000   1.0000   1.0000   1.0000   1.0000   1.0000

          k = 0.1667 0.1925 0.0000 (  8663 PWs)   bands (ev):

   -11.4615 -11.2373 -11.2332 -11.2332 -11.0899 -11.0899 -11.0035 -10.9516
     0.1789   0.1789   0.2140   0.2140   0.2531   0.3193   0.4222   0.4232
     0.4689   0.5036   0.5036   0.5547   0.5674   0.5674   0.5757   0.6135
     0.6135   0.6888   0.6896   0.7136   0.7136   0.9091   0.9616   1.0378
     1.1264   1.1294   1.1919   1.2298   1.2892   1.2892   1.3009   1.3009
     1.3043   1.3043   1.3686   1.3761   1.3761   1.3856   1.5453   1.5774
     1.6986   2.0331   2.5870   2.5870   2.8312   3.1806   3.1825   3.1825
     3.5546   3.6338   3.9383   4.0642   4.0643   4.3846   4.4953   4.4953
     4.5395   4.5395   4.7373   4.7727   4.7728   4.7801   5.2229   5.2269

     occupation numbers 
     1.0000   1.0000   1.0000   1.0000   1.0000   1.0000   1.0000   1.0000
     1.0000   1.0000   1.0000   1.0000   1.0000   1.0000   1.0000   1.0000
     1.0000   1.0000   1.0000   1.0000   1.0000   1.0000   1.0000   1.0000
     1.0000   1.0000   1.0000   1.0000   1.0000   1.0000   1.0000   1.0000
     1.0000   1.0000   1.0000   1.0000   1.0000   1.0000   1.0000   1.0000
     1.0000   1.0000   1.0000   1.0000   1.0000   1.0000   1.0000   1.0000
     1.0000   1.0000   1.0000   1.0000   1.0000   1.0000   1.0000   1.0000
     1.0000   1.0000   1.0000   1.0000   1.0000   1.0000   1.0000   1.0000
     1.0000   1.0000   1.0000   1.0000   1.0000   1.0000   1.0000   1.0000

          k = 0.1667 0.1925 0.0527 (  8669 PWs)   bands (ev):

   -11.4537 -11.2925 -11.2321 -11.1738 -11.1273 -11.0532 -11.0113 -10.9562
     0.1682   0.2064   0.2181   0.2468   0.2495   0.3117   0.4168   0.4208
     0.4664   0.4898   0.5086   0.5475   0.5676   0.5727   0.5891   0.5946
     0.6264   0.6832   0.6843   0.7036   0.7478   0.8946   0.9002   0.9890
     1.1272   1.1380   1.1975   1.2485   1.2649   1.2678   1.2772   1.3042
     1.3124   1.3384   1.3615   1.3662   1.3833   1.4088   1.4814   1.5591
     1.8590   2.0808   2.4897   2.6816   2.8489   2.9644   3.2176   3.3704
     3.5618   3.6501   3.9073   3.9270   4.1361   4.3132   4.3299   4.3854
     4.6326   4.6837   4.7186   4.7839   4.7933   4.8894   5.2077   5.2199

     occupation numbers 
     1.0000   1.0000   1.0000   1.0000   1.0000   1.0000   1.0000   1.0000
     1.0000   1.0000   1.0000   1.0000   1.0000   1.0000   1.0000   1.0000
     1.0000   1.0000   1.0000   1.0000   1.0000   1.0000   1.0000   1.0000
     1.0000   1.0000   1.0000   1.0000   1.0000   1.0000   1.0000   1.0000
     1.0000   1.0000   1.0000   1.0000   1.0000   1.0000   1.0000   1.0000
     1.0000   1.0000   1.0000   1.0000   1.0000   1.0000   1.0000   1.0000
     1.0000   1.0000   1.0000   1.0000   1.0000   1.0000   1.0000   1.0000
     1.0000   1.0000   1.0000   1.0000   1.0000   1.0000   1.0000   1.0000
     1.0000   1.0000   1.0000   1.0000   1.0000   1.0000   1.0000   1.0000

          k = 0.1667 0.1925 0.1053 (  8681 PWs)   bands (ev):

   -11.4310 -11.3476 -11.2171 -11.1626 -11.1184 -11.0343 -11.0195 -10.9696
     0.1798   0.2236   0.2289   0.2840   0.2888   0.3058   0.3990   0.4058
     0.4635   0.4771   0.5040   0.5280   0.5671   0.5765   0.5984   0.6172
     0.6351   0.6676   0.6695   0.7269   0.7652   0.7923   0.8730   0.8834
     1.1520   1.1597   1.2098   1.2267   1.2368   1.2459   1.2716   1.2979
     1.3313   1.3589   1.3629   1.3700   1.3773   1.4317   1.4470   1.5232
     2.1335   2.1814   2.3905   2.7122   2.7683   2.8650   3.3478   3.5298
     3.5975   3.6805   3.7501   3.9073   3.9077   4.1071   4.4017   4.4277
     4.5342   4.6558   4.7998   4.8255   4.9604   5.0057   5.1604   5.1896

     occupation numbers 
     1.0000   1.0000   1.0000   1.0000   1.0000   1.0000   1.0000   1.0000
     1.0000   1.0000   1.0000   1.0000   1.0000   1.0000   1.0000   1.0000
     1.0000   1.0000   1.0000   1.0000   1.0000   1.0000   1.0000   1.0000
     1.0000   1.0000   1.0000   1.0000   1.0000   1.0000   1.0000   1.0000
     1.0000   1.0000   1.0000   1.0000   1.0000   1.0000   1.0000   1.0000
     1.0000   1.0000   1.0000   1.0000   1.0000   1.0000   1.0000   1.0000
     1.0000   1.0000   1.0000   1.0000   1.0000   1.0000   1.0000   1.0000
     1.0000   1.0000   1.0000   1.0000   1.0000   1.0000   1.0000   1.0000
     1.0000   1.0000   1.0000   1.0000   1.0000   1.0000   1.0000   1.0000

          k = 0.1667 0.1925-0.1580 (  8676 PWs)   bands (ev):

   -11.3949 -11.3948 -11.1933 -11.1933 -11.0708 -11.0708 -10.9911 -10.9910
     0.2037   0.2037   0.2556   0.2556   0.3582   0.3582   0.3622   0.3622
     0.4674   0.4674   0.5087   0.5087   0.5667   0.5667   0.6436   0.6437
     0.6501   0.6501   0.6610   0.6610   0.7847   0.7847   0.8375   0.8375
     1.1905   1.1906   1.1922   1.1922   1.2261   1.2262   1.2871   1.2871
     1.3472   1.3472   1.3696   1.3697   1.3996   1.3996   1.4853   1.4853
     2.2883   2.2883   2.4294   2.4294   2.8358   2.8358   3.5625   3.5625
     3.6476   3.6476   3.6923   3.6923   3.9571   3.9571   4.4517   4.4517
     4.5547   4.5548   4.8401   4.8401   5.0822   5.0822   5.1158   5.1159

     occupation numbers 
     1.0000   1.0000   1.0000   1.0000   1.0000   1.0000   1.0000   1.0000
     1.0000   1.0000   1.0000   1.0000   1.0000   1.0000   1.0000   1.0000
     1.0000   1.0000   1.0000   1.0000   1.0000   1.0000   1.0000   1.0000
     1.0000   1.0000   1.0000   1.0000   1.0000   1.0000   1.0000   1.0000
     1.0000   1.0000   1.0000   1.0000   1.0000   1.0000   1.0000   1.0000
     1.0000   1.0000   1.0000   1.0000   1.0000   1.0000   1.0000   1.0000
     1.0000   1.0000   1.0000   1.0000   1.0000   1.0000   1.0000   1.0000
     1.0000   1.0000   1.0000   1.0000   1.0000   1.0000   1.0000   1.0000
     1.0000   1.0000   1.0000   1.0000   1.0000   1.0000   1.0000   1.0000

          k = 0.1667 0.2887 0.0000 (  8634 PWs)   bands (ev):

   -11.3549 -11.3549 -11.1621 -11.1620 -11.1620 -11.1620 -10.9731 -10.9730
     0.1855   0.1855   0.1855   0.1855   0.2778   0.2778   0.4009   0.4010
     0.5253   0.5253   0.5433   0.5433   0.5434   0.5434   0.6046   0.6046
     0.6476   0.6476   0.6476   0.6476   0.7965   0.7965   1.0197   1.0197
     1.1125   1.1126   1.2090   1.2090   1.2950   1.2950   1.2950   1.2950
     1.3272   1.3272   1.3272   1.3272   1.3750   1.3750   1.5488   1.5488
     1.8979   1.8979   2.9285   2.9285   2.9285   2.9285   3.3081   3.3081
     3.3667   3.3667   4.0294   4.0294   4.3798   4.3798   4.3798   4.3798
     4.5302   4.5302   4.5302   4.5302   4.9893   4.9893   5.0322   5.0322

     occupation numbers 
     1.0000   1.0000   1.0000   1.0000   1.0000   1.0000   1.0000   1.0000
     1.0000   1.0000   1.0000   1.0000   1.0000   1.0000   1.0000   1.0000
     1.0000   1.0000   1.0000   1.0000   1.0000   1.0000   1.0000   1.0000
     1.0000   1.0000   1.0000   1.0000   1.0000   1.0000   1.0000   1.0000
     1.0000   1.0000   1.0000   1.0000   1.0000   1.0000   1.0000   1.0000
     1.0000   1.0000   1.0000   1.0000   1.0000   1.0000   1.0000   1.0000
     1.0000   1.0000   1.0000   1.0000   1.0000   1.0000   1.0000   1.0000
     1.0000   1.0000   1.0000   1.0000   1.0000   1.0000   1.0000   1.0000
     1.0000   1.0000   1.0000   1.0000   1.0000   1.0000   1.0000   1.0000

          k = 0.1667 0.2887 0.0527 (  8662 PWs)   bands (ev):

   -11.3483 -11.3483 -11.2117 -11.2116 -11.1127 -11.1126 -10.9794 -10.9794
[...]
     1.3904   1.3904   1.3970   1.3970   1.4641   1.4641   1.4806   1.4806
     1.9637   1.9637   1.9941   1.9941   2.2551   2.2551   2.4013   2.4013
     3.2955   3.2955   3.6531   3.6531   3.7200   3.7200   4.0322   4.0322
     4.4283   4.4283   4.5339   4.5339   4.6682   4.6682   4.7015   4.7015

     occupation numbers 
     1.0000   1.0000   1.0000   1.0000   1.0000   1.0000   1.0000   1.0000
     1.0000   1.0000   1.0000   1.0000   1.0000   1.0000   1.0000   1.0000
     1.0000   1.0000   1.0000   1.0000   1.0000   1.0000   1.0000   1.0000
     1.0000   1.0000   1.0000   1.0000   1.0000   1.0000   1.0000   1.0000
     1.0000   1.0000   1.0000   1.0000   1.0000   1.0000   1.0000   1.0000
     1.0000   1.0000   1.0000   1.0000   1.0000   1.0000   1.0000   1.0000
     1.0000   1.0000   1.0000   1.0000   1.0000   1.0000   1.0000   1.0000
     1.0000   1.0000   1.0000   1.0000   1.0000   1.0000   1.0000   1.0000
     1.0000   1.0000   1.0000   1.0000   1.0000   1.0000   1.0000   1.0000

          k = 0.5000-0.0962-0.0527 (  8686 PWs)   bands (ev):

   -11.1321 -11.1321 -11.0610 -11.0610 -11.0128 -11.0128 -10.9529 -10.9528
     0.2373   0.2374   0.2852   0.2852   0.3160   0.3160   0.5062   0.5062
     0.6228   0.6228   0.6404   0.6404   0.7104   0.7104   0.7685   0.7686
     0.8049   0.8049   0.8107   0.8107   0.9575   0.9575   1.0022   1.0022
     1.1863   1.1863   1.2608   1.2608   1.2798   1.2798   1.3032   1.3032
     1.3994   1.3994   1.4277   1.4277   1.4782   1.4782   1.5561   1.5561
     2.0064   2.0064   2.1753   2.1753   2.3291   2.3291   2.5421   2.5421
     3.0755   3.0755   3.3957   3.3957   3.6258   3.6258   3.9898   3.9898
     4.3225   4.3225   4.4595   4.4596   4.5831   4.5831   4.6401   4.6401

     occupation numbers 
     1.0000   1.0000   1.0000   1.0000   1.0000   1.0000   1.0000   1.0000
     1.0000   1.0000   1.0000   1.0000   1.0000   1.0000   1.0000   1.0000
     1.0000   1.0000   1.0000   1.0000   1.0000   1.0000   1.0000   1.0000
     1.0000   1.0000   1.0000   1.0000   1.0000   1.0000   1.0000   1.0000
     1.0000   1.0000   1.0000   1.0000   1.0000   1.0000   1.0000   1.0000
     1.0000   1.0000   1.0000   1.0000   1.0000   1.0000   1.0000   1.0000
     1.0000   1.0000   1.0000   1.0000   1.0000   1.0000   1.0000   1.0000
     1.0000   1.0000   1.0000   1.0000   1.0000   1.0000   1.0000   1.0000
     1.0000   1.0000   1.0000   1.0000   1.0000   1.0000   1.0000   1.0000

          k = 0.5000-0.0962-0.1053 (  8690 PWs)   bands (ev):

   -11.1217 -11.1217 -11.0846 -11.0846 -10.9916 -10.9916 -10.9609 -10.9609
     0.2520   0.2520   0.3023   0.3023   0.3509   0.3509   0.4836   0.4836
     0.5886   0.5886   0.5981   0.5982   0.7354   0.7354   0.7606   0.7606
     0.8316   0.8316   0.8470   0.8470   0.9156   0.9156   0.9579   0.9579
     1.1983   1.1983   1.2563   1.2563   1.2851   1.2851   1.3046   1.3046
     1.3984   1.3984   1.4104   1.4104   1.5052   1.5052   1.5470   1.5470
     2.0192   2.0192   2.1082   2.1082   2.4081   2.4081   2.5285   2.5286
     3.1539   3.1539   3.4446   3.4446   3.5483   3.5483   4.0128   4.0128
     4.2201   4.2201   4.4375   4.4375   4.6026   4.6026   4.6841   4.6841

     occupation numbers 
     1.0000   1.0000   1.0000   1.0000   1.0000   1.0000   1.0000   1.0000
     1.0000   1.0000   1.0000   1.0000   1.0000   1.0000   1.0000   1.0000
     1.0000   1.0000   1.0000   1.0000   1.0000   1.0000   1.0000   1.0000
     1.0000   1.0000   1.0000   1.0000   1.0000   1.0000   1.0000   1.0000
     1.0000   1.0000   1.0000   1.0000   1.0000   1.0000   1.0000   1.0000
     1.0000   1.0000   1.0000   1.0000   1.0000   1.0000   1.0000   1.0000
     1.0000   1.0000   1.0000   1.0000   1.0000   1.0000   1.0000   1.0000
     1.0000   1.0000   1.0000   1.0000   1.0000   1.0000   1.0000   1.0000
     1.0000   1.0000   1.0000   1.0000   1.0000   1.0000   1.0000   1.0000

     highest occupied level (ev):     5.5229

!    total energy              =   -1446.50435861 Ry
     estimated scf accuracy    <          3.8E-09 Ry

     The total energy is the sum of the following terms:
     one-electron contribution =    -662.67557170 Ry
     hartree contribution      =     489.21272020 Ry
     xc contribution           =    -437.43150601 Ry
     ewald contribution        =    -835.61000110 Ry

     convergence has been achieved in  35 iterations

     Forces acting on atoms (cartesian axes, Ry/au):

     atom    1 type  1   force =     0.00000000    0.00000756   -0.00322332
     atom    2 type  1   force =     0.00000000    0.00001083   -0.00318251
     atom    3 type  2   force =     0.00000000    0.00000240    0.00321456
     atom    4 type  2   force =     0.00000000   -0.00000251    0.00321257
     atom    5 type  1   force =     0.00000000   -0.00002221   -0.00321228
     atom    6 type  1   force =     0.00000000    0.00002251   -0.00324070
     atom    7 type  2   force =     0.00000000    0.00000215    0.00320960
     atom    8 type  2   force =     0.00000000   -0.00000422    0.00321190
     atom    9 type  1   force =     0.00000000   -0.00001872   -0.00319939
     atom   10 type  1   force =     0.00000000    0.00000914   -0.00319850
     atom   11 type  2   force =     0.00000000    0.00000117    0.00321502
     atom   12 type  2   force =     0.00000000   -0.00000260    0.00321222
     atom   13 type  1   force =     0.00000000    0.00000282   -0.00321681
     atom   14 type  1   force =     0.00000000   -0.00000894   -0.00322322
     atom   15 type  2   force =     0.00000000    0.00000263    0.00320829
     atom   16 type  2   force =     0.00000000   -0.00000200    0.00321259
     The non-local contrib.  to forces
     atom    1 type  1   force =     0.00000000    0.00000946   -0.05956636
     atom    2 type  1   force =     0.00000000   -0.00000303   -0.05954716
     atom    3 type  2   force =     0.00000000    0.00020684   -0.04386250
     atom    4 type  2   force =     0.00000000   -0.00021326   -0.04386895
     atom    5 type  1   force =     0.00000000    0.00001046   -0.05956074
     atom    6 type  1   force =     0.00000000    0.00000107   -0.05957609
     atom    7 type  2   force =     0.00000000    0.00021260   -0.04388431
     atom    8 type  2   force =     0.00000000   -0.00021660   -0.04387217
     atom    9 type  1   force =     0.00000000    0.00000633   -0.05956142
     atom   10 type  1   force =     0.00000000   -0.00001012   -0.05954729
     atom   11 type  2   force =     0.00000000    0.00021190   -0.04385589
     atom   12 type  2   force =     0.00000000   -0.00020512   -0.04387153
     atom   13 type  1   force =     0.00000000    0.00000377   -0.05955834
     atom   14 type  1   force =     0.00000000   -0.00001674   -0.05957985
     atom   15 type  2   force =     0.00000000    0.00020830   -0.04388810
     atom   16 type  2   force =     0.00000000   -0.00020366   -0.04386976
     The ionic contribution  to forces
     atom    1 type  1   force =    -0.00000000    0.00000000   -0.33120450
     atom    2 type  1   force =     0.00000000   -0.00000000   -0.33120450
     atom    3 type  2   force =    -0.00000000    0.00000000    0.33120450
     atom    4 type  2   force =     0.00000000   -0.00000000    0.33120450
     atom    5 type  1   force =    -0.00000000    0.00000000   -0.33120450
     atom    6 type  1   force =     0.00000000   -0.00000000   -0.33120450
     atom    7 type  2   force =    -0.00000000    0.00000000    0.33120450
     atom    8 type  2   force =     0.00000000   -0.00000000    0.33120450
     atom    9 type  1   force =    -0.00000000    0.00000000   -0.33120450
     atom   10 type  1   force =     0.00000000   -0.00000000   -0.33120450
     atom   11 type  2   force =    -0.00000000    0.00000000    0.33120450
     atom   12 type  2   force =     0.00000000   -0.00000000    0.33120450
     atom   13 type  1   force =    -0.00000000    0.00000000   -0.33120450
     atom   14 type  1   force =     0.00000000   -0.00000000   -0.33120450
     atom   15 type  2   force =    -0.00000000    0.00000000    0.33120450
     atom   16 type  2   force =     0.00000000   -0.00000000    0.33120450
     The local contribution  to forces
     atom    1 type  1   force =    -0.00000009   -0.00002192    0.38351372
     atom    2 type  1   force =    -0.00000000    0.00000108    0.38346390
     atom    3 type  2   force =    -0.00000002   -0.00020382   -0.28448617
     atom    4 type  2   force =    -0.00000000    0.00019613   -0.28449168
     atom    5 type  1   force =    -0.00000009   -0.00001955    0.38348201
     atom    6 type  1   force =     0.00000000   -0.00001432    0.38352025
     atom    7 type  2   force =    -0.00000002   -0.00020588   -0.28448806
     atom    8 type  2   force =     0.00000000    0.00020211   -0.28447380
     atom    9 type  1   force =    -0.00000009   -0.00001209    0.38348724
     atom   10 type  1   force =    -0.00000000    0.00002605    0.38346740
     atom   11 type  2   force =    -0.00000002   -0.00019660   -0.28448465
     atom   12 type  2   force =    -0.00000000    0.00020637   -0.28447903
     atom   13 type  1   force =    -0.00000009   -0.00000943    0.38347255
     atom   14 type  1   force =    -0.00000000    0.00004591    0.38352880
     atom   15 type  2   force =    -0.00000002   -0.00019426   -0.28447645
     atom   16 type  2   force =     0.00000000    0.00019930   -0.28449655
     The core correction contribution to forces
     atom    1 type  1   force =    -0.00000006    0.00000518    0.00407599
     atom    2 type  1   force =    -0.00000001   -0.00000497    0.00407290
     atom    3 type  2   force =    -0.00000000   -0.00000232    0.00034555
     atom    4 type  2   force =    -0.00000000    0.00000240    0.00034673
     atom    5 type  1   force =    -0.00000006    0.00000615    0.00407474
     atom    6 type  1   force =    -0.00000001   -0.00000473    0.00407779
     atom    7 type  2   force =    -0.00000000   -0.00000243    0.00034609
     atom    8 type  2   force =    -0.00000000    0.00000246    0.00034484
     atom    9 type  1   force =    -0.00000000    0.00000576    0.00407654
     atom   10 type  1   force =     0.00000005   -0.00000616    0.00407320
     atom   11 type  2   force =     0.00000000   -0.00000240    0.00034550
     atom   12 type  2   force =     0.00000000    0.00000231    0.00034681
     atom   13 type  1   force =    -0.00000000    0.00000493    0.00407539
     atom   14 type  1   force =     0.00000004   -0.00000626    0.00407693
     atom   15 type  2   force =     0.00000000   -0.00000231    0.00034616
     atom   16 type  2   force =     0.00000000    0.00000228    0.00034473
     The Hubbard contrib.    to forces
     atom    1 type  1   force =     0.00000000    0.00000000    0.00000000
     atom    2 type  1   force =     0.00000000    0.00000000    0.00000000
     atom    3 type  2   force =     0.00000000    0.00000000    0.00000000
     atom    4 type  2   force =     0.00000000    0.00000000    0.00000000
     atom    5 type  1   force =     0.00000000    0.00000000    0.00000000
     atom    6 type  1   force =     0.00000000    0.00000000    0.00000000
     atom    7 type  2   force =     0.00000000    0.00000000    0.00000000
     atom    8 type  2   force =     0.00000000    0.00000000    0.00000000
     atom    9 type  1   force =     0.00000000    0.00000000    0.00000000
     atom   10 type  1   force =     0.00000000    0.00000000    0.00000000
     atom   11 type  2   force =     0.00000000    0.00000000    0.00000000
     atom   12 type  2   force =     0.00000000    0.00000000    0.00000000
     atom   13 type  1   force =     0.00000000    0.00000000    0.00000000
     atom   14 type  1   force =     0.00000000    0.00000000    0.00000000
     atom   15 type  2   force =     0.00000000    0.00000000    0.00000000
     atom   16 type  2   force =     0.00000000    0.00000000    0.00000000
     The SCF correction term to forces
     atom    1 type  1   force =    -0.00000000    0.00001523   -0.00004895
     atom    2 type  1   force =     0.00000000    0.00001815    0.00002556
     atom    3 type  2   force =    -0.00000000    0.00000210    0.00000638
     atom    4 type  2   force =     0.00000000    0.00001261    0.00001518
     atom    5 type  1   force =    -0.00000000   -0.00001888   -0.00001056
     atom    6 type  1   force =     0.00000000    0.00004088   -0.00006494
     atom    7 type  2   force =    -0.00000000   -0.00000175    0.00002461
     atom    8 type  2   force =     0.00000000    0.00000820    0.00000174
     atom    9 type  1   force =    -0.00000000   -0.00001832   -0.00000404
     atom   10 type  1   force =     0.00000000   -0.00000022    0.00000591
     atom   11 type  2   force =    -0.00000000   -0.00001134   -0.00000122
     atom   12 type  2   force =     0.00000000   -0.00000576    0.00000469
     atom   13 type  1   force =    -0.00000000    0.00000395   -0.00000869
     atom   14 type  1   force =     0.00000000   -0.00003145   -0.00005138
     atom   15 type  2   force =    -0.00000000   -0.00000871    0.00001540
     atom   16 type  2   force =     0.00000000    0.00000047    0.00002289

     Total force =     0.012849     Total SCF correction =     0.000127

     init_run     :     12.42s CPU     12.82s WALL (       1 calls)
     electrons    :    905.58s CPU    927.78s WALL (       1 calls)
     forces       :      5.51s CPU      5.55s WALL (       1 calls)

     Called by init_run:
     wfcinit      :      6.98s CPU      7.26s WALL (       1 calls)
     wfcinit:atom :      0.04s CPU      0.04s WALL (      10 calls)
     wfcinit:wfcr :      6.61s CPU      6.88s WALL (      10 calls)
     potinit      :      2.05s CPU      2.10s WALL (       1 calls)
     hinit0       :      2.45s CPU      2.49s WALL (       1 calls)

     Called by electrons:
     c_bands      :    812.41s CPU    831.24s WALL (      35 calls)
     sum_band     :     75.37s CPU     78.29s WALL (      35 calls)
     v_of_rho     :      7.25s CPU      7.51s WALL (      36 calls)
     v_h          :      0.41s CPU      0.43s WALL (      36 calls)
     v_xc         :      7.09s CPU      7.33s WALL (      37 calls)
     newd         :      9.09s CPU      9.17s WALL (      36 calls)
     mix_rho      :      1.25s CPU      1.30s WALL (      35 calls)

     Called by c_bands:
     init_us_2    :      3.56s CPU      3.60s WALL (     720 calls)
     init_us_2:cp :      3.56s CPU      3.59s WALL (     720 calls)
     cegterg      :    694.54s CPU    713.23s WALL (     350 calls)

     Called by sum_band:
     sum_band:wei :      0.03s CPU      0.03s WALL (      35 calls)
     sum_band:loo :     64.96s CPU     67.58s WALL (      35 calls)
     sum_band:buf :      0.47s CPU      0.50s WALL (     350 calls)
     sum_band:ini :      1.66s CPU      1.67s WALL (     350 calls)
     sum_band:cal :     15.17s CPU     15.29s WALL (     350 calls)
     sum_band:bec :      0.14s CPU      0.14s WALL (     350 calls)
     addusdens    :      6.64s CPU      6.75s WALL (      35 calls)
     addusd:skk   :      0.04s CPU      0.04s WALL (      70 calls)
     addusd:dgemm :      0.82s CPU      0.85s WALL (      70 calls)
     addusd:qvan2 :      1.73s CPU      1.74s WALL (      70 calls)

     Called by *egterg:
     cdiaghg      :     52.49s CPU     53.76s WALL (    2555 calls)
     cegterg:over :     64.16s CPU     64.39s WALL (    2205 calls)
     cegterg:upda :     35.61s CPU     35.79s WALL (    2205 calls)
     cegterg:last :     69.67s CPU     69.96s WALL (    1078 calls)
     cdiaghg:chol :      2.90s CPU      2.92s WALL (    2555 calls)
     cdiaghg:inve :      0.80s CPU      0.81s WALL (    2555 calls)
     cdiaghg:para :      8.16s CPU      9.16s WALL (    5110 calls)
     h_psi        :    413.61s CPU    430.43s WALL (    2565 calls)
     s_psi        :     46.93s CPU     46.99s WALL (    2565 calls)
     g_psi        :      1.70s CPU      1.71s WALL (    2205 calls)

     Called by h_psi:
     h_psi:calbec :     56.95s CPU     57.43s WALL (    2565 calls)
     vloc_psi     :    306.67s CPU    322.94s WALL (    2565 calls)
     add_vuspsi   :     48.66s CPU     48.71s WALL (    2565 calls)

     General routines
     calbec       :     73.93s CPU     74.54s WALL (    2955 calls)
     fft          :      5.18s CPU      5.55s WALL (     477 calls)
     ffts         :      0.56s CPU      0.59s WALL (      71 calls)
     fftw         :    313.74s CPU    331.24s WALL (  195736 calls)
     interpolate  :      0.78s CPU      0.82s WALL (      36 calls)

     Parallel routines

     PWSCF        :  15m25.30s CPU  15m47.98s WALL


   This run was terminated on:   9:45:14  29Aug2025            

=------------------------------------------------------------------------------=
   JOB DONE.
=------------------------------------------------------------------------------=
Note: The following floating-point exceptions are signalling: IEEE_UNDERFLOW_FLAG IEEE_DENORMAL
Note: The following floating-point exceptions are signalling: IEEE_UNDERFLOW_FLAG IEEE_DENORMAL
Note: The following floating-point exceptions are signalling: IEEE_UNDERFLOW_FLAG IEEE_DENORMAL
Note: The following floating-point exceptions are signalling: IEEE_UNDERFLOW_FLAG IEEE_DENORMAL
Note: The following floating-point exceptions are signalling: IEEE_UNDERFLOW_FLAG IEEE_DENORMAL
Note: The following floating-point exceptions are signalling: IEEE_UNDERFLOW_FLAG IEEE_DENORMAL
Note: The following floating-point exceptions are signalling: IEEE_UNDERFLOW_FLAG IEEE_DENORMAL
Note: The following floating-point exceptions are signalling: IEEE_UNDERFLOW_FLAG IEEE_DENORMAL
Note: The following floating-point exceptions are signalling: IEEE_UNDERFLOW_FLAG IEEE_DENORMAL
Note: The following floating-point exceptions are signalling: IEEE_UNDERFLOW_FLAG IEEE_DENORMAL
Note: The following floating-point exceptions are signalling: IEEE_UNDERFLOW_FLAG IEEE_DENORMAL
Note: The following floating-point exceptions are signalling: IEEE_UNDERFLOW_FLAG IEEE_DENORMAL
Note: The following floating-point exceptions are signalling: IEEE_UNDERFLOW_FLAG IEEE_DENORMAL
Note: The following floating-point exceptions are signalling: IEEE_UNDERFLOW_FLAG IEEE_DENORMAL
Note: The following floating-point exceptions are signalling: IEEE_UNDERFLOW_FLAG IEEE_DENORMAL
Note: The following floating-point exceptions are signalling: IEEE_UNDERFLOW_FLAG IEEE_DENORMAL
Note: The following floating-point exceptions are signalling: IEEE_UNDERFLOW_FLAG IEEE_DENORMAL
Note: The following floating-point exceptions are signalling: IEEE_UNDERFLOW_FLAG IEEE_DENORMAL
Note: The following floating-point exceptions are signalling: IEEE_UNDERFLOW_FLAG IEEE_DENORMAL
Note: The following floating-point exceptions are signalling: IEEE_UNDERFLOW_FLAG IEEE_DENORMAL
Note: The following floating-point exceptions are signalling: IEEE_UNDERFLOW_FLAG IEEE_DENORMAL
Note: The following floating-point exceptions are signalling: IEEE_UNDERFLOW_FLAG IEEE_DENORMAL
Note: The following floating-point exceptions are signalling: IEEE_UNDERFLOW_FLAG IEEE_DENORMAL
Note: The following floating-point exceptions are signalling: IEEE_UNDERFLOW_FLAG IEEE_DENORMAL
Note: The following floating-point exceptions are signalling: IEEE_UNDERFLOW_FLAG IEEE_DENORMAL
Note: The following floating-point exceptions are signalling: IEEE_UNDERFLOW_FLAG IEEE_DENORMAL
Note: The following floating-point exceptions are signalling: IEEE_UNDERFLOW_FLAG IEEE_DENORMAL
Note: The following floating-point exceptions are signalling: IEEE_UNDERFLOW_FLAG IEEE_DENORMAL
Note: The following floating-point exceptions are signalling: IEEE_UNDERFLOW_FLAG IEEE_DENORMAL
Note: The following floating-point exceptions are signalling: IEEE_UNDERFLOW_FLAG IEEE_DENORMAL
Note: The following floating-point exceptions are signalling: IEEE_UNDERFLOW_FLAG IEEE_DENORMAL
Note: The following floating-point exceptions are signalling: IEEE_UNDERFLOW_FLAG IEEE_DENORMAL
