
     Program PWSCF v.7.0 starts on 29Aug2025 at  5:11:21 

     This program is part of the open-source Quantum ESPRESSO suite
     for quantum simulation of materials; please cite
         "P. Giannozzi et al., J. Phys.:Condens. Matter 21 395502 (2009);
         "P. Giannozzi et al., J. Phys.:Condens. Matter 29 465901 (2017);
         "P. Giannozzi et al., J. Chem. Phys. 152 154105 (2020);
          URL http://www.quantum-espresso.org", 
     in publications or presentations arising from this work. More details at
     http://www.quantum-espresso.org/quote

     Parallel version (MPI & OpenMP), running on      32 processor cores
     Number of MPI processes:                32
     Threads/MPI process:                     1

     MPI processes distributed on     1 nodes
     K-points division:     npool     =       8
     R & G space division:  proc/nbgrp/npool/nimage =       4
     104915 MiB available memory on the printing compute node when the environment starts

     Reading input from /home/jvc/QEspresso7.2/ZnO_database/scripts/cell122.in/ZnO-3.27-1.71-122.in
Warning: card &CELL ignored
Warning: card / ignored
Warning: card &FCP ignored
Warning: card / ignored
Warning: card &RISM ignored
Warning: card / ignored

     Current dimensions of program PWSCF are:
     Max number of different atomic species (ntypx) = 10
     Max number of k-points (npk) =  40000
     Max angular momentum in pseudopotentials (lmaxx) =  4
     file Zn.upf: wavefunction(s)  3D renormalized
     Found identity + (  0.0000  0.0000  0.5000) symmetry
     This is a supercell, fractional translations are disabled
     Message from routine setup:
     using ibrav=0 with symmetry is DISCOURAGED, use correct ibrav instead

     Subspace diagonalization in iterative solution of the eigenvalue problem:
     one sub-group per band group will be used
     scalapack distributed-memory algorithm (size of sub-group:  2*  2 procs)


     Parallelization info
     --------------------
     sticks:   dense  smooth     PW     G-vecs:    dense   smooth      PW
     Min         525     261     81                47189    16687    2885
     Max         526     262     82                47194    16692    2894
     Sum        2103    1047    325               188769    66761   11553

     Using Slab Decomposition



     bravais-lattice index     =            0
     lattice parameter (alat)  =       6.1789  a.u.
     unit-cell volume          =    1398.3640 (a.u.)^3
     number of atoms/cell      =           16
     number of atomic types    =            2
     number of electrons       =       144.00
     number of Kohn-Sham states=           72
     kinetic-energy cutoff     =      50.0000  Ry
     charge density cutoff     =     400.0000  Ry
     scf convergence threshold =      1.0E-08
     mixing beta               =       0.3000
     number of iterations used =            8  plain     mixing
     Exchange-correlation= PBE
                           (   1   4   3   4   0   0   0)

     celldm(1)=   6.178854  celldm(2)=   0.000000  celldm(3)=   0.000000
     celldm(4)=   0.000000  celldm(5)=   0.000000  celldm(6)=   0.000000

     crystal axes: (cart. coord. in units of alat)
               a(1) = (   1.000000   0.000000   0.000000 )  
               a(2) = (  -1.000000   1.732051   0.000000 )  
               a(3) = (   0.000000   0.000000   3.422440 )  

     reciprocal axes: (cart. coord. in units 2 pi/alat)
               b(1) = (  1.000000  0.577350 -0.000000 )  
               b(2) = (  0.000000  0.577350  0.000000 )  
               b(3) = (  0.000000 -0.000000  0.292189 )  


     PseudoPot. # 1 for Zn read from file:
     /home/jvc/QEspresso7.2/ZnO_database/pseudos/Zn.upf
     MD5 check sum: 7f56cabf9682ed8c977c2f7d0c5985c5
     Pseudo is Ultrasoft + core correction, Zval = 12.0
     Generated using &quot;atomic&quot; code by A. Dal Corso  v.6.2.2
     Using radial grid of 1201 points,  6 beta functions with: 
                l(1) =   0
                l(2) =   0
                l(3) =   1
                l(4) =   1
                l(5) =   2
                l(6) =   2
     Q(r) pseudized with 0 coefficients 


     PseudoPot. # 2 for O  read from file:
     /home/jvc/QEspresso7.2/ZnO_database/pseudos/O.upf
     MD5 check sum: 91400c9766925bcf19f520983a725ff0
     Pseudo is Ultrasoft + core correction, Zval =  6.0
     Generated using &quot;atomic&quot; code by A. Dal Corso  v.6.3MaX
     Using radial grid of 1095 points,  4 beta functions with: 
                l(1) =   0
                l(2) =   0
                l(3) =   1
                l(4) =   1
     Q(r) pseudized with 0 coefficients 


     atomic species   valence    mass     pseudopotential
        Zn            12.00    65.38000     Zn( 1.00)
        O              6.00    15.99900     O ( 1.00)

      2 Sym. Ops. (no inversion) found


                                    s                        frac. trans.

      isym =  1     identity                                     

 cryst.   s( 1) = (     1          0          0      )
                  (     0          1          0      )
                  (     0          0          1      )

 cart.    s( 1) = (  1.0000000  0.0000000  0.0000000 )
                  (  0.0000000  1.0000000  0.0000000 )
                  (  0.0000000  0.0000000  1.0000000 )


      isym =  2     inv. 180 deg rotation - cart. axis [1,0,0]   

 cryst.   s( 2) = (    -1          0          0      )
                  (     2          1          0      )
                  (     0          0          1      )

 cart.    s( 2) = ( -1.0000000  0.0000000  0.0000000 )
                  (  0.0000000  1.0000000  0.0000000 )
                  (  0.0000000  0.0000000  1.0000000 )


   Cartesian axes

     site n.     atom                  positions (alat units)
         1           Zn  tau(   1) = (   0.5000000   0.2886751   0.8566941  )
         2           Zn  tau(   2) = (   0.0000000   0.5773503   0.0010842  )
         3           O   tau(   3) = (   0.5000000   0.2886751   1.5053197  )
         4           O   tau(   4) = (   0.0000000   0.5773503   0.6497098  )
         5           Zn  tau(   5) = (   0.5000000   0.2886751   2.5679140  )
         6           Zn  tau(   6) = (   0.0000000   0.5773503   1.7123041  )
         7           O   tau(   7) = (   0.5000000   0.2886751   3.2165396  )
         8           O   tau(   8) = (   0.0000000   0.5773503   2.3609297  )
         9           Zn  tau(   9) = (   0.0000000   1.1547005   0.8566941  )
        10           Zn  tau(  10) = (  -0.5000000   1.4433757   0.0010842  )
        11           O   tau(  11) = (   0.0000000   1.1547005   1.5053197  )
        12           O   tau(  12) = (  -0.5000000   1.4433757   0.6497098  )
        13           Zn  tau(  13) = (   0.0000000   1.1547005   2.5679140  )
        14           Zn  tau(  14) = (  -0.5000000   1.4433757   1.7123041  )
        15           O   tau(  15) = (   0.0000000   1.1547005   3.2165396  )
        16           O   tau(  16) = (  -0.5000000   1.4433757   2.3609297  )

   Crystallographic axes

     site n.     atom                  positions (cryst. coord.)
         1           Zn  tau(   1) = (  0.6666667  0.1666667  0.2503168  )
         2           Zn  tau(   2) = (  0.3333333  0.3333333  0.0003168  )
         3           O   tau(   3) = (  0.6666667  0.1666667  0.4398382  )
         4           O   tau(   4) = (  0.3333333  0.3333333  0.1898382  )
         5           Zn  tau(   5) = (  0.6666667  0.1666667  0.7503168  )
         6           Zn  tau(   6) = (  0.3333333  0.3333333  0.5003168  )
         7           O   tau(   7) = (  0.6666667  0.1666667  0.9398382  )
         8           O   tau(   8) = (  0.3333333  0.3333333  0.6898382  )
         9           Zn  tau(   9) = (  0.6666667  0.6666667  0.2503168  )
        10           Zn  tau(  10) = (  0.3333333  0.8333333  0.0003168  )
        11           O   tau(  11) = (  0.6666667  0.6666667  0.4398382  )
        12           O   tau(  12) = (  0.3333333  0.8333333  0.1898382  )
        13           Zn  tau(  13) = (  0.6666667  0.6666667  0.7503168  )
        14           Zn  tau(  14) = (  0.3333333  0.8333333  0.5003168  )
        15           O   tau(  15) = (  0.6666667  0.6666667  0.9398382  )
        16           O   tau(  16) = (  0.3333333  0.8333333  0.6898382  )

     number of k points=    80
                       cart. coord. in units 2pi/alat
        k(    1) = (   0.0000000   0.0000000   0.0000000), wk =   0.0092593
        k(    2) = (   0.0000000   0.0000000   0.0486982), wk =   0.0185185
        k(    3) = (   0.0000000   0.0000000   0.0973964), wk =   0.0185185
        k(    4) = (   0.0000000   0.0000000  -0.1460946), wk =   0.0092593
        k(    5) = (   0.0000000   0.0962250   0.0000000), wk =   0.0185185
        k(    6) = (   0.0000000   0.0962250   0.0486982), wk =   0.0185185
        k(    7) = (   0.0000000   0.0962250   0.0973964), wk =   0.0185185
        k(    8) = (   0.0000000   0.0962250  -0.1460946), wk =   0.0185185
        k(    9) = (   0.0000000   0.1924501   0.0000000), wk =   0.0185185
        k(   10) = (   0.0000000   0.1924501   0.0486982), wk =   0.0185185
        k(   11) = (   0.0000000   0.1924501   0.0973964), wk =   0.0185185
        k(   12) = (   0.0000000   0.1924501  -0.1460946), wk =   0.0185185
        k(   13) = (   0.0000000  -0.2886751   0.0000000), wk =   0.0092593
        k(   14) = (   0.0000000  -0.2886751   0.0486982), wk =   0.0185185
        k(   15) = (   0.0000000  -0.2886751   0.0973964), wk =   0.0185185
        k(   16) = (   0.0000000  -0.2886751  -0.1460946), wk =   0.0092593
        k(   17) = (   0.1666667   0.0962250   0.0000000), wk =   0.0370370
        k(   18) = (   0.1666667   0.0962250   0.0486982), wk =   0.0370370
        k(   19) = (   0.1666667   0.0962250   0.0973964), wk =   0.0370370
        k(   20) = (   0.1666667   0.0962250  -0.1460946), wk =   0.0370370
        k(   21) = (   0.1666667   0.1924501   0.0000000), wk =   0.0370370
        k(   22) = (   0.1666667   0.1924501   0.0486982), wk =   0.0370370
        k(   23) = (   0.1666667   0.1924501   0.0973964), wk =   0.0370370
        k(   24) = (   0.1666667   0.1924501  -0.1460946), wk =   0.0370370
        k(   25) = (   0.1666667   0.2886751   0.0000000), wk =   0.0185185
        k(   26) = (   0.1666667   0.2886751   0.0486982), wk =   0.0370370
        k(   27) = (   0.1666667   0.2886751   0.0973964), wk =   0.0370370
        k(   28) = (   0.1666667   0.2886751  -0.1460946), wk =   0.0185185
        k(   29) = (   0.1666667   0.0000000   0.0000000), wk =   0.0185185
        k(   30) = (   0.1666667   0.0000000   0.0486982), wk =   0.0370370
        k(   31) = (   0.1666667   0.0000000   0.0973964), wk =   0.0370370
        k(   32) = (   0.1666667   0.0000000  -0.1460946), wk =   0.0185185
        k(   33) = (   0.3333333   0.1924501   0.0000000), wk =   0.0370370
        k(   34) = (   0.3333333   0.1924501   0.0486982), wk =   0.0370370
        k(   35) = (   0.3333333   0.1924501   0.0973964), wk =   0.0370370
        k(   36) = (   0.3333333   0.1924501  -0.1460946), wk =   0.0370370
        k(   37) = (   0.3333333   0.2886751   0.0000000), wk =   0.0185185
        k(   38) = (   0.3333333   0.2886751   0.0486982), wk =   0.0370370
        k(   39) = (   0.3333333   0.2886751   0.0973964), wk =   0.0370370
        k(   40) = (   0.3333333   0.2886751  -0.1460946), wk =   0.0185185
        k(   41) = (   0.3333333  -0.0962250   0.0000000), wk =   0.0370370
        k(   42) = (   0.3333333  -0.0962250   0.0486982), wk =   0.0370370
        k(   43) = (   0.3333333  -0.0962250   0.0973964), wk =   0.0370370
        k(   44) = (   0.3333333  -0.0962250  -0.1460946), wk =   0.0370370
        k(   45) = (   0.3333333  -0.0000000   0.0000000), wk =   0.0185185
        k(   46) = (   0.3333333  -0.0000000   0.0486982), wk =   0.0370370
        k(   47) = (   0.3333333  -0.0000000   0.0973964), wk =   0.0370370
        k(   48) = (   0.3333333  -0.0000000  -0.1460946), wk =   0.0185185
        k(   49) = (  -0.5000000  -0.2886751   0.0000000), wk =   0.0092593
        k(   50) = (  -0.5000000  -0.2886751   0.0486982), wk =   0.0185185
        k(   51) = (  -0.5000000  -0.2886751   0.0973964), wk =   0.0185185
        k(   52) = (  -0.5000000  -0.2886751  -0.1460946), wk =   0.0092593
        k(   53) = (  -0.5000000  -0.1924501   0.0000000), wk =   0.0185185
        k(   54) = (  -0.5000000  -0.1924501   0.0486982), wk =   0.0185185
        k(   55) = (  -0.5000000  -0.1924501   0.0973964), wk =   0.0185185
        k(   56) = (  -0.5000000  -0.1924501  -0.1460946), wk =   0.0185185
        k(   57) = (  -0.5000000  -0.0962250   0.0000000), wk =   0.0185185
        k(   58) = (  -0.5000000  -0.0962250   0.0486982), wk =   0.0185185
        k(   59) = (  -0.5000000  -0.0962250   0.0973964), wk =   0.0185185
        k(   60) = (  -0.5000000  -0.0962250  -0.1460946), wk =   0.0185185
        k(   61) = (  -0.5000000  -0.5773503   0.0000000), wk =   0.0092593
        k(   62) = (  -0.5000000  -0.5773503   0.0486982), wk =   0.0185185
        k(   63) = (  -0.5000000  -0.5773503   0.0973964), wk =   0.0185185
        k(   64) = (  -0.5000000  -0.5773503  -0.1460946), wk =   0.0092593
        k(   65) = (   0.0000000   0.0962250  -0.0486982), wk =   0.0185185
        k(   66) = (   0.0000000   0.0962250  -0.0973964), wk =   0.0185185
        k(   67) = (   0.0000000   0.1924501  -0.0486982), wk =   0.0185185
        k(   68) = (   0.0000000   0.1924501  -0.0973964), wk =   0.0185185
        k(   69) = (  -0.1666667   0.0962250  -0.0486982), wk =   0.0370370
        k(   70) = (  -0.1666667   0.0962250  -0.0973964), wk =   0.0370370
        k(   71) = (  -0.1666667   0.1924501  -0.0486982), wk =   0.0370370
        k(   72) = (  -0.1666667   0.1924501  -0.0973964), wk =   0.0370370
        k(   73) = (  -0.3333333   0.1924501  -0.0486982), wk =   0.0370370
        k(   74) = (  -0.3333333   0.1924501  -0.0973964), wk =   0.0370370
        k(   75) = (  -0.3333333  -0.0962250  -0.0486982), wk =   0.0370370
        k(   76) = (  -0.3333333  -0.0962250  -0.0973964), wk =   0.0370370
        k(   77) = (   0.5000000  -0.1924501  -0.0486982), wk =   0.0185185
        k(   78) = (   0.5000000  -0.1924501  -0.0973964), wk =   0.0185185
        k(   79) = (   0.5000000  -0.0962250  -0.0486982), wk =   0.0185185
        k(   80) = (   0.5000000  -0.0962250  -0.0973964), wk =   0.0185185

                       cryst. coord.
        k(    1) = (   0.0000000   0.0000000   0.0000000), wk =   0.0092593
        k(    2) = (   0.0000000   0.0000000   0.1666667), wk =   0.0185185
        k(    3) = (   0.0000000   0.0000000   0.3333333), wk =   0.0185185
        k(    4) = (   0.0000000   0.0000000  -0.5000000), wk =   0.0092593
        k(    5) = (   0.0000000   0.1666667   0.0000000), wk =   0.0185185
        k(    6) = (   0.0000000   0.1666667   0.1666667), wk =   0.0185185
        k(    7) = (   0.0000000   0.1666667   0.3333333), wk =   0.0185185
        k(    8) = (   0.0000000   0.1666667  -0.5000000), wk =   0.0185185
        k(    9) = (   0.0000000   0.3333333   0.0000000), wk =   0.0185185
        k(   10) = (   0.0000000   0.3333333   0.1666667), wk =   0.0185185
        k(   11) = (   0.0000000   0.3333333   0.3333333), wk =   0.0185185
        k(   12) = (   0.0000000   0.3333333  -0.5000000), wk =   0.0185185
        k(   13) = (   0.0000000  -0.5000000   0.0000000), wk =   0.0092593
        k(   14) = (   0.0000000  -0.5000000   0.1666667), wk =   0.0185185
        k(   15) = (   0.0000000  -0.5000000   0.3333333), wk =   0.0185185
        k(   16) = (   0.0000000  -0.5000000  -0.5000000), wk =   0.0092593
        k(   17) = (   0.1666667   0.0000000   0.0000000), wk =   0.0370370
        k(   18) = (   0.1666667   0.0000000   0.1666667), wk =   0.0370370
        k(   19) = (   0.1666667   0.0000000   0.3333333), wk =   0.0370370
        k(   20) = (   0.1666667   0.0000000  -0.5000000), wk =   0.0370370
        k(   21) = (   0.1666667   0.1666667   0.0000000), wk =   0.0370370
        k(   22) = (   0.1666667   0.1666667   0.1666667), wk =   0.0370370
        k(   23) = (   0.1666667   0.1666667   0.3333333), wk =   0.0370370
        k(   24) = (   0.1666667   0.1666667  -0.5000000), wk =   0.0370370
        k(   25) = (   0.1666667   0.3333333   0.0000000), wk =   0.0185185
        k(   26) = (   0.1666667   0.3333333   0.1666667), wk =   0.0370370
        k(   27) = (   0.1666667   0.3333333   0.3333333), wk =   0.0370370
        k(   28) = (   0.1666667   0.3333333  -0.5000000), wk =   0.0185185
        k(   29) = (   0.1666667  -0.1666667   0.0000000), wk =   0.0185185
        k(   30) = (   0.1666667  -0.1666667   0.1666667), wk =   0.0370370
        k(   31) = (   0.1666667  -0.1666667   0.3333333), wk =   0.0370370
        k(   32) = (   0.1666667  -0.1666667  -0.5000000), wk =   0.0185185
        k(   33) = (   0.3333333   0.0000000   0.0000000), wk =   0.0370370
        k(   34) = (   0.3333333   0.0000000   0.1666667), wk =   0.0370370
        k(   35) = (   0.3333333   0.0000000   0.3333333), wk =   0.0370370
        k(   36) = (   0.3333333   0.0000000  -0.5000000), wk =   0.0370370
        k(   37) = (   0.3333333   0.1666667   0.0000000), wk =   0.0185185
        k(   38) = (   0.3333333   0.1666667   0.1666667), wk =   0.0370370
        k(   39) = (   0.3333333   0.1666667   0.3333333), wk =   0.0370370
        k(   40) = (   0.3333333   0.1666667  -0.5000000), wk =   0.0185185
        k(   41) = (   0.3333333  -0.5000000   0.0000000), wk =   0.0370370
        k(   42) = (   0.3333333  -0.5000000   0.1666667), wk =   0.0370370
        k(   43) = (   0.3333333  -0.5000000   0.3333333), wk =   0.0370370
        k(   44) = (   0.3333333  -0.5000000  -0.5000000), wk =   0.0370370
        k(   45) = (   0.3333333  -0.3333333   0.0000000), wk =   0.0185185
        k(   46) = (   0.3333333  -0.3333333   0.1666667), wk =   0.0370370
        k(   47) = (   0.3333333  -0.3333333   0.3333333), wk =   0.0370370
        k(   48) = (   0.3333333  -0.3333333  -0.5000000), wk =   0.0185185
        k(   49) = (  -0.5000000   0.0000000   0.0000000), wk =   0.0092593
        k(   50) = (  -0.5000000   0.0000000   0.1666667), wk =   0.0185185
        k(   51) = (  -0.5000000   0.0000000   0.3333333), wk =   0.0185185
        k(   52) = (  -0.5000000   0.0000000  -0.5000000), wk =   0.0092593
        k(   53) = (  -0.5000000   0.1666667   0.0000000), wk =   0.0185185
        k(   54) = (  -0.5000000   0.1666667   0.1666667), wk =   0.0185185
        k(   55) = (  -0.5000000   0.1666667   0.3333333), wk =   0.0185185
        k(   56) = (  -0.5000000   0.1666667  -0.5000000), wk =   0.0185185
        k(   57) = (  -0.5000000   0.3333333   0.0000000), wk =   0.0185185
        k(   58) = (  -0.5000000   0.3333333   0.1666667), wk =   0.0185185
        k(   59) = (  -0.5000000   0.3333333   0.3333333), wk =   0.0185185
        k(   60) = (  -0.5000000   0.3333333  -0.5000000), wk =   0.0185185
        k(   61) = (  -0.5000000  -0.5000000   0.0000000), wk =   0.0092593
        k(   62) = (  -0.5000000  -0.5000000   0.1666667), wk =   0.0185185
        k(   63) = (  -0.5000000  -0.5000000   0.3333333), wk =   0.0185185
        k(   64) = (  -0.5000000  -0.5000000  -0.5000000), wk =   0.0092593
        k(   65) = (   0.0000000   0.1666667  -0.1666667), wk =   0.0185185
        k(   66) = (   0.0000000   0.1666667  -0.3333333), wk =   0.0185185
        k(   67) = (   0.0000000   0.3333333  -0.1666667), wk =   0.0185185
        k(   68) = (   0.0000000   0.3333333  -0.3333333), wk =   0.0185185
        k(   69) = (  -0.1666667   0.3333333  -0.1666667), wk =   0.0370370
        k(   70) = (  -0.1666667   0.3333333  -0.3333333), wk =   0.0370370
        k(   71) = (  -0.1666667   0.5000000  -0.1666667), wk =   0.0370370
        k(   72) = (  -0.1666667   0.5000000  -0.3333333), wk =   0.0370370
        k(   73) = (  -0.3333333   0.6666667  -0.1666667), wk =   0.0370370
        k(   74) = (  -0.3333333   0.6666667  -0.3333333), wk =   0.0370370
        k(   75) = (  -0.3333333   0.1666667  -0.1666667), wk =   0.0370370
        k(   76) = (  -0.3333333   0.1666667  -0.3333333), wk =   0.0370370
        k(   77) = (   0.5000000  -0.8333333  -0.1666667), wk =   0.0185185
        k(   78) = (   0.5000000  -0.8333333  -0.3333333), wk =   0.0185185
        k(   79) = (   0.5000000  -0.6666667  -0.1666667), wk =   0.0185185
        k(   80) = (   0.5000000  -0.6666667  -0.3333333), wk =   0.0185185

     Dense  grid:   188769 G-vectors     FFT dimensions: (  40,  80, 135)

     Smooth grid:    66761 G-vectors     FFT dimensions: (  27,  60,  96)

     Dynamical RAM for                 wfc:       2.29 MB

     Dynamical RAM for     wfc (w. buffer):      25.22 MB

     Dynamical RAM for           str. fact:       1.44 MB

     Dynamical RAM for           local pot:       0.00 MB

     Dynamical RAM for          nlocal pot:       6.62 MB

     Dynamical RAM for                qrad:       3.21 MB

     Dynamical RAM for          rho,v,vnew:       4.65 MB

     Dynamical RAM for               rhoin:       1.55 MB

     Dynamical RAM for            rho*nmix:      11.52 MB

     Dynamical RAM for           G-vectors:       2.83 MB

     Dynamical RAM for          h,s,v(r/c):       0.24 MB

     Dynamical RAM for          <psi|beta>:       0.23 MB

     Dynamical RAM for                 psi:       4.59 MB

     Dynamical RAM for                hpsi:       4.59 MB

     Dynamical RAM for                spsi:       4.59 MB

     Dynamical RAM for      wfcinit/wfcrot:       6.87 MB

     Dynamical RAM for           addusdens:      18.09 MB

     Dynamical RAM for          addusforce:      19.11 MB

     Estimated static dynamical RAM per process >      51.84 MB

     Estimated max dynamical RAM per process >      82.47 MB

     Estimated total dynamical RAM >       2.26 GB

     Check: negative core charge=   -0.000002

     Initial potential from superposition of free atoms

     starting charge     143.9702, renormalised to     144.0000
     Starting wfcs are  104 randomized atomic wfcs

     total cpu time spent up to now is       13.1 secs

     per-process dynamical memory:    72.0 Mb

     Self-consistent Calculation

     iteration #  1     ecut=    50.00 Ry     beta= 0.30
     Davidson diagonalization with overlap

---- Real-time Memory Report at c_bands before calling an iterative solver
           100 MiB given to the printing process from OS
            70 MiB allocation reported by mallinfo(arena+hblkhd)
        102647 MiB available memory on the node where the printing process lives
------------------
     ethr =  1.00E-02,  avg # of iterations =  1.9

     total cpu time spent up to now is       28.6 secs

     total energy              =   -1445.85468402 Ry
     estimated scf accuracy    <       2.86604353 Ry

     iteration #  2     ecut=    50.00 Ry     beta= 0.30
     Davidson diagonalization with overlap

---- Real-time Memory Report at c_bands before calling an iterative solver
           117 MiB given to the printing process from OS
            86 MiB allocation reported by mallinfo(arena+hblkhd)
        101946 MiB available memory on the node where the printing process lives
------------------
     ethr =  1.99E-03,  avg # of iterations =  2.0

     total cpu time spent up to now is       47.5 secs

     total energy              =   -1446.29353573 Ry
     estimated scf accuracy    <       0.33577826 Ry

     iteration #  3     ecut=    50.00 Ry     beta= 0.30
     Davidson diagonalization with overlap

---- Real-time Memory Report at c_bands before calling an iterative solver
           118 MiB given to the printing process from OS
            87 MiB allocation reported by mallinfo(arena+hblkhd)
        102018 MiB available memory on the node where the printing process lives
------------------
     ethr =  2.33E-04,  avg # of iterations =  7.1

     total cpu time spent up to now is       80.2 secs

     total energy              =   -1446.39950225 Ry
     estimated scf accuracy    <       0.25179341 Ry

     iteration #  4     ecut=    50.00 Ry     beta= 0.30
     Davidson diagonalization with overlap

---- Real-time Memory Report at c_bands before calling an iterative solver
           119 MiB given to the printing process from OS
            87 MiB allocation reported by mallinfo(arena+hblkhd)
        102038 MiB available memory on the node where the printing process lives
------------------
     ethr =  1.75E-04,  avg # of iterations =  9.0

     total cpu time spent up to now is      121.2 secs

     total energy              =   -1446.55123459 Ry
     estimated scf accuracy    <       0.90209187 Ry

     iteration #  5     ecut=    50.00 Ry     beta= 0.30
     Davidson diagonalization with overlap

---- Real-time Memory Report at c_bands before calling an iterative solver
           119 MiB given to the printing process from OS
            88 MiB allocation reported by mallinfo(arena+hblkhd)
        102022 MiB available memory on the node where the printing process lives
------------------
     ethr =  1.75E-04,  avg # of iterations =  2.0

     total cpu time spent up to now is      138.1 secs

     total energy              =   -1446.15057447 Ry
     estimated scf accuracy    <       0.50017457 Ry

     iteration #  6     ecut=    50.00 Ry     beta= 0.30
     Davidson diagonalization with overlap

---- Real-time Memory Report at c_bands before calling an iterative solver
           120 MiB given to the printing process from OS
            88 MiB allocation reported by mallinfo(arena+hblkhd)
        102095 MiB available memory on the node where the printing process lives
------------------
     ethr =  1.75E-04,  avg # of iterations = 11.9

     total cpu time spent up to now is      186.1 secs

     total energy              =   -1446.23175880 Ry
     estimated scf accuracy    <       3.69798891 Ry

     iteration #  7     ecut=    50.00 Ry     beta= 0.30
     Davidson diagonalization with overlap

---- Real-time Memory Report at c_bands before calling an iterative solver
           120 MiB given to the printing process from OS
            89 MiB allocation reported by mallinfo(arena+hblkhd)
        102076 MiB available memory on the node where the printing process lives
------------------
     ethr =  1.75E-04,  avg # of iterations =  7.8

     total cpu time spent up to now is      222.8 secs

     total energy              =   -1446.49941119 Ry
     estimated scf accuracy    <       0.30910586 Ry

     iteration #  8     ecut=    50.00 Ry     beta= 0.30
     Davidson diagonalization with overlap

---- Real-time Memory Report at c_bands before calling an iterative solver
           121 MiB given to the printing process from OS
            90 MiB allocation reported by mallinfo(arena+hblkhd)
        102024 MiB available memory on the node where the printing process lives
------------------
     ethr =  1.75E-04,  avg # of iterations =  2.1

     total cpu time spent up to now is      239.6 secs

     total energy              =   -1446.49937658 Ry
     estimated scf accuracy    <       0.14681578 Ry

     iteration #  9     ecut=    50.00 Ry     beta= 0.30
     Davidson diagonalization with overlap

---- Real-time Memory Report at c_bands before calling an iterative solver
           121 MiB given to the printing process from OS
            90 MiB allocation reported by mallinfo(arena+hblkhd)
        102036 MiB available memory on the node where the printing process lives
------------------
     ethr =  1.02E-04,  avg # of iterations =  2.3

     total cpu time spent up to now is      257.0 secs

     total energy              =   -1446.49662824 Ry
     estimated scf accuracy    <       0.09148965 Ry

     iteration # 10     ecut=    50.00 Ry     beta= 0.30
     Davidson diagonalization with overlap

---- Real-time Memory Report at c_bands before calling an iterative solver
           122 MiB given to the printing process from OS
            91 MiB allocation reported by mallinfo(arena+hblkhd)
        102035 MiB available memory on the node where the printing process lives
------------------
     ethr =  6.35E-05,  avg # of iterations =  5.0

     total cpu time spent up to now is      277.7 secs

     total energy              =   -1446.50348971 Ry
     estimated scf accuracy    <       0.02950497 Ry

     iteration # 11     ecut=    50.00 Ry     beta= 0.30
     Davidson diagonalization with overlap

---- Real-time Memory Report at c_bands before calling an iterative solver
           122 MiB given to the printing process from OS
            91 MiB allocation reported by mallinfo(arena+hblkhd)
        102012 MiB available memory on the node where the printing process lives
------------------
     ethr =  2.05E-05,  avg # of iterations =  6.2

     total cpu time spent up to now is      304.3 secs

     total energy              =   -1446.51761279 Ry
     estimated scf accuracy    <       0.00008277 Ry

     iteration # 12     ecut=    50.00 Ry     beta= 0.30
     Davidson diagonalization with overlap

---- Real-time Memory Report at c_bands before calling an iterative solver
           122 MiB given to the printing process from OS
            91 MiB allocation reported by mallinfo(arena+hblkhd)
        102012 MiB available memory on the node where the printing process lives
------------------
     c_bands:  2 eigenvalues not converged
     c_bands:  1 eigenvalues not converged
     c_bands:  1 eigenvalues not converged
     c_bands:  1 eigenvalues not converged
     c_bands:  1 eigenvalues not converged
     c_bands:  1 eigenvalues not converged
     ethr =  5.75E-08,  avg # of iterations = 15.7

     total cpu time spent up to now is      373.5 secs

     total energy              =   -1446.51932011 Ry
     estimated scf accuracy    <       0.00821566 Ry

     iteration # 13     ecut=    50.00 Ry     beta= 0.30
     Davidson diagonalization with overlap

---- Real-time Memory Report at c_bands before calling an iterative solver
           122 MiB given to the printing process from OS
            91 MiB allocation reported by mallinfo(arena+hblkhd)
        102010 MiB available memory on the node where the printing process lives
------------------
     ethr =  5.75E-08,  avg # of iterations =  6.3

     total cpu time spent up to now is      405.2 secs

     total energy              =   -1446.51990816 Ry
     estimated scf accuracy    <       0.00535947 Ry

     iteration # 14     ecut=    50.00 Ry     beta= 0.30
     Davidson diagonalization with overlap

---- Real-time Memory Report at c_bands before calling an iterative solver
           122 MiB given to the printing process from OS
            91 MiB allocation reported by mallinfo(arena+hblkhd)
        101998 MiB available memory on the node where the printing process lives
------------------
     ethr =  5.75E-08,  avg # of iterations =  4.8

     total cpu time spent up to now is      426.7 secs

     total energy              =   -1446.51917641 Ry
     estimated scf accuracy    <       0.00662145 Ry

     iteration # 15     ecut=    50.00 Ry     beta= 0.30
     Davidson diagonalization with overlap

---- Real-time Memory Report at c_bands before calling an iterative solver
           122 MiB given to the printing process from OS
            91 MiB allocation reported by mallinfo(arena+hblkhd)
        101998 MiB available memory on the node where the printing process lives
------------------
     ethr =  5.75E-08,  avg # of iterations =  5.2

     total cpu time spent up to now is      448.7 secs

     total energy              =   -1446.51872040 Ry
     estimated scf accuracy    <       0.00489687 Ry

     iteration # 16     ecut=    50.00 Ry     beta= 0.30
     Davidson diagonalization with overlap

---- Real-time Memory Report at c_bands before calling an iterative solver
           122 MiB given to the printing process from OS
            91 MiB allocation reported by mallinfo(arena+hblkhd)
        101998 MiB available memory on the node where the printing process lives
------------------
     ethr =  5.75E-08,  avg # of iterations =  6.9

     total cpu time spent up to now is      481.8 secs

     total energy              =   -1446.51879995 Ry
     estimated scf accuracy    <       0.00288545 Ry

     iteration # 17     ecut=    50.00 Ry     beta= 0.30
     Davidson diagonalization with overlap

---- Real-time Memory Report at c_bands before calling an iterative solver
           122 MiB given to the printing process from OS
            91 MiB allocation reported by mallinfo(arena+hblkhd)
        101999 MiB available memory on the node where the printing process lives
------------------
     ethr =  5.75E-08,  avg # of iterations =  1.5

     total cpu time spent up to now is      498.3 secs

     total energy              =   -1446.51789355 Ry
     estimated scf accuracy    <       0.00287309 Ry

     iteration # 18     ecut=    50.00 Ry     beta= 0.30
     Davidson diagonalization with overlap

---- Real-time Memory Report at c_bands before calling an iterative solver
           122 MiB given to the printing process from OS
            91 MiB allocation reported by mallinfo(arena+hblkhd)
        101999 MiB available memory on the node where the printing process lives
------------------
     ethr =  5.75E-08,  avg # of iterations = 11.4

     total cpu time spent up to now is      546.2 secs

     total energy              =   -1446.51802111 Ry
     estimated scf accuracy    <       0.00023260 Ry

     iteration # 19     ecut=    50.00 Ry     beta= 0.30
     Davidson diagonalization with overlap

---- Real-time Memory Report at c_bands before calling an iterative solver
           122 MiB given to the printing process from OS
            91 MiB allocation reported by mallinfo(arena+hblkhd)
        101999 MiB available memory on the node where the printing process lives
------------------
     ethr =  5.75E-08,  avg # of iterations =  9.4

     total cpu time spent up to now is      587.8 secs

     total energy              =   -1446.51810551 Ry
     estimated scf accuracy    <       0.00011152 Ry

     iteration # 20     ecut=    50.00 Ry     beta= 0.30
     Davidson diagonalization with overlap

---- Real-time Memory Report at c_bands before calling an iterative solver
           122 MiB given to the printing process from OS
            91 MiB allocation reported by mallinfo(arena+hblkhd)
        101999 MiB available memory on the node where the printing process lives
------------------
     ethr =  5.75E-08,  avg # of iterations =  2.0

     total cpu time spent up to now is      604.7 secs

     total energy              =   -1446.51808704 Ry
     estimated scf accuracy    <       0.00003816 Ry

     iteration # 21     ecut=    50.00 Ry     beta= 0.30
     Davidson diagonalization with overlap

---- Real-time Memory Report at c_bands before calling an iterative solver
           122 MiB given to the printing process from OS
            91 MiB allocation reported by mallinfo(arena+hblkhd)
        101999 MiB available memory on the node where the printing process lives
------------------
     ethr =  2.65E-08,  avg # of iterations =  6.8

     total cpu time spent up to now is      639.2 secs

     total energy              =   -1446.51810077 Ry
     estimated scf accuracy    <       0.00004498 Ry

     iteration # 22     ecut=    50.00 Ry     beta= 0.30
     Davidson diagonalization with overlap

---- Real-time Memory Report at c_bands before calling an iterative solver
           122 MiB given to the printing process from OS
            91 MiB allocation reported by mallinfo(arena+hblkhd)
        101999 MiB available memory on the node where the printing process lives
------------------
     ethr =  2.65E-08,  avg # of iterations =  4.4

     total cpu time spent up to now is      663.1 secs

     total energy              =   -1446.51811313 Ry
     estimated scf accuracy    <       0.00000388 Ry

     iteration # 23     ecut=    50.00 Ry     beta= 0.30
     Davidson diagonalization with overlap

---- Real-time Memory Report at c_bands before calling an iterative solver
           122 MiB given to the printing process from OS
            91 MiB allocation reported by mallinfo(arena+hblkhd)
        101999 MiB available memory on the node where the printing process lives
------------------
     ethr =  2.70E-09,  avg # of iterations =  9.4

     total cpu time spent up to now is      705.5 secs

     total energy              =   -1446.51811688 Ry
     estimated scf accuracy    <       0.00002988 Ry

     iteration # 24     ecut=    50.00 Ry     beta= 0.30
     Davidson diagonalization with overlap

---- Real-time Memory Report at c_bands before calling an iterative solver
           122 MiB given to the printing process from OS
            91 MiB allocation reported by mallinfo(arena+hblkhd)
        101999 MiB available memory on the node where the printing process lives
------------------
     ethr =  2.70E-09,  avg # of iterations =  2.0

     total cpu time spent up to now is      723.3 secs

     total energy              =   -1446.51810971 Ry
     estimated scf accuracy    <       0.00001809 Ry

     iteration # 25     ecut=    50.00 Ry     beta= 0.30
     Davidson diagonalization with overlap

---- Real-time Memory Report at c_bands before calling an iterative solver
           122 MiB given to the printing process from OS
            91 MiB allocation reported by mallinfo(arena+hblkhd)
        101999 MiB available memory on the node where the printing process lives
------------------
     ethr =  2.70E-09,  avg # of iterations =  8.8

     total cpu time spent up to now is      763.3 secs

     total energy              =   -1446.51811553 Ry
     estimated scf accuracy    <       0.00000072 Ry

     iteration # 26     ecut=    50.00 Ry     beta= 0.30
     Davidson diagonalization with overlap

---- Real-time Memory Report at c_bands before calling an iterative solver
           122 MiB given to the printing process from OS
            91 MiB allocation reported by mallinfo(arena+hblkhd)
        101999 MiB available memory on the node where the printing process lives
------------------
     ethr =  5.01E-10,  avg # of iterations =  4.0

     total cpu time spent up to now is      781.8 secs

     total energy              =   -1446.51811560 Ry
     estimated scf accuracy    <       0.00000090 Ry

     iteration # 27     ecut=    50.00 Ry     beta= 0.30
     Davidson diagonalization with overlap

---- Real-time Memory Report at c_bands before calling an iterative solver
           122 MiB given to the printing process from OS
            91 MiB allocation reported by mallinfo(arena+hblkhd)
        101999 MiB available memory on the node where the printing process lives
------------------
     ethr =  5.01E-10,  avg # of iterations =  1.5

     total cpu time spent up to now is      797.4 secs

     total energy              =   -1446.51811540 Ry
     estimated scf accuracy    <       0.00000102 Ry

     iteration # 28     ecut=    50.00 Ry     beta= 0.30
     Davidson diagonalization with overlap

---- Real-time Memory Report at c_bands before calling an iterative solver
           122 MiB given to the printing process from OS
            91 MiB allocation reported by mallinfo(arena+hblkhd)
        101999 MiB available memory on the node where the printing process lives
------------------
     ethr =  5.01E-10,  avg # of iterations =  1.6

     total cpu time spent up to now is      813.1 secs

     total energy              =   -1446.51811530 Ry
     estimated scf accuracy    <       0.00000064 Ry

     iteration # 29     ecut=    50.00 Ry     beta= 0.30
     Davidson diagonalization with overlap

---- Real-time Memory Report at c_bands before calling an iterative solver
           122 MiB given to the printing process from OS
            91 MiB allocation reported by mallinfo(arena+hblkhd)
        101999 MiB available memory on the node where the printing process lives
------------------
     ethr =  4.46E-10,  avg # of iterations =  2.0

     total cpu time spent up to now is      829.7 secs

     total energy              =   -1446.51811525 Ry
     estimated scf accuracy    <       0.00000028 Ry

     iteration # 30     ecut=    50.00 Ry     beta= 0.30
     Davidson diagonalization with overlap

---- Real-time Memory Report at c_bands before calling an iterative solver
           122 MiB given to the printing process from OS
            91 MiB allocation reported by mallinfo(arena+hblkhd)
        101999 MiB available memory on the node where the printing process lives
------------------
     ethr =  1.97E-10,  avg # of iterations =  3.1

     total cpu time spent up to now is      849.6 secs

     total energy              =   -1446.51811526 Ry
     estimated scf accuracy    <       0.00000007 Ry

     iteration # 31     ecut=    50.00 Ry     beta= 0.30
     Davidson diagonalization with overlap

---- Real-time Memory Report at c_bands before calling an iterative solver
           122 MiB given to the printing process from OS
            91 MiB allocation reported by mallinfo(arena+hblkhd)
        101999 MiB available memory on the node where the printing process lives
------------------
     ethr =  4.78E-11,  avg # of iterations =  7.2

     total cpu time spent up to now is      882.1 secs

     total energy              =   -1446.51811531 Ry
     estimated scf accuracy    <       0.00000002 Ry

     iteration # 32     ecut=    50.00 Ry     beta= 0.30
     Davidson diagonalization with overlap

---- Real-time Memory Report at c_bands before calling an iterative solver
           122 MiB given to the printing process from OS
            91 MiB allocation reported by mallinfo(arena+hblkhd)
        101999 MiB available memory on the node where the printing process lives
------------------
     ethr =  1.55E-11,  avg # of iterations =  4.5

     total cpu time spent up to now is      907.4 secs

     End of self-consistent calculation

          k = 0.0000 0.0000 0.0000 (  8327 PWs)   bands (ev):

   -11.4047 -11.1516 -11.1516 -10.8848 -10.8068 -10.7246 -10.7246 -10.6497
     0.4825   0.4825   0.5593   0.6267   0.6267   0.6907   0.6910   0.7392
     0.7486   0.7486   0.7488   0.7488   0.7501   0.8307   0.8309   0.8944
     0.9408   1.1197   1.1197   1.3000   1.3045   1.3045   1.3372   1.4502
     1.6906   1.6907   1.7339   1.7693   1.7693   1.7693   1.7693   1.8297
     1.8297   1.8313   1.8463   1.8463   1.8784   1.9100   1.9101   1.9520
     2.1686   2.3624   2.4120   2.4120   2.6863   3.5320   3.7529   3.7529
     4.2578   4.7025   4.7025   4.8011   4.8011   4.8783   5.3078   5.5412
     5.5417   5.8309   5.8309   5.8314   5.8314   5.8989   6.1175   6.1180

     occupation numbers 
     1.0000   1.0000   1.0000   1.0000   1.0000   1.0000   1.0000   1.0000
     1.0000   1.0000   1.0000   1.0000   1.0000   1.0000   1.0000   1.0000
     1.0000   1.0000   1.0000   1.0000   1.0000   1.0000   1.0000   1.0000
     1.0000   1.0000   1.0000   1.0000   1.0000   1.0000   1.0000   1.0000
     1.0000   1.0000   1.0000   1.0000   1.0000   1.0000   1.0000   1.0000
     1.0000   1.0000   1.0000   1.0000   1.0000   1.0000   1.0000   1.0000
     1.0000   1.0000   1.0000   1.0000   1.0000   1.0000   1.0000   1.0000
     1.0000   1.0000   1.0000   1.0000   1.0000   1.0000   1.0000   1.0000
     1.0000   1.0000   1.0000   1.0000   1.0000   1.0000   1.0000   1.0000

          k = 0.0000 0.0000 0.0487 (  8301 PWs)   bands (ev):

   -11.3963 -11.2184 -11.0839 -10.8941 -10.8039 -10.7452 -10.7045 -10.6521
     0.4764   0.5097   0.5526   0.6357   0.6381   0.6925   0.6928   0.7224
     0.7315   0.7318   0.7429   0.7675   0.7678   0.8276   0.8277   0.8656
     0.9463   1.0701   1.1719   1.2951   1.2987   1.3207   1.3290   1.4373
     1.6938   1.6938   1.7464   1.7506   1.7506   1.7871   1.7871   1.8280
     1.8281   1.8316   1.8414   1.8519   1.8766   1.8844   1.9284   1.9517
     2.2391   2.3571   2.3755   2.4603   2.6716   3.3780   3.5909   4.1400
     4.2774   4.4877   4.6656   4.8566   4.8937   4.9344   5.2908   5.5512
     5.5516   5.6978   5.7563   5.7567   5.9054   5.9059   6.1079   6.1084

     occupation numbers 
     1.0000   1.0000   1.0000   1.0000   1.0000   1.0000   1.0000   1.0000
     1.0000   1.0000   1.0000   1.0000   1.0000   1.0000   1.0000   1.0000
     1.0000   1.0000   1.0000   1.0000   1.0000   1.0000   1.0000   1.0000
     1.0000   1.0000   1.0000   1.0000   1.0000   1.0000   1.0000   1.0000
     1.0000   1.0000   1.0000   1.0000   1.0000   1.0000   1.0000   1.0000
     1.0000   1.0000   1.0000   1.0000   1.0000   1.0000   1.0000   1.0000
     1.0000   1.0000   1.0000   1.0000   1.0000   1.0000   1.0000   1.0000
     1.0000   1.0000   1.0000   1.0000   1.0000   1.0000   1.0000   1.0000
     1.0000   1.0000   1.0000   1.0000   1.0000   1.0000   1.0000   1.0000

          k = 0.0000 0.0000 0.0974 (  8318 PWs)   bands (ev):

   -11.3715 -11.2798 -11.0200 -10.9214 -10.7954 -10.7648 -10.6862 -10.6592
     0.4878   0.5342   0.5568   0.6630   0.6687   0.6772   0.6974   0.6976
     0.7169   0.7172   0.7226   0.7865   0.7867   0.7985   0.8182   0.8184
     0.9628   1.0260   1.2230   1.2916   1.2954   1.3054   1.3438   1.4074
     1.7023   1.7024   1.7321   1.7321   1.7773   1.8023   1.8023   1.8229
     1.8229   1.8326   1.8376   1.8518   1.8584   1.8718   1.9402   1.9503
     2.3476   2.3526   2.4291   2.5170   2.6317   3.0227   3.7518   4.2365
     4.3343   4.5343   4.5366   4.9287   4.9385   5.0570   5.2409   5.3286
     5.5802   5.5807   5.6865   5.6869   5.9747   5.9751   6.0794   6.0799

     occupation numbers 
     1.0000   1.0000   1.0000   1.0000   1.0000   1.0000   1.0000   1.0000
     1.0000   1.0000   1.0000   1.0000   1.0000   1.0000   1.0000   1.0000
     1.0000   1.0000   1.0000   1.0000   1.0000   1.0000   1.0000   1.0000
     1.0000   1.0000   1.0000   1.0000   1.0000   1.0000   1.0000   1.0000
     1.0000   1.0000   1.0000   1.0000   1.0000   1.0000   1.0000   1.0000
     1.0000   1.0000   1.0000   1.0000   1.0000   1.0000   1.0000   1.0000
     1.0000   1.0000   1.0000   1.0000   1.0000   1.0000   1.0000   1.0000
     1.0000   1.0000   1.0000   1.0000   1.0000   1.0000   1.0000   1.0000
     1.0000   1.0000   1.0000   1.0000   1.0000   1.0000   1.0000   1.0000

          k = 0.0000 0.0000-0.1461 (  8260 PWs)   bands (ev):

   -11.3319 -11.3318 -10.9645 -10.9644 -10.7821 -10.7819 -10.6709 -10.6707
     0.5100   0.5100   0.6168   0.6169   0.6940   0.6941   0.7057   0.7057
     0.7059   0.7060   0.7259   0.7260   0.8041   0.8042   0.8043   0.8044
     0.9897   0.9898   1.2688   1.2688   1.2923   1.2924   1.3736   1.3736
     1.7159   1.7159   1.7159   1.7160   1.8146   1.8146   1.8147   1.8147
     1.8148   1.8148   1.8346   1.8347   1.8652   1.8653   1.9470   1.9471
     2.3440   2.3440   2.5767   2.5768   2.7003   2.7004   3.9795   3.9796
     4.4232   4.4233   4.9325   4.9326   4.9545   4.9546   5.1612   5.1614
     5.6264   5.6265   5.6268   5.6270   6.0339   6.0341   6.0344   6.0345

     occupation numbers 
     1.0000   1.0000   1.0000   1.0000   1.0000   1.0000   1.0000   1.0000
     1.0000   1.0000   1.0000   1.0000   1.0000   1.0000   1.0000   1.0000
     1.0000   1.0000   1.0000   1.0000   1.0000   1.0000   1.0000   1.0000
     1.0000   1.0000   1.0000   1.0000   1.0000   1.0000   1.0000   1.0000
     1.0000   1.0000   1.0000   1.0000   1.0000   1.0000   1.0000   1.0000
     1.0000   1.0000   1.0000   1.0000   1.0000   1.0000   1.0000   1.0000
     1.0000   1.0000   1.0000   1.0000   1.0000   1.0000   1.0000   1.0000
     1.0000   1.0000   1.0000   1.0000   1.0000   1.0000   1.0000   1.0000
     1.0000   1.0000   1.0000   1.0000   1.0000   1.0000   1.0000   1.0000

          k = 0.0000 0.0962 0.0000 (  8314 PWs)   bands (ev):

   -11.3702 -11.1242 -11.1242 -10.8659 -10.8593 -10.7545 -10.7545 -10.6555
     0.4761   0.4761   0.5199   0.5970   0.5970   0.6588   0.7126   0.7481
     0.7705   0.7741   0.7741   0.7841   0.7841   0.8293   0.8596   0.9310
     0.9441   1.0973   1.0974   1.2407   1.2407   1.2908   1.2981   1.3765
     1.6762   1.6883   1.6899   1.7680   1.7680   1.7683   1.7683   1.8049
     1.8300   1.8300   1.8316   1.8485   1.8485   1.8581   1.8706   2.0509
     2.1662   2.3993   2.6507   2.6507   2.7645   3.5761   3.7621   3.7621
     4.3530   4.6870   4.6870   4.8758   4.8758   5.0213   5.2796   5.3675
     5.4588   5.5903   5.6180   5.6180   5.7655   5.7655   5.8872   6.0684

     occupation numbers 
     1.0000   1.0000   1.0000   1.0000   1.0000   1.0000   1.0000   1.0000
     1.0000   1.0000   1.0000   1.0000   1.0000   1.0000   1.0000   1.0000
     1.0000   1.0000   1.0000   1.0000   1.0000   1.0000   1.0000   1.0000
     1.0000   1.0000   1.0000   1.0000   1.0000   1.0000   1.0000   1.0000
     1.0000   1.0000   1.0000   1.0000   1.0000   1.0000   1.0000   1.0000
     1.0000   1.0000   1.0000   1.0000   1.0000   1.0000   1.0000   1.0000
     1.0000   1.0000   1.0000   1.0000   1.0000   1.0000   1.0000   1.0000
     1.0000   1.0000   1.0000   1.0000   1.0000   1.0000   1.0000   1.0000
     1.0000   1.0000   1.0000   1.0000   1.0000   1.0000   1.0000   1.0000

          k = 0.0000 0.0962 0.0487 (  8301 PWs)   bands (ev):

   -11.3620 -11.1890 -11.0586 -10.8750 -10.8556 -10.7811 -10.7283 -10.6588
     0.4617   0.5114   0.5143   0.6001   0.6131   0.6566   0.7144   0.7326
     0.7560   0.7667   0.7700   0.7936   0.8018   0.8197   0.8562   0.9195
     0.9362   1.0514   1.1457   1.2413   1.2491   1.2873   1.2906   1.3624
     1.6798   1.6913   1.6963   1.7462   1.7490   1.7865   1.7887   1.8057
     1.8109   1.8227   1.8298   1.8383   1.8509   1.8687   1.8870   2.0380
     2.2438   2.4019   2.5798   2.7214   2.7902   3.3975   3.6092   4.1306
     4.3717   4.4442   4.7447   4.8764   5.0048   5.0310   5.2844   5.3509
     5.4694   5.4731   5.5327   5.6865   5.7038   5.8442   5.8997   6.0582

     occupation numbers 
     1.0000   1.0000   1.0000   1.0000   1.0000   1.0000   1.0000   1.0000
     1.0000   1.0000   1.0000   1.0000   1.0000   1.0000   1.0000   1.0000
     1.0000   1.0000   1.0000   1.0000   1.0000   1.0000   1.0000   1.0000
     1.0000   1.0000   1.0000   1.0000   1.0000   1.0000   1.0000   1.0000
     1.0000   1.0000   1.0000   1.0000   1.0000   1.0000   1.0000   1.0000
     1.0000   1.0000   1.0000   1.0000   1.0000   1.0000   1.0000   1.0000
     1.0000   1.0000   1.0000   1.0000   1.0000   1.0000   1.0000   1.0000
     1.0000   1.0000   1.0000   1.0000   1.0000   1.0000   1.0000   1.0000
     1.0000   1.0000   1.0000   1.0000   1.0000   1.0000   1.0000   1.0000

          k = 0.0000 0.0962 0.0974 (  8318 PWs)   bands (ev):

   -11.3379 -11.2487 -10.9967 -10.9013 -10.8450 -10.8062 -10.7042 -10.6684
     0.4652   0.4993   0.5651   0.6156   0.6490   0.6519   0.6895   0.7196
     0.7405   0.7550   0.7616   0.7855   0.8135   0.8219   0.8466   0.8751
     0.9515   1.0105   1.1929   1.2499   1.2661   1.2688   1.2772   1.3289
     1.6897   1.6999   1.7143   1.7247   1.7302   1.7748   1.8023   1.8072
     1.8077   1.8165   1.8243   1.8376   1.8472   1.8634   1.9263   2.0059
     2.4198   2.4447   2.5141   2.7840   2.8267   3.0465   3.7220   4.1764
     4.4261   4.4958   4.6203   4.9961   5.0489   5.1238   5.1692   5.3024
     5.3482   5.4542   5.5002   5.6127   5.7832   5.8909   5.9174   6.0280

     occupation numbers 
     1.0000   1.0000   1.0000   1.0000   1.0000   1.0000   1.0000   1.0000
     1.0000   1.0000   1.0000   1.0000   1.0000   1.0000   1.0000   1.0000
     1.0000   1.0000   1.0000   1.0000   1.0000   1.0000   1.0000   1.0000
     1.0000   1.0000   1.0000   1.0000   1.0000   1.0000   1.0000   1.0000
     1.0000   1.0000   1.0000   1.0000   1.0000   1.0000   1.0000   1.0000
     1.0000   1.0000   1.0000   1.0000   1.0000   1.0000   1.0000   1.0000
     1.0000   1.0000   1.0000   1.0000   1.0000   1.0000   1.0000   1.0000
     1.0000   1.0000   1.0000   1.0000   1.0000   1.0000   1.0000   1.0000
     1.0000   1.0000   1.0000   1.0000   1.0000   1.0000   1.0000   1.0000

          k = 0.0000 0.0962-0.1461 (  8318 PWs)   bands (ev):

   -11.2994 -11.2993 -10.9430 -10.9429 -10.8281 -10.8280 -10.6839 -10.6838
     0.4804   0.4805   0.6288   0.6289   0.6344   0.6345   0.7097   0.7097
     0.7282   0.7283   0.7618   0.7618   0.8316   0.8317   0.8446   0.8446
     0.9767   0.9768   1.2351   1.2352   1.2635   1.2635   1.2932   1.2932
     1.7051   1.7052   1.7133   1.7133   1.7416   1.7416   1.8114   1.8115
     1.8151   1.8152   1.8233   1.8234   1.8557   1.8558   1.9664   1.9664
     2.4588   2.4588   2.7225   2.7225   2.8250   2.8250   3.9212   3.9212
     4.5113   4.5114   4.8492   4.8492   5.0472   5.0473   5.2250   5.2251
     5.3886   5.3888   5.5490   5.5491   5.8486   5.8486   5.9800   5.9801

     occupation numbers 
     1.0000   1.0000   1.0000   1.0000   1.0000   1.0000   1.0000   1.0000
     1.0000   1.0000   1.0000   1.0000   1.0000   1.0000   1.0000   1.0000
     1.0000   1.0000   1.0000   1.0000   1.0000   1.0000   1.0000   1.0000
     1.0000   1.0000   1.0000   1.0000   1.0000   1.0000   1.0000   1.0000
     1.0000   1.0000   1.0000   1.0000   1.0000   1.0000   1.0000   1.0000
     1.0000   1.0000   1.0000   1.0000   1.0000   1.0000   1.0000   1.0000
     1.0000   1.0000   1.0000   1.0000   1.0000   1.0000   1.0000   1.0000
     1.0000   1.0000   1.0000   1.0000   1.0000   1.0000   1.0000   1.0000
     1.0000   1.0000   1.0000   1.0000   1.0000   1.0000   1.0000   1.0000

          k = 0.0000 0.1925 0.0000 (  8322 PWs)   bands (ev):

   -11.2736 -11.0486 -11.0486 -10.9839 -10.8352 -10.8352 -10.8151 -10.6885
     0.4719   0.4719   0.4790   0.5409   0.5409   0.5796   0.7606   0.7694
     0.7885   0.8435   0.8435   0.8650   0.8650   0.8690   0.8982   0.9404
     1.0327   1.0327   1.0830   1.1085   1.1085   1.1335   1.1934   1.3831
     1.6018   1.6373   1.6881   1.7505   1.7663   1.7663   1.7677   1.7677
     1.7937   1.7937   1.7983   1.7984   1.8363   1.8551   1.9435   2.0460
     2.1666   2.4294   3.1005   3.1234   3.1234   3.7467   3.7467   3.8913
     4.6011   4.6012   4.6729   4.6729   4.9922   5.0735   5.0735   5.1574
     5.1574   5.2332   5.3081   5.5256   5.5844   5.5844   5.7704   5.9294

     occupation numbers 
     1.0000   1.0000   1.0000   1.0000   1.0000   1.0000   1.0000   1.0000
     1.0000   1.0000   1.0000   1.0000   1.0000   1.0000   1.0000   1.0000
     1.0000   1.0000   1.0000   1.0000   1.0000   1.0000   1.0000   1.0000
     1.0000   1.0000   1.0000   1.0000   1.0000   1.0000   1.0000   1.0000
     1.0000   1.0000   1.0000   1.0000   1.0000   1.0000   1.0000   1.0000
     1.0000   1.0000   1.0000   1.0000   1.0000   1.0000   1.0000   1.0000
     1.0000   1.0000   1.0000   1.0000   1.0000   1.0000   1.0000   1.0000
     1.0000   1.0000   1.0000   1.0000   1.0000   1.0000   1.0000   1.0000
     1.0000   1.0000   1.0000   1.0000   1.0000   1.0000   1.0000   1.0000

          k = 0.0000 0.1925 0.0487 (  8330 PWs)   bands (ev):

   -11.2660 -11.1076 -10.9890 -10.9788 -10.8735 -10.8232 -10.7970 -10.6934
     0.4495   0.4751   0.5147   0.5318   0.5702   0.5759   0.7465   0.7716
     0.7782   0.8222   0.8514   0.8643   0.8661   0.8846   0.9024   0.9367
     0.9956   1.0541   1.0716   1.0984   1.1294   1.1300   1.1874   1.3534
     1.6090   1.6426   1.6911   1.7363   1.7481   1.7488   1.7520   1.7853
     1.7866   1.7952   1.8118   1.8341   1.8381   1.8529   1.9141   2.0178
     2.2689   2.5003   3.0226   3.1272   3.2107   3.4293   3.8861   4.0419
     4.4003   4.6052   4.6179   4.9161   4.9540   4.9583   5.0280   5.1918
     5.2453   5.2992   5.3045   5.4942   5.5104   5.6742   5.7464   5.9177

     occupation numbers 
     1.0000   1.0000   1.0000   1.0000   1.0000   1.0000   1.0000   1.0000
     1.0000   1.0000   1.0000   1.0000   1.0000   1.0000   1.0000   1.0000
     1.0000   1.0000   1.0000   1.0000   1.0000   1.0000   1.0000   1.0000
     1.0000   1.0000   1.0000   1.0000   1.0000   1.0000   1.0000   1.0000
     1.0000   1.0000   1.0000   1.0000   1.0000   1.0000   1.0000   1.0000
     1.0000   1.0000   1.0000   1.0000   1.0000   1.0000   1.0000   1.0000
     1.0000   1.0000   1.0000   1.0000   1.0000   1.0000   1.0000   1.0000
     1.0000   1.0000   1.0000   1.0000   1.0000   1.0000   1.0000   1.0000
     1.0000   1.0000   1.0000   1.0000   1.0000   1.0000   1.0000   1.0000

          k = 0.0000 0.1925 0.0974 (  8332 PWs)   bands (ev):

   -11.2439 -11.1621 -10.9639 -10.9329 -10.9094 -10.8469 -10.7615 -10.7080
     0.4450   0.4647   0.5376   0.5657   0.5752   0.6204   0.7052   0.7434
     0.7781   0.8038   0.8447   0.8537   0.8888   0.9106   0.9149   0.9258
     0.9625   0.9958   1.0987   1.1095   1.1193   1.1650   1.1702   1.2857
     1.6306   1.6575   1.6995   1.7047   1.7068   1.7292   1.7566   1.7736
     1.8034   1.8226   1.8250   1.8278   1.8466   1.8775   1.8816   1.9699
     2.4967   2.6448   2.9124   3.1032   3.1979   3.2683   3.8897   4.1416
     4.3016   4.5975   4.6665   4.8412   4.8843   4.9227   5.1031   5.2807
     5.2838   5.3010   5.4098   5.4418   5.4656   5.6775   5.7575   5.8835

     occupation numbers 
     1.0000   1.0000   1.0000   1.0000   1.0000   1.0000   1.0000   1.0000
     1.0000   1.0000   1.0000   1.0000   1.0000   1.0000   1.0000   1.0000
     1.0000   1.0000   1.0000   1.0000   1.0000   1.0000   1.0000   1.0000
     1.0000   1.0000   1.0000   1.0000   1.0000   1.0000   1.0000   1.0000
     1.0000   1.0000   1.0000   1.0000   1.0000   1.0000   1.0000   1.0000
     1.0000   1.0000   1.0000   1.0000   1.0000   1.0000   1.0000   1.0000
     1.0000   1.0000   1.0000   1.0000   1.0000   1.0000   1.0000   1.0000
     1.0000   1.0000   1.0000   1.0000   1.0000   1.0000   1.0000   1.0000
     1.0000   1.0000   1.0000   1.0000   1.0000   1.0000   1.0000   1.0000

          k = 0.0000 0.1925-0.1461 (  8334 PWs)   bands (ev):

   -11.2086 -11.2085 -10.9403 -10.9402 -10.8844 -10.8843 -10.7313 -10.7311
     0.4525   0.4525   0.5513   0.5513   0.6437   0.6438   0.6843   0.6844
     0.7889   0.7890   0.8456   0.8457   0.9093   0.9094   0.9352   0.9353
     0.9457   0.9457   1.1071   1.1071   1.1432   1.1433   1.2170   1.2170
     1.6640   1.6641   1.6797   1.6797   1.7126   1.7127   1.7639   1.7639
     1.8174   1.8175   1.8368   1.8369   1.8489   1.8490   1.9248   1.9248
     2.7851   2.7851   2.7883   2.7884   3.2655   3.2655   3.9593   3.9594
     4.5027   4.5028   4.7428   4.7429   4.8613   4.8614   5.2234   5.2235
     5.3368   5.3369   5.3943   5.3944   5.5722   5.5722   5.8288   5.8289

     occupation numbers 
     1.0000   1.0000   1.0000   1.0000   1.0000   1.0000   1.0000   1.0000
     1.0000   1.0000   1.0000   1.0000   1.0000   1.0000   1.0000   1.0000
     1.0000   1.0000   1.0000   1.0000   1.0000   1.0000   1.0000   1.0000
     1.0000   1.0000   1.0000   1.0000   1.0000   1.0000   1.0000   1.0000
     1.0000   1.0000   1.0000   1.0000   1.0000   1.0000   1.0000   1.0000
     1.0000   1.0000   1.0000   1.0000   1.0000   1.0000   1.0000   1.0000
     1.0000   1.0000   1.0000   1.0000   1.0000   1.0000   1.0000   1.0000
     1.0000   1.0000   1.0000   1.0000   1.0000   1.0000   1.0000   1.0000
     1.0000   1.0000   1.0000   1.0000   1.0000   1.0000   1.0000   1.0000

          k = 0.0000-0.2887 0.0000 (  8332 PWs)   bands (ev):

   -11.1346 -11.1346 -10.9432 -10.9431 -10.9431 -10.9431 -10.7484 -10.7484
     0.4926   0.4926   0.4926   0.4926   0.5029   0.5029   0.7753   0.7753
     0.8400   0.8400   0.9389   0.9389   0.9389   0.9389   0.9759   0.9759
     0.9759   0.9759   0.9805   0.9805   1.0609   1.0609   1.2668   1.2668
     1.5908   1.5908   1.7062   1.7062   1.7714   1.7714   1.7715   1.7715
     1.7753   1.7753   1.7753   1.7753   1.8435   1.8435   2.0313   2.0313
     2.2384   2.2384   3.5595   3.5595   3.5595   3.5595   3.8101   3.8101
     4.4093   4.4093   4.7828   4.7828   4.7828   4.7828   4.9225   4.9225
     5.3329   5.3329   5.3329   5.3329   5.5766   5.5767   5.7321   5.7321

     occupation numbers 
     1.0000   1.0000   1.0000   1.0000   1.0000   1.0000   1.0000   1.0000
     1.0000   1.0000   1.0000   1.0000   1.0000   1.0000   1.0000   1.0000
     1.0000   1.0000   1.0000   1.0000   1.0000   1.0000   1.0000   1.0000
     1.0000   1.0000   1.0000   1.0000   1.0000   1.0000   1.0000   1.0000
     1.0000   1.0000   1.0000   1.0000   1.0000   1.0000   1.0000   1.0000
     1.0000   1.0000   1.0000   1.0000   1.0000   1.0000   1.0000   1.0000
     1.0000   1.0000   1.0000   1.0000   1.0000   1.0000   1.0000   1.0000
     1.0000   1.0000   1.0000   1.0000   1.0000   1.0000   1.0000   1.0000
     1.0000   1.0000   1.0000   1.0000   1.0000   1.0000   1.0000   1.0000

          k = 0.0000-0.2887 0.0487 (  8332 PWs)   bands (ev):

   -11.1282 -11.1282 -10.9930 -10.9930 -10.8930 -10.8930 -10.7551 -10.7551
     0.4729   0.4729   0.4994   0.4994   0.5328   0.5328   0.7621   0.7621
     0.8430   0.8430   0.9113   0.9113   0.9623   0.9623   0.9680   0.9680
     0.9774   0.9774   0.9990   0.9990   1.0563   1.0563   1.2307   1.2307
     1.6001   1.6001   1.7085   1.7085   1.7313   1.7313   1.7576   1.7576
     1.7930   1.7930   1.8106   1.8106   1.8411   1.8411   1.9828   1.9828
     2.3572   2.3572   3.3591   3.3591   3.7214   3.7214   3.8234   3.8234
     4.3910   4.3910   4.5633   4.5633   4.9368   4.9368   5.0142   5.0143
     5.2281   5.2281   5.4370   5.4370   5.5589   5.5589   5.7186   5.7186

     occupation numbers 
     1.0000   1.0000   1.0000   1.0000   1.0000   1.0000   1.0000   1.0000
     1.0000   1.0000   1.0000   1.0000   1.0000   1.0000   1.0000   1.0000
     1.0000   1.0000   1.0000   1.0000   1.0000   1.0000   1.0000   1.0000
     1.0000   1.0000   1.0000   1.0000   1.0000   1.0000   1.0000   1.0000
     1.0000   1.0000   1.0000   1.0000   1.0000   1.0000   1.0000   1.0000
     1.0000   1.0000   1.0000   1.0000   1.0000   1.0000   1.0000   1.0000
     1.0000   1.0000   1.0000   1.0000   1.0000   1.0000   1.0000   1.0000
     1.0000   1.0000   1.0000   1.0000   1.0000   1.0000   1.0000   1.0000
     1.0000   1.0000   1.0000   1.0000   1.0000   1.0000   1.0000   1.0000

          k = 0.0000-0.2887 0.0974 (  8316 PWs)   bands (ev):

   -11.1092 -11.1092 -11.0393 -11.0393 -10.8462 -10.8461 -10.7747 -10.7746
     0.4703   0.4703   0.4900   0.4900   0.5921   0.5921   0.7224   0.7225
     0.8521   0.8522   0.8869   0.8870   0.9577   0.9577   0.9694   0.9694
     0.9967   0.9967   1.0335   1.0335   1.0430   1.0430   1.1547   1.1547
     1.6232   1.6232   1.6919   1.6919   1.7156   1.7156   1.7410   1.7410
     1.8095   1.8095   1.8343   1.8343   1.8481   1.8482   1.9274   1.9274
     2.5905   2.5905   3.1220   3.1220   3.8359   3.8359   3.8565   3.8565
     4.3492   4.3492   4.3979   4.3979   4.9785   4.9785   5.1297   5.1297
     5.2241   5.2241   5.4999   5.4999   5.5334   5.5334   5.6790   5.6790

     occupation numbers 
     1.0000   1.0000   1.0000   1.0000   1.0000   1.0000   1.0000   1.0000
     1.0000   1.0000   1.0000   1.0000   1.0000   1.0000   1.0000   1.0000
     1.0000   1.0000   1.0000   1.0000   1.0000   1.0000   1.0000   1.0000
     1.0000   1.0000   1.0000   1.0000   1.0000   1.0000   1.0000   1.0000
     1.0000   1.0000   1.0000   1.0000   1.0000   1.0000   1.0000   1.0000
     1.0000   1.0000   1.0000   1.0000   1.0000   1.0000   1.0000   1.0000
     1.0000   1.0000   1.0000   1.0000   1.0000   1.0000   1.0000   1.0000
     1.0000   1.0000   1.0000   1.0000   1.0000   1.0000   1.0000   1.0000
     1.0000   1.0000   1.0000   1.0000   1.0000   1.0000   1.0000   1.0000

          k = 0.0000-0.2887-0.1461 (  8332 PWs)   bands (ev):

   -11.0790 -11.0790 -11.0789 -11.0789 -10.8058 -10.8058 -10.8057 -10.8057
     0.4782   0.4783   0.4783   0.4783   0.6608   0.6608   0.6608   0.6608
     0.8669   0.8669   0.8670   0.8670   0.9610   0.9610   0.9611   0.9611
     1.0224   1.0224   1.0225   1.0225   1.0840   1.0840   1.0841   1.0841
     1.6549   1.6549   1.6549   1.6549   1.7267   1.7267   1.7268   1.7268
     1.8234   1.8234   1.8235   1.8235   1.8855   1.8855   1.8855   1.8855
     2.8578   2.8578   2.8578   2.8578   3.8785   3.8785   3.8786   3.8786
     4.3292   4.3292   4.3292   4.3292   5.0443   5.0444   5.0445   5.0445
     5.3893   5.3893   5.3894   5.3894   5.6158   5.6159   5.6160   5.6160

     occupation numbers 
     1.0000   1.0000   1.0000   1.0000   1.0000   1.0000   1.0000   1.0000
     1.0000   1.0000   1.0000   1.0000   1.0000   1.0000   1.0000   1.0000
     1.0000   1.0000   1.0000   1.0000   1.0000   1.0000   1.0000   1.0000
     1.0000   1.0000   1.0000   1.0000   1.0000   1.0000   1.0000   1.0000
     1.0000   1.0000   1.0000   1.0000   1.0000   1.0000   1.0000   1.0000
     1.0000   1.0000   1.0000   1.0000   1.0000   1.0000   1.0000   1.0000
     1.0000   1.0000   1.0000   1.0000   1.0000   1.0000   1.0000   1.0000
     1.0000   1.0000   1.0000   1.0000   1.0000   1.0000   1.0000   1.0000
     1.0000   1.0000   1.0000   1.0000   1.0000   1.0000   1.0000   1.0000

          k = 0.1667 0.0962 0.0000 (  8338 PWs)   bands (ev):

   -11.2736 -11.0486 -11.0486 -10.8151 -10.8131 -10.7266 -10.7265 -10.6469
     0.5409   0.5410   0.5797   0.6146   0.6146   0.6415   0.7692   0.7885
     0.8433   0.8433   0.8651   0.8651   0.8691   0.8748   0.9403   0.9675
     1.0556   1.0556   1.0830   1.2222   1.2363   1.2363   1.3451   1.4128
     1.6373   1.6486   1.6882   1.7375   1.7663   1.7663   1.7678   1.7678
     1.7890   1.7890   1.8363   1.8996   1.9435   1.9442   1.9442   2.0924
     2.1666   2.3984   2.6797   2.6797   2.9383   3.5204   3.7467   3.7467
     3.8363   4.2575   4.2575   4.6014   4.8103   4.8103   4.8528   4.9924
     5.0301   5.1576   5.1576   5.2329   5.5840   5.5841   5.7704   5.9291

     occupation numbers 
     1.0000   1.0000   1.0000   1.0000   1.0000   1.0000   1.0000   1.0000
     1.0000   1.0000   1.0000   1.0000   1.0000   1.0000   1.0000   1.0000
     1.0000   1.0000   1.0000   1.0000   1.0000   1.0000   1.0000   1.0000
     1.0000   1.0000   1.0000   1.0000   1.0000   1.0000   1.0000   1.0000
     1.0000   1.0000   1.0000   1.0000   1.0000   1.0000   1.0000   1.0000
     1.0000   1.0000   1.0000   1.0000   1.0000   1.0000   1.0000   1.0000
     1.0000   1.0000   1.0000   1.0000   1.0000   1.0000   1.0000   1.0000
     1.0000   1.0000   1.0000   1.0000   1.0000   1.0000   1.0000   1.0000
     1.0000   1.0000   1.0000   1.0000   1.0000   1.0000   1.0000   1.0000

          k = 0.1667 0.0962 0.0487 (  8342 PWs)   bands (ev):

   -11.2660 -11.1076 -10.9890 -10.8232 -10.8100 -10.7483 -10.7052 -10.6495
     0.5319   0.5702   0.5761   0.6015   0.6390   0.6484   0.7714   0.7782
     0.8220   0.8515   0.8605   0.8644   0.8660   0.8847   0.9366   0.9656
     1.0135   1.0541   1.1050   1.2191   1.2302   1.2511   1.3360   1.3916
     1.6426   1.6489   1.6911   1.7363   1.7481   1.7532   1.7657   1.7866
     1.7952   1.8011   1.8341   1.8993   1.9141   1.9215   1.9748   2.0873
     2.2689   2.4048   2.6043   2.7562   2.9402   3.4293   3.5507   3.8701
     4.0420   4.0979   4.3798   4.6055   4.6593   4.8497   4.9399   4.9585
     5.0264   5.0283   5.2450   5.2995   5.4939   5.6738   5.7464   5.9174

     occupation numbers 
     1.0000   1.0000   1.0000   1.0000   1.0000   1.0000   1.0000   1.0000
     1.0000   1.0000   1.0000   1.0000   1.0000   1.0000   1.0000   1.0000
     1.0000   1.0000   1.0000   1.0000   1.0000   1.0000   1.0000   1.0000
     1.0000   1.0000   1.0000   1.0000   1.0000   1.0000   1.0000   1.0000
     1.0000   1.0000   1.0000   1.0000   1.0000   1.0000   1.0000   1.0000
     1.0000   1.0000   1.0000   1.0000   1.0000   1.0000   1.0000   1.0000
     1.0000   1.0000   1.0000   1.0000   1.0000   1.0000   1.0000   1.0000
     1.0000   1.0000   1.0000   1.0000   1.0000   1.0000   1.0000   1.0000
     1.0000   1.0000   1.0000   1.0000   1.0000   1.0000   1.0000   1.0000

          k = 0.1667 0.0962 0.0974 (  8344 PWs)   bands (ev):

   -11.2439 -11.1621 -10.9329 -10.8469 -10.8011 -10.7690 -10.6858 -10.6572
     0.5378   0.5659   0.6054   0.6205   0.6309   0.7008   0.7434   0.7779
     0.8036   0.8202   0.8448   0.8538   0.8886   0.9107   0.9257   0.9629
     0.9832   0.9958   1.1550   1.2098   1.2364   1.2738   1.3077   1.3444
     1.6575   1.6645   1.6995   1.7068   1.7292   1.7327   1.7782   1.8030
     1.8035   1.8226   1.8278   1.8776   1.8992   1.9078   2.0094   2.0706
     2.4288   2.4967   2.5339   2.8290   2.9295   3.1032   3.6414   3.9342
     3.9712   4.3017   4.3174   4.5978   4.6503   4.8203   4.8845   4.9230
     5.0123   5.0270   5.2804   5.4094   5.4420   5.6776   5.7571   5.8831

     occupation numbers 
     1.0000   1.0000   1.0000   1.0000   1.0000   1.0000   1.0000   1.0000
     1.0000   1.0000   1.0000   1.0000   1.0000   1.0000   1.0000   1.0000
     1.0000   1.0000   1.0000   1.0000   1.0000   1.0000   1.0000   1.0000
     1.0000   1.0000   1.0000   1.0000   1.0000   1.0000   1.0000   1.0000
     1.0000   1.0000   1.0000   1.0000   1.0000   1.0000   1.0000   1.0000
     1.0000   1.0000   1.0000   1.0000   1.0000   1.0000   1.0000   1.0000
     1.0000   1.0000   1.0000   1.0000   1.0000   1.0000   1.0000   1.0000
     1.0000   1.0000   1.0000   1.0000   1.0000   1.0000   1.0000   1.0000
     1.0000   1.0000   1.0000   1.0000   1.0000   1.0000   1.0000   1.0000

          k = 0.1667 0.0962-0.1461 (  8330 PWs)   bands (ev):

   -11.2086 -11.2085 -10.8844 -10.8843 -10.7871 -10.7870 -10.6695 -10.6694
     0.5514   0.5515   0.6180   0.6181   0.6844   0.6844   0.7626   0.7627
     0.7887   0.7888   0.8457   0.8457   0.9092   0.9093   0.9458   0.9458
     0.9668   0.9669   1.1918   1.1918   1.2646   1.2646   1.3040   1.3041
     1.6796   1.6797   1.6960   1.6961   1.7126   1.7127   1.7955   1.7956
     1.8174   1.8175   1.8490   1.8490   1.9013   1.9014   2.0431   2.0431
     2.4734   2.4734   2.7851   2.7851   2.8904   2.8904   3.7774   3.7775
     4.1322   4.1323   4.5029   4.5029   4.7458   4.7459   4.8616   4.8617
     5.0325   5.0326   5.3365   5.3366   5.5723   5.5723   5.8284   5.8286

     occupation numbers 
     1.0000   1.0000   1.0000   1.0000   1.0000   1.0000   1.0000   1.0000
     1.0000   1.0000   1.0000   1.0000   1.0000   1.0000   1.0000   1.0000
     1.0000   1.0000   1.0000   1.0000   1.0000   1.0000   1.0000   1.0000
     1.0000   1.0000   1.0000   1.0000   1.0000   1.0000   1.0000   1.0000
     1.0000   1.0000   1.0000   1.0000   1.0000   1.0000   1.0000   1.0000
     1.0000   1.0000   1.0000   1.0000   1.0000   1.0000   1.0000   1.0000
     1.0000   1.0000   1.0000   1.0000   1.0000   1.0000   1.0000   1.0000
     1.0000   1.0000   1.0000   1.0000   1.0000   1.0000   1.0000   1.0000
     1.0000   1.0000   1.0000   1.0000   1.0000   1.0000   1.0000   1.0000

          k = 0.1667 0.1925 0.0000 (  8332 PWs)   bands (ev):

   -11.1867 -10.9821 -10.9821 -10.9267 -10.7962 -10.7962 -10.7723 -10.6694
     0.5202   0.5202   0.5531   0.5686   0.5686   0.6238   0.7498   0.7641
     0.8255   0.8661   0.8661   0.8977   0.9460   0.9578   0.9578   0.9930
     0.9930   1.0282   1.0820   1.1325   1.1325   1.2032   1.2640   1.3983
     1.5826   1.6125   1.6907   1.7353   1.7671   1.7671   1.7740   1.7740
     1.7874   1.7874   1.8391   1.8551   1.8551   1.8695   2.0118   2.0758
     2.1998   2.4974   3.0850   3.0850   3.2804   3.6391   3.6698   3.6698
     4.1008   4.1997   4.5014   4.5014   4.5030   4.8258   4.8258   4.9077
     4.9077   5.0361   5.1659   5.2474   5.3729   5.3729   5.6642   5.7559

     occupation numbers 
     1.0000   1.0000   1.0000   1.0000   1.0000   1.0000   1.0000   1.0000
     1.0000   1.0000   1.0000   1.0000   1.0000   1.0000   1.0000   1.0000
     1.0000   1.0000   1.0000   1.0000   1.0000   1.0000   1.0000   1.0000
     1.0000   1.0000   1.0000   1.0000   1.0000   1.0000   1.0000   1.0000
     1.0000   1.0000   1.0000   1.0000   1.0000   1.0000   1.0000   1.0000
     1.0000   1.0000   1.0000   1.0000   1.0000   1.0000   1.0000   1.0000
     1.0000   1.0000   1.0000   1.0000   1.0000   1.0000   1.0000   1.0000
     1.0000   1.0000   1.0000   1.0000   1.0000   1.0000   1.0000   1.0000
     1.0000   1.0000   1.0000   1.0000   1.0000   1.0000   1.0000   1.0000

          k = 0.1667 0.1925 0.0487 (  8343 PWs)   bands (ev):

   -11.1798 -11.0356 -10.9283 -10.9222 -10.8297 -10.7795 -10.7630 -10.6737
     0.5072   0.5490   0.5538   0.5571   0.5996   0.6182   0.7437   0.7564
     0.8236   0.8548   0.8716   0.8940   0.9449   0.9624   0.9686   0.9729
     1.0126   1.0244   1.0780   1.1303   1.1516   1.1697   1.2574   1.3597
     1.5910   1.6193   1.6943   1.7342   1.7466   1.7510   1.7511   1.7883
     1.7986   1.8071   1.8368   1.8479   1.8677   1.8857   1.9649   2.0567
     2.3191   2.5462   2.9868   3.1769   3.2998   3.4161   3.6556   3.8871
     4.1127   4.2093   4.3645   4.4594   4.4892   4.7253   4.8015   4.9864
     5.0408   5.0951   5.1486   5.2474   5.2861   5.4699   5.6436   5.7429

     occupation numbers 
     1.0000   1.0000   1.0000   1.0000   1.0000   1.0000   1.0000   1.0000
     1.0000   1.0000   1.0000   1.0000   1.0000   1.0000   1.0000   1.0000
     1.0000   1.0000   1.0000   1.0000   1.0000   1.0000   1.0000   1.0000
     1.0000   1.0000   1.0000   1.0000   1.0000   1.0000   1.0000   1.0000
     1.0000   1.0000   1.0000   1.0000   1.0000   1.0000   1.0000   1.0000
     1.0000   1.0000   1.0000   1.0000   1.0000   1.0000   1.0000   1.0000
     1.0000   1.0000   1.0000   1.0000   1.0000   1.0000   1.0000   1.0000
     1.0000   1.0000   1.0000   1.0000   1.0000   1.0000   1.0000   1.0000
     1.0000   1.0000   1.0000   1.0000   1.0000   1.0000   1.0000   1.0000

          k = 0.1667 0.1925 0.0974 (  8352 PWs)   bands (ev):

   -11.1596 -11.0851 -10.9090 -10.8778 -10.8611 -10.8007 -10.7323 -10.6862
     0.5106   0.5379   0.5637   0.6027   0.6074   0.6445   0.7247   0.7265
     0.8231   0.8411   0.8738   0.8856   0.9435   0.9560   0.9783   0.9941
     1.0134   1.0309   1.0664   1.0998   1.1505   1.1809   1.2383   1.2776
     1.6172   1.6378   1.6983   1.7037   1.7038   1.7330   1.7667   1.7939
     1.8051   1.8302   1.8412   1.8514   1.8634   1.9133   1.9287   2.0172
     2.5568   2.6543   2.8832   3.1340   3.2574   3.3283   3.7311   4.0635
     4.1369   4.1527   4.2239   4.3312   4.4611   4.5748   4.9030   5.0606
     5.0954   5.1246   5.1593   5.2407   5.3231   5.5626   5.5791   5.7044

     occupation numbers 
     1.0000   1.0000   1.0000   1.0000   1.0000   1.0000   1.0000   1.0000
     1.0000   1.0000   1.0000   1.0000   1.0000   1.0000   1.0000   1.0000
     1.0000   1.0000   1.0000   1.0000   1.0000   1.0000   1.0000   1.0000
     1.0000   1.0000   1.0000   1.0000   1.0000   1.0000   1.0000   1.0000
     1.0000   1.0000   1.0000   1.0000   1.0000   1.0000   1.0000   1.0000
     1.0000   1.0000   1.0000   1.0000   1.0000   1.0000   1.0000   1.0000
     1.0000   1.0000   1.0000   1.0000   1.0000   1.0000   1.0000   1.0000
     1.0000   1.0000   1.0000   1.0000   1.0000   1.0000   1.0000   1.0000
     1.0000   1.0000   1.0000   1.0000   1.0000   1.0000   1.0000   1.0000

          k = 0.1667 0.1925-0.1461 (  8344 PWs)   bands (ev):

   -11.1274 -11.1273 -10.8882 -10.8881 -10.8343 -10.8342 -10.7062 -10.7061
     0.5232   0.5233   0.5819   0.5820   0.6713   0.6714   0.6904   0.6905
     0.8294   0.8295   0.8778   0.8779   0.9462   0.9462   0.9971   0.9971
     1.0369   1.0369   1.0495   1.0496   1.1973   1.1974   1.2141   1.2141
     1.6570   1.6571   1.6652   1.6653   1.7170   1.7171   1.7829   1.7830
     1.8193   1.8194   1.8575   1.8575   1.8752   1.8753   1.9733   1.9734
     2.7723   2.7723   2.8395   2.8395   3.3144   3.3145   3.9015   3.9016
     4.1853   4.1854   4.2259   4.2260   4.4778   4.4778   5.0100   5.0101
     5.1028   5.1029   5.2070   5.2071   5.4682   5.4682   5.6428   5.6429

     occupation numbers 
     1.0000   1.0000   1.0000   1.0000   1.0000   1.0000   1.0000   1.0000
     1.0000   1.0000   1.0000   1.0000   1.0000   1.0000   1.0000   1.0000
     1.0000   1.0000   1.0000   1.0000   1.0000   1.0000   1.0000   1.0000
     1.0000   1.0000   1.0000   1.0000   1.0000   1.0000   1.0000   1.0000
     1.0000   1.0000   1.0000   1.0000   1.0000   1.0000   1.0000   1.0000
     1.0000   1.0000   1.0000   1.0000   1.0000   1.0000   1.0000   1.0000
     1.0000   1.0000   1.0000   1.0000   1.0000   1.0000   1.0000   1.0000
     1.0000   1.0000   1.0000   1.0000   1.0000   1.0000   1.0000   1.0000
     1.0000   1.0000   1.0000   1.0000   1.0000   1.0000   1.0000   1.0000

          k = 0.1667 0.2887 0.0000 (  8338 PWs)   bands (ev):

   -11.0621 -11.0621 -10.8900 -10.8900 -10.8899 -10.8899 -10.7172 -10.7171
     0.5293   0.5293   0.5293   0.5293   0.5724   0.5724   0.7336   0.7336
     0.9105   0.9105   0.9105   0.9105   0.9130   0.9130   0.9378   0.9378
     1.0569   1.0569   1.0569   1.0569   1.1495   1.1495   1.3260   1.3260
     1.5886   1.5886   1.7076   1.7076   1.7757   1.7757   1.7757   1.7757
     1.7974   1.7974   1.7974   1.7974   1.8478   1.8478   2.0476   2.0476
     2.3500   2.3500   3.4522   3.4522   3.4522   3.4522   3.8048   3.8048
     3.9105   3.9105   4.6224   4.6224   4.7177   4.7177   4.7178   4.7178
     5.0334   5.0335   5.0335   5.0335   5.4698   5.4698   5.4903   5.4903

     occupation numbers 
     1.0000   1.0000   1.0000   1.0000   1.0000   1.0000   1.0000   1.0000
     1.0000   1.0000   1.0000   1.0000   1.0000   1.0000   1.0000   1.0000
     1.0000   1.0000   1.0000   1.0000   1.0000   1.0000   1.0000   1.0000
     1.0000   1.0000   1.0000   1.0000   1.0000   1.0000   1.0000   1.0000
     1.0000   1.0000   1.0000   1.0000   1.0000   1.0000   1.0000   1.0000
     1.0000   1.0000   1.0000   1.0000   1.0000   1.0000   1.0000   1.0000
     1.0000   1.0000   1.0000   1.0000   1.0000   1.0000   1.0000   1.0000
     1.0000   1.0000   1.0000   1.0000   1.0000   1.0000   1.0000   1.0000
     1.0000   1.0000   1.0000   1.0000   1.0000   1.0000   1.0000   1.0000

          k = 0.1667 0.2887 0.0487 (  8344 PWs)   bands (ev):

   -11.0562 -11.0562 -10.9346 -10.9346 -10.8453 -10.8452 -10.7230 -10.7230
     0.5159   0.5159   0.5631   0.5631   0.5672   0.5672   0.7280   0.7280
     0.9087   0.9087   0.9093   0.9093   0.9115   0.9116   0.9330   0.9330
     1.0607   1.0607   1.0688   1.0688   1.1448   1.1448   1.2879   1.2879
     1.5968   1.5968   1.7141   1.7141   1.7392   1.7392   1.7693   1.7693
     1.8035   1.8035   1.8329   1.8329   1.8454   1.8454   2.0121   2.0121
     2.4477   2.4478   3.2932   3.2932   3.5879   3.5879   3.8308   3.8308
     3.8988   3.8988   4.4809   4.4809   4.6269   4.6269   4.8219   4.8219
     5.0574   5.0574   5.1302   5.1303   5.4536   5.4536   5.4798   5.4798

     occupation numbers 
     1.0000   1.0000   1.0000   1.0000   1.0000   1.0000   1.0000   1.0000
     1.0000   1.0000   1.0000   1.0000   1.0000   1.0000   1.0000   1.0000
     1.0000   1.0000   1.0000   1.0000   1.0000   1.0000   1.0000   1.0000
     1.0000   1.0000   1.0000   1.0000   1.0000   1.0000   1.0000   1.0000
     1.0000   1.0000   1.0000   1.0000   1.0000   1.0000   1.0000   1.0000
     1.0000   1.0000   1.0000   1.0000   1.0000   1.0000   1.0000   1.0000
     1.0000   1.0000   1.0000   1.0000   1.0000   1.0000   1.0000   1.0000
     1.0000   1.0000   1.0000   1.0000   1.0000   1.0000   1.0000   1.0000
     1.0000   1.0000   1.0000   1.0000   1.0000   1.0000   1.0000   1.0000

          k = 0.1667 0.2887 0.0974 (  8348 PWs)   bands (ev):

   -11.0391 -11.0391 -10.9762 -10.9761 -10.8036 -10.8036 -10.7403 -10.7403
     0.5201   0.5201   0.5533   0.5533   0.6136   0.6136   0.7076   0.7076
     0.9064   0.9064   0.9074   0.9074   0.9083   0.9083   0.9210   0.9210
     1.0851   1.0851   1.0895   1.0895   1.1316   1.1316   1.2073   1.2073
[...]
     1.8903   1.8903   1.8948   1.8948   1.9684   1.9684   1.9978   1.9978
     2.3601   2.3601   2.3958   2.3958   2.6211   2.6211   2.7249   2.7249
     3.7261   3.7261   4.1605   4.1605   4.2233   4.2233   4.4669   4.4669
     4.8486   4.8486   4.9088   4.9088   5.0226   5.0226   5.1474   5.1474

     occupation numbers 
     1.0000   1.0000   1.0000   1.0000   1.0000   1.0000   1.0000   1.0000
     1.0000   1.0000   1.0000   1.0000   1.0000   1.0000   1.0000   1.0000
     1.0000   1.0000   1.0000   1.0000   1.0000   1.0000   1.0000   1.0000
     1.0000   1.0000   1.0000   1.0000   1.0000   1.0000   1.0000   1.0000
     1.0000   1.0000   1.0000   1.0000   1.0000   1.0000   1.0000   1.0000
     1.0000   1.0000   1.0000   1.0000   1.0000   1.0000   1.0000   1.0000
     1.0000   1.0000   1.0000   1.0000   1.0000   1.0000   1.0000   1.0000
     1.0000   1.0000   1.0000   1.0000   1.0000   1.0000   1.0000   1.0000
     1.0000   1.0000   1.0000   1.0000   1.0000   1.0000   1.0000   1.0000

          k = 0.5000-0.0962-0.0487 (  8380 PWs)   bands (ev):

   -10.8100 -10.8100 -10.7483 -10.7483 -10.7053 -10.7052 -10.6495 -10.6495
     0.6016   0.6016   0.6390   0.6391   0.6485   0.6485   0.8605   0.8605
     0.9655   0.9655   1.0134   1.0134   1.1049   1.1049   1.2191   1.2191
     1.2302   1.2302   1.2511   1.2511   1.3359   1.3359   1.3916   1.3916
     1.6490   1.6490   1.7532   1.7532   1.7657   1.7657   1.8011   1.8011
     1.8994   1.8994   1.9216   1.9216   1.9749   1.9749   2.0874   2.0874
     2.4050   2.4050   2.6044   2.6044   2.7563   2.7563   2.9403   2.9403
     3.5505   3.5505   3.8700   3.8700   4.0977   4.0977   4.3795   4.3795
     4.6592   4.6592   4.8495   4.8495   4.9398   4.9398   5.0263   5.0263

     occupation numbers 
     1.0000   1.0000   1.0000   1.0000   1.0000   1.0000   1.0000   1.0000
     1.0000   1.0000   1.0000   1.0000   1.0000   1.0000   1.0000   1.0000
     1.0000   1.0000   1.0000   1.0000   1.0000   1.0000   1.0000   1.0000
     1.0000   1.0000   1.0000   1.0000   1.0000   1.0000   1.0000   1.0000
     1.0000   1.0000   1.0000   1.0000   1.0000   1.0000   1.0000   1.0000
     1.0000   1.0000   1.0000   1.0000   1.0000   1.0000   1.0000   1.0000
     1.0000   1.0000   1.0000   1.0000   1.0000   1.0000   1.0000   1.0000
     1.0000   1.0000   1.0000   1.0000   1.0000   1.0000   1.0000   1.0000
     1.0000   1.0000   1.0000   1.0000   1.0000   1.0000   1.0000   1.0000

          k = 0.5000-0.0962-0.0974 (  8386 PWs)   bands (ev):

   -10.8011 -10.8011 -10.7690 -10.7690 -10.6858 -10.6858 -10.6572 -10.6571
     0.6055   0.6055   0.6310   0.6310   0.7009   0.7009   0.8203   0.8203
     0.9628   0.9628   0.9831   0.9831   1.1549   1.1549   1.2099   1.2099
     1.2364   1.2364   1.2738   1.2738   1.3076   1.3076   1.3445   1.3445
     1.6645   1.6645   1.7328   1.7328   1.7782   1.7782   1.8031   1.8031
     1.8993   1.8993   1.9079   1.9079   2.0094   2.0094   2.0707   2.0707
     2.4289   2.4289   2.5340   2.5340   2.8291   2.8291   2.9296   2.9296
     3.6413   3.6413   3.9340   3.9340   3.9711   3.9711   4.3173   4.3173
     4.6501   4.6501   4.8200   4.8200   5.0123   5.0123   5.0269   5.0269

     occupation numbers 
     1.0000   1.0000   1.0000   1.0000   1.0000   1.0000   1.0000   1.0000
     1.0000   1.0000   1.0000   1.0000   1.0000   1.0000   1.0000   1.0000
     1.0000   1.0000   1.0000   1.0000   1.0000   1.0000   1.0000   1.0000
     1.0000   1.0000   1.0000   1.0000   1.0000   1.0000   1.0000   1.0000
     1.0000   1.0000   1.0000   1.0000   1.0000   1.0000   1.0000   1.0000
     1.0000   1.0000   1.0000   1.0000   1.0000   1.0000   1.0000   1.0000
     1.0000   1.0000   1.0000   1.0000   1.0000   1.0000   1.0000   1.0000
     1.0000   1.0000   1.0000   1.0000   1.0000   1.0000   1.0000   1.0000
     1.0000   1.0000   1.0000   1.0000   1.0000   1.0000   1.0000   1.0000

     highest occupied level (ev):     6.1180

!    total energy              =   -1446.51811531 Ry
     estimated scf accuracy    <          9.5E-09 Ry

     The total energy is the sum of the following terms:
     one-electron contribution =    -645.34152872 Ry
     hartree contribution      =     482.94175527 Ry
     xc contribution           =    -437.73082281 Ry
     ewald contribution        =    -846.38751905 Ry

     convergence has been achieved in  32 iterations

     Forces acting on atoms (cartesian axes, Ry/au):

     atom    1 type  1   force =     0.00000000   -0.00000749    0.00825206
     atom    2 type  1   force =     0.00000000    0.00000883    0.00823368
     atom    3 type  2   force =     0.00000000    0.00000443   -0.00821239
     atom    4 type  2   force =     0.00000000   -0.00000416   -0.00821497
     atom    5 type  1   force =     0.00000000   -0.00000332    0.00816015
     atom    6 type  1   force =     0.00000000    0.00000299    0.00820906
     atom    7 type  2   force =     0.00000000    0.00000454   -0.00821470
     atom    8 type  2   force =     0.00000000   -0.00000427   -0.00821322
     atom    9 type  1   force =     0.00000000    0.00000178    0.00825112
     atom   10 type  1   force =     0.00000000   -0.00000391    0.00823472
     atom   11 type  2   force =     0.00000000    0.00000450   -0.00821238
     atom   12 type  2   force =     0.00000000   -0.00000392   -0.00821453
     atom   13 type  1   force =     0.00000000   -0.00000178    0.00816242
     atom   14 type  1   force =     0.00000000    0.00000133    0.00820629
     atom   15 type  2   force =     0.00000000    0.00000449   -0.00821436
     atom   16 type  2   force =     0.00000000   -0.00000403   -0.00821295
     The non-local contrib.  to forces
     atom    1 type  1   force =     0.00000000    0.00001678    0.15278222
     atom    2 type  1   force =     0.00000000   -0.00001604    0.15276675
     atom    3 type  2   force =     0.00000000    0.00021795    0.15224642
     atom    4 type  2   force =     0.00000000   -0.00021859    0.15223337
     atom    5 type  1   force =     0.00000000    0.00001859    0.15272485
     atom    6 type  1   force =     0.00000000   -0.00001882    0.15275812
     atom    7 type  2   force =     0.00000000    0.00021849    0.15225351
     atom    8 type  2   force =     0.00000000   -0.00021835    0.15227331
     atom    9 type  1   force =     0.00000000    0.00002045    0.15278072
     atom   10 type  1   force =     0.00000000   -0.00002130    0.15276720
     atom   11 type  2   force =     0.00000000    0.00021678    0.15224728
     atom   12 type  2   force =     0.00000000   -0.00021699    0.15223479
     atom   13 type  1   force =     0.00000000    0.00001863    0.15272615
     atom   14 type  1   force =     0.00000000   -0.00001836    0.15275674
     atom   15 type  2   force =     0.00000000    0.00021650    0.15225305
     atom   16 type  2   force =     0.00000000   -0.00021730    0.15227333
     The ionic contribution  to forces
     atom    1 type  1   force =    -0.00000000    0.00000000    1.21906034
     atom    2 type  1   force =     0.00000000   -0.00000000    1.21906034
     atom    3 type  2   force =    -0.00000000    0.00000000   -1.21906034
     atom    4 type  2   force =     0.00000000   -0.00000000   -1.21906034
     atom    5 type  1   force =    -0.00000000    0.00000000    1.21906034
     atom    6 type  1   force =     0.00000000   -0.00000000    1.21906034
     atom    7 type  2   force =    -0.00000000    0.00000000   -1.21906034
     atom    8 type  2   force =     0.00000000   -0.00000000   -1.21906034
     atom    9 type  1   force =    -0.00000000    0.00000000    1.21906034
     atom   10 type  1   force =     0.00000000   -0.00000000    1.21906034
     atom   11 type  2   force =    -0.00000000    0.00000000   -1.21906034
     atom   12 type  2   force =     0.00000000   -0.00000000   -1.21906034
     atom   13 type  1   force =    -0.00000000    0.00000000    1.21906034
     atom   14 type  1   force =     0.00000000   -0.00000000    1.21906034
     atom   15 type  2   force =    -0.00000000    0.00000000   -1.21906034
     atom   16 type  2   force =     0.00000000   -0.00000000   -1.21906034
     The local contribution  to forces
     atom    1 type  1   force =    -0.00000009   -0.00002147   -1.35325785
     atom    2 type  1   force =     0.00000000    0.00001830   -1.35322306
     atom    3 type  2   force =    -0.00000002   -0.00020805    1.05986810
     atom    4 type  2   force =     0.00000000    0.00021097    1.05984900
     atom    5 type  1   force =    -0.00000009   -0.00002914   -1.35310875
     atom    6 type  1   force =    -0.00000000    0.00002948   -1.35318769
     atom    7 type  2   force =    -0.00000002   -0.00021046    1.05986674
     atom    8 type  2   force =     0.00000000    0.00021082    1.05991522
     atom    9 type  1   force =    -0.00000009   -0.00003674   -1.35325430
     atom   10 type  1   force =     0.00000000    0.00004081   -1.35322486
     atom   11 type  2   force =    -0.00000002   -0.00021104    1.05986737
     atom   12 type  2   force =     0.00000000    0.00020949    1.05984984
     atom   13 type  1   force =    -0.00000009   -0.00002933   -1.35311640
     atom   14 type  1   force =    -0.00000000    0.00002940   -1.35318434
     atom   15 type  2   force =    -0.00000002   -0.00021067    1.05986721
     atom   16 type  2   force =     0.00000000    0.00021020    1.05991317
     The core correction contribution to forces
     atom    1 type  1   force =    -0.00000001    0.00000766   -0.01040027
     atom    2 type  1   force =    -0.00000000   -0.00000753   -0.01040147
     atom    3 type  2   force =     0.00000000   -0.00000247   -0.00127831
     atom    4 type  2   force =     0.00000000    0.00000249   -0.00127977
     atom    5 type  1   force =    -0.00000001    0.00000786   -0.01040627
     atom    6 type  1   force =    -0.00000000   -0.00000783   -0.01040496
     atom    7 type  2   force =     0.00000000   -0.00000248   -0.00128119
     atom    8 type  2   force =     0.00000000    0.00000248   -0.00127975
     atom    9 type  1   force =    -0.00000001    0.00000803   -0.01040034
     atom   10 type  1   force =    -0.00000000   -0.00000814   -0.01040140
     atom   11 type  2   force =     0.00000000   -0.00000246   -0.00127832
     atom   12 type  2   force =     0.00000000    0.00000246   -0.00127978
     atom   13 type  1   force =    -0.00000001    0.00000782   -0.01040592
     atom   14 type  1   force =     0.00000000   -0.00000783   -0.01040496
     atom   15 type  2   force =     0.00000000   -0.00000246   -0.00128117
     atom   16 type  2   force =     0.00000000    0.00000247   -0.00127976
     The Hubbard contrib.    to forces
     atom    1 type  1   force =     0.00000000    0.00000000    0.00000000
     atom    2 type  1   force =     0.00000000    0.00000000    0.00000000
     atom    3 type  2   force =     0.00000000    0.00000000    0.00000000
     atom    4 type  2   force =     0.00000000    0.00000000    0.00000000
     atom    5 type  1   force =     0.00000000    0.00000000    0.00000000
     atom    6 type  1   force =     0.00000000    0.00000000    0.00000000
     atom    7 type  2   force =     0.00000000    0.00000000    0.00000000
     atom    8 type  2   force =     0.00000000    0.00000000    0.00000000
     atom    9 type  1   force =     0.00000000    0.00000000    0.00000000
     atom   10 type  1   force =     0.00000000    0.00000000    0.00000000
     atom   11 type  2   force =     0.00000000    0.00000000    0.00000000
     atom   12 type  2   force =     0.00000000    0.00000000    0.00000000
     atom   13 type  1   force =     0.00000000    0.00000000    0.00000000
     atom   14 type  1   force =     0.00000000    0.00000000    0.00000000
     atom   15 type  2   force =     0.00000000    0.00000000    0.00000000
     atom   16 type  2   force =     0.00000000    0.00000000    0.00000000
     The SCF correction term to forces
     atom    1 type  1   force =    -0.00000000   -0.00001068    0.00006422
     atom    2 type  1   force =     0.00000000    0.00001387    0.00002772
     atom    3 type  2   force =    -0.00000000   -0.00000322    0.00000833
     atom    4 type  2   force =     0.00000000    0.00000074    0.00003936
     atom    5 type  1   force =    -0.00000000   -0.00000086   -0.00011342
     atom    6 type  1   force =     0.00000000   -0.00000007   -0.00002015
     atom    7 type  2   force =    -0.00000000   -0.00000124    0.00000316
     atom    8 type  2   force =     0.00000000    0.00000055   -0.00006507
     atom    9 type  1   force =    -0.00000000    0.00000981    0.00006129
     atom   10 type  1   force =     0.00000000   -0.00001550    0.00003003
     atom   11 type  2   force =    -0.00000000    0.00000101    0.00000823
     atom   12 type  2   force =     0.00000000    0.00000089    0.00003754
     atom   13 type  1   force =    -0.00000000    0.00000088   -0.00010515
     atom   14 type  1   force =     0.00000000   -0.00000210   -0.00002489
     atom   15 type  2   force =    -0.00000000    0.00000089    0.00000349
     atom   16 type  2   force =     0.00000000    0.00000037   -0.00006276

     Total force =     0.032855     Total SCF correction =     0.000216

     init_run     :     11.92s CPU     12.28s WALL (       1 calls)
     electrons    :    871.19s CPU    894.31s WALL (       1 calls)
     forces       :      5.04s CPU      5.07s WALL (       1 calls)

     Called by init_run:
     wfcinit      :      6.44s CPU      6.69s WALL (       1 calls)
     wfcinit:atom :      0.04s CPU      0.04s WALL (      10 calls)
     wfcinit:wfcr :      6.07s CPU      6.31s WALL (      10 calls)
     potinit      :      1.94s CPU      1.99s WALL (       1 calls)
     hinit0       :      2.71s CPU      2.73s WALL (       1 calls)

     Called by electrons:
     c_bands      :    782.14s CPU    802.09s WALL (      32 calls)
     sum_band     :     75.10s CPU     77.88s WALL (      32 calls)
     v_of_rho     :      6.83s CPU      7.07s WALL (      33 calls)
     v_h          :      0.36s CPU      0.38s WALL (      33 calls)
     v_xc         :      6.66s CPU      6.88s WALL (      34 calls)
     newd         :      6.17s CPU      6.24s WALL (      33 calls)
     mix_rho      :      0.88s CPU      0.92s WALL (      32 calls)

     Called by c_bands:
     init_us_2    :      5.43s CPU      5.46s WALL (     660 calls)
     init_us_2:cp :      5.43s CPU      5.46s WALL (     660 calls)
     cegterg      :    696.57s CPU    716.29s WALL (     320 calls)

     Called by sum_band:
     sum_band:wei :      0.02s CPU      0.03s WALL (      32 calls)
     sum_band:loo :     67.54s CPU     70.02s WALL (      32 calls)
     sum_band:buf :      0.43s CPU      0.45s WALL (     320 calls)
     sum_band:ini :      1.91s CPU      1.91s WALL (     320 calls)
     sum_band:cal :     13.11s CPU     13.23s WALL (     320 calls)
     sum_band:bec :      0.13s CPU      0.13s WALL (     320 calls)
     addusdens    :      5.66s CPU      5.75s WALL (      32 calls)
     addusd:skk   :      0.07s CPU      0.07s WALL (      64 calls)
     addusd:dgemm :      0.78s CPU      0.79s WALL (      64 calls)
     addusd:qvan2 :      4.15s CPU      4.17s WALL (      64 calls)

     Called by *egterg:
     cdiaghg      :     52.63s CPU     53.93s WALL (    2609 calls)
     cegterg:over :     62.26s CPU     62.56s WALL (    2289 calls)
     cegterg:upda :     34.46s CPU     34.70s WALL (    2289 calls)
     cegterg:last :     71.17s CPU     71.55s WALL (    1118 calls)
     cdiaghg:chol :      2.92s CPU      2.95s WALL (    2609 calls)
     cdiaghg:inve :      0.80s CPU      0.81s WALL (    2609 calls)
     cdiaghg:para :      8.19s CPU      9.19s WALL (    5218 calls)
     h_psi        :    420.75s CPU    438.26s WALL (    2619 calls)
     s_psi        :     44.26s CPU     44.33s WALL (    2619 calls)
     g_psi        :      1.69s CPU      1.70s WALL (    2289 calls)

     Called by h_psi:
     h_psi:calbec :     54.73s CPU     55.32s WALL (    2619 calls)
     vloc_psi     :    318.73s CPU    335.56s WALL (    2619 calls)
     add_vuspsi   :     45.92s CPU     46.00s WALL (    2619 calls)

     General routines
     calbec       :     69.40s CPU     70.14s WALL (    2979 calls)
     fft          :      3.78s CPU      4.07s WALL (     438 calls)
     ffts         :      0.48s CPU      0.50s WALL (      65 calls)
     fftw         :    315.40s CPU    332.45s WALL (  190474 calls)
     interpolate  :      0.64s CPU      0.68s WALL (      33 calls)

     Parallel routines

     PWSCF        :  14m48.96s CPU  15m12.51s WALL


   This run was terminated on:   5:26:34  29Aug2025            

=------------------------------------------------------------------------------=
   JOB DONE.
=------------------------------------------------------------------------------=
Note: The following floating-point exceptions are signalling: IEEE_UNDERFLOW_FLAG IEEE_DENORMAL
Note: The following floating-point exceptions are signalling: IEEE_UNDERFLOW_FLAG IEEE_DENORMAL
Note: The following floating-point exceptions are signalling: IEEE_UNDERFLOW_FLAG IEEE_DENORMAL
Note: The following floating-point exceptions are signalling: IEEE_UNDERFLOW_FLAG IEEE_DENORMAL
Note: The following floating-point exceptions are signalling: IEEE_UNDERFLOW_FLAG IEEE_DENORMAL
Note: The following floating-point exceptions are signalling: IEEE_UNDERFLOW_FLAG IEEE_DENORMAL
Note: The following floating-point exceptions are signalling: IEEE_UNDERFLOW_FLAG IEEE_DENORMAL
Note: The following floating-point exceptions are signalling: IEEE_UNDERFLOW_FLAG IEEE_DENORMAL
Note: The following floating-point exceptions are signalling: IEEE_UNDERFLOW_FLAG IEEE_DENORMAL
Note: The following floating-point exceptions are signalling: IEEE_UNDERFLOW_FLAG IEEE_DENORMAL
Note: The following floating-point exceptions are signalling: IEEE_UNDERFLOW_FLAG IEEE_DENORMAL
Note: The following floating-point exceptions are signalling: IEEE_UNDERFLOW_FLAG IEEE_DENORMAL
Note: The following floating-point exceptions are signalling: IEEE_UNDERFLOW_FLAG IEEE_DENORMAL
Note: The following floating-point exceptions are signalling: IEEE_UNDERFLOW_FLAG IEEE_DENORMAL
Note: The following floating-point exceptions are signalling: IEEE_UNDERFLOW_FLAG IEEE_DENORMAL
Note: The following floating-point exceptions are signalling: IEEE_UNDERFLOW_FLAG IEEE_DENORMAL
Note: The following floating-point exceptions are signalling: IEEE_UNDERFLOW_FLAG IEEE_DENORMAL
Note: The following floating-point exceptions are signalling: IEEE_UNDERFLOW_FLAG IEEE_DENORMAL
Note: The following floating-point exceptions are signalling: IEEE_UNDERFLOW_FLAG IEEE_DENORMAL
Note: The following floating-point exceptions are signalling: IEEE_UNDERFLOW_FLAG IEEE_DENORMAL
Note: The following floating-point exceptions are signalling: IEEE_UNDERFLOW_FLAG IEEE_DENORMAL
Note: The following floating-point exceptions are signalling: IEEE_UNDERFLOW_FLAG IEEE_DENORMAL
Note: The following floating-point exceptions are signalling: IEEE_UNDERFLOW_FLAG IEEE_DENORMAL
Note: The following floating-point exceptions are signalling: IEEE_UNDERFLOW_FLAG IEEE_DENORMAL
Note: The following floating-point exceptions are signalling: IEEE_UNDERFLOW_FLAG IEEE_DENORMAL
Note: The following floating-point exceptions are signalling: IEEE_UNDERFLOW_FLAG IEEE_DENORMAL
Note: The following floating-point exceptions are signalling: IEEE_UNDERFLOW_FLAG IEEE_DENORMAL
Note: The following floating-point exceptions are signalling: IEEE_UNDERFLOW_FLAG IEEE_DENORMAL
Note: The following floating-point exceptions are signalling: IEEE_UNDERFLOW_FLAG IEEE_DENORMAL
Note: The following floating-point exceptions are signalling: IEEE_UNDERFLOW_FLAG IEEE_DENORMAL
Note: The following floating-point exceptions are signalling: IEEE_UNDERFLOW_FLAG IEEE_DENORMAL
Note: The following floating-point exceptions are signalling: IEEE_UNDERFLOW_FLAG IEEE_DENORMAL
