Authorization required, but no authorization protocol specified

Authorization required, but no authorization protocol specified

Authorization required, but no authorization protocol specified

Authorization required, but no authorization protocol specified

Authorization required, but no authorization protocol specified

Authorization required, but no authorization protocol specified

Authorization required, but no authorization protocol specified

Authorization required, but no authorization protocol specified

Authorization required, but no authorization protocol specified

Authorization required, but no authorization protocol specified

Authorization required, but no authorization protocol specified

Authorization required, but no authorization protocol specified

Authorization required, but no authorization protocol specified

Authorization required, but no authorization protocol specified

Authorization required, but no authorization protocol specified

Authorization required, but no authorization protocol specified

Authorization required, but no authorization protocol specified

Authorization required, but no authorization protocol specified


     Program PWSCF v.7.2 starts on 12Jul2025 at 13:18:49 

     This program is part of the open-source Quantum ESPRESSO suite
     for quantum simulation of materials; please cite
         "P. Giannozzi et al., J. Phys.:Condens. Matter 21 395502 (2009);
         "P. Giannozzi et al., J. Phys.:Condens. Matter 29 465901 (2017);
         "P. Giannozzi et al., J. Chem. Phys. 152 154105 (2020);
          URL http://www.quantum-espresso.org", 
     in publications or presentations arising from this work. More details at
     http://www.quantum-espresso.org/quote

     Parallel version (MPI), running on    16 processors

     MPI processes distributed on     1 nodes
     48190 MiB available memory on the printing compute node when the environment starts

     Reading input from /home/jvc/QEspresso7.2/ZnO_database/scripts/cell211_strain10%.in/ZnO-3.14-1.49-211.in
Warning: card &CELL ignored
Warning: card / ignored
Warning: card &FCP ignored
Warning: card / ignored
Warning: card &RISM ignored
Warning: card / ignored

     Current dimensions of program PWSCF are:
     Max number of different atomic species (ntypx) = 10
     Max number of k-points (npk) =  40000
     Max angular momentum in pseudopotentials (lmaxx) =  4
     file Zn.upf: wavefunction(s)  3D renormalized
     Found identity + ( -0.5000  0.0000  0.0000) symmetry
     This is a supercell, fractional translations are disabled
     Message from routine setup:
     using ibrav=0 with symmetry is DISCOURAGED, use correct ibrav instead

     K-points division:     npool     =       2
     R & G space division:  proc/nbgrp/npool/nimage =       8
     Subspace diagonalization in iterative solution of the eigenvalue problem:
     a serial algorithm will be used


     Parallelization info
     --------------------
     sticks:   dense  smooth     PW     G-vecs:    dense   smooth      PW
     Min         241     122     37                 9055     3208     568
     Max         242     123     39                 9059     3211     572
     Sum        1929     981    305                72457    25675    4559

     Using Slab Decomposition



     bravais-lattice index     =            0
     lattice parameter (alat)  =      11.8634  a.u.
     unit-cell volume          =     536.8907 (a.u.)^3
     number of atoms/cell      =            8
     number of atomic types    =            2
     number of electrons       =        72.00
     number of Kohn-Sham states=           36
     kinetic-energy cutoff     =      50.0000  Ry
     charge density cutoff     =     400.0000  Ry
     scf convergence threshold =      1.0E-08
     mixing beta               =       0.3000
     number of iterations used =            8  plain     mixing
     Exchange-correlation= PBE
                           (   1   4   3   4   0   0   0)

     celldm(1)=  11.863400  celldm(2)=   0.000000  celldm(3)=   0.000000
     celldm(4)=   0.000000  celldm(5)=   0.000000  celldm(6)=   0.000000

     crystal axes: (cart. coord. in units of alat)
               a(1) = (   1.000000   0.000000   0.000000 )  
               a(2) = (  -0.250000   0.433013   0.000000 )  
               a(3) = (   0.000000   0.000000   0.742605 )  

     reciprocal axes: (cart. coord. in units 2 pi/alat)
               b(1) = (  1.000000  0.577350 -0.000000 )  
               b(2) = (  0.000000  2.309401  0.000000 )  
               b(3) = (  0.000000 -0.000000  1.346611 )  


     PseudoPot. # 1 for Zn read from file:
     /home/jvc/QEspresso7.2/ZnO_database/pseudos/Zn.upf
     MD5 check sum: 7f56cabf9682ed8c977c2f7d0c5985c5
     Pseudo is Ultrasoft + core correction, Zval = 12.0
     Generated using &quot;atomic&quot; code by A. Dal Corso  v.6.2.2
     Using radial grid of 1201 points,  6 beta functions with: 
                l(1) =   0
                l(2) =   0
                l(3) =   1
                l(4) =   1
                l(5) =   2
                l(6) =   2
     Q(r) pseudized with 0 coefficients 


     PseudoPot. # 2 for O  read from file:
     /home/jvc/QEspresso7.2/ZnO_database/pseudos/O.upf
     MD5 check sum: 91400c9766925bcf19f520983a725ff0
     Pseudo is Ultrasoft + core correction, Zval =  6.0
     Generated using &quot;atomic&quot; code by A. Dal Corso  v.6.3MaX
     Using radial grid of 1095 points,  4 beta functions with: 
                l(1) =   0
                l(2) =   0
                l(3) =   1
                l(4) =   1
     Q(r) pseudized with 0 coefficients 


     atomic species   valence    mass     pseudopotential
        Zn            12.00    65.38000     Zn( 1.00)
        O              6.00    15.99900     O ( 1.00)

      2 Sym. Ops. (no inversion) found



   Cartesian axes

     site n.     atom                  positions (alat units)
         1           Zn  tau(   1) = (   0.0000000   0.0000000   0.0000000  )
         2           O   tau(   2) = (   0.0000000   0.2886751   0.0734336  )
         3           Zn  tau(   3) = (   0.0000000   0.2886751   0.3713024  )
         4           O   tau(   4) = (   0.0000000   0.0000000   0.4447360  )
         5           Zn  tau(   5) = (   0.5000000   0.0000000   0.0000000  )
         6           O   tau(   6) = (   0.5000000   0.2886751   0.0734336  )
         7           Zn  tau(   7) = (   0.5000000   0.2886751   0.3713024  )
         8           O   tau(   8) = (   0.5000000   0.0000000   0.4447360  )

     number of k points=    80
                       cart. coord. in units 2pi/alat
        k(    1) = (   0.0000000   0.0000000   0.0000000), wk =   0.0092593
        k(    2) = (   0.0000000   0.0000000   0.2244352), wk =   0.0185185
        k(    3) = (   0.0000000   0.0000000   0.4488704), wk =   0.0185185
        k(    4) = (   0.0000000   0.0000000  -0.6733056), wk =   0.0092593
        k(    5) = (   0.0000000   0.3849002   0.0000000), wk =   0.0370370
        k(    6) = (   0.0000000   0.3849002   0.2244352), wk =   0.0370370
        k(    7) = (   0.0000000   0.3849002   0.4488704), wk =   0.0370370
        k(    8) = (   0.0000000   0.3849002  -0.6733056), wk =   0.0370370
        k(    9) = (   0.0000000   0.7698004   0.0000000), wk =   0.0370370
        k(   10) = (   0.0000000   0.7698004   0.2244352), wk =   0.0370370
        k(   11) = (   0.0000000   0.7698004   0.4488704), wk =   0.0370370
        k(   12) = (   0.0000000   0.7698004  -0.6733056), wk =   0.0370370
        k(   13) = (   0.0000000  -1.1547005   0.0000000), wk =   0.0092593
        k(   14) = (   0.0000000  -1.1547005   0.2244352), wk =   0.0185185
        k(   15) = (   0.0000000  -1.1547005   0.4488704), wk =   0.0185185
        k(   16) = (   0.0000000  -1.1547005  -0.6733056), wk =   0.0092593
        k(   17) = (   0.1666667   0.0962250   0.0000000), wk =   0.0185185
        k(   18) = (   0.1666667   0.0962250   0.2244352), wk =   0.0185185
        k(   19) = (   0.1666667   0.0962250   0.4488704), wk =   0.0185185
        k(   20) = (   0.1666667   0.0962250  -0.6733056), wk =   0.0185185
        k(   21) = (   0.1666667   0.4811252   0.0000000), wk =   0.0370370
        k(   22) = (   0.1666667   0.4811252   0.2244352), wk =   0.0370370
        k(   23) = (   0.1666667   0.4811252   0.4488704), wk =   0.0370370
        k(   24) = (   0.1666667   0.4811252  -0.6733056), wk =   0.0370370
        k(   25) = (   0.1666667   0.8660254   0.0000000), wk =   0.0185185
        k(   26) = (   0.1666667   0.8660254   0.2244352), wk =   0.0370370
        k(   27) = (   0.1666667   0.8660254   0.4488704), wk =   0.0370370
        k(   28) = (   0.1666667   0.8660254  -0.6733056), wk =   0.0185185
        k(   29) = (   0.1666667  -1.0584755   0.0000000), wk =   0.0185185
        k(   30) = (   0.1666667  -1.0584755   0.2244352), wk =   0.0185185
        k(   31) = (   0.1666667  -1.0584755   0.4488704), wk =   0.0185185
        k(   32) = (   0.1666667  -1.0584755  -0.6733056), wk =   0.0185185
        k(   33) = (   0.1666667  -0.6735753   0.0000000), wk =   0.0370370
        k(   34) = (   0.1666667  -0.6735753   0.2244352), wk =   0.0370370
        k(   35) = (   0.1666667  -0.6735753   0.4488704), wk =   0.0370370
        k(   36) = (   0.1666667  -0.6735753  -0.6733056), wk =   0.0370370
        k(   37) = (   0.1666667  -0.2886751   0.0000000), wk =   0.0185185
        k(   38) = (   0.1666667  -0.2886751   0.2244352), wk =   0.0370370
        k(   39) = (   0.1666667  -0.2886751   0.4488704), wk =   0.0370370
        k(   40) = (   0.1666667  -0.2886751  -0.6733056), wk =   0.0185185
        k(   41) = (   0.3333333   0.1924501   0.0000000), wk =   0.0185185
        k(   42) = (   0.3333333   0.1924501   0.2244352), wk =   0.0185185
        k(   43) = (   0.3333333   0.1924501   0.4488704), wk =   0.0185185
        k(   44) = (   0.3333333   0.1924501  -0.6733056), wk =   0.0185185
        k(   45) = (   0.3333333   0.5773503   0.0000000), wk =   0.0185185
        k(   46) = (   0.3333333   0.5773503   0.2244352), wk =   0.0370370
        k(   47) = (   0.3333333   0.5773503   0.4488704), wk =   0.0370370
        k(   48) = (   0.3333333   0.5773503  -0.6733056), wk =   0.0185185
        k(   49) = (   0.3333333  -0.9622504   0.0000000), wk =   0.0185185
        k(   50) = (   0.3333333  -0.9622504   0.2244352), wk =   0.0185185
        k(   51) = (   0.3333333  -0.9622504   0.4488704), wk =   0.0185185
        k(   52) = (   0.3333333  -0.9622504  -0.6733056), wk =   0.0185185
        k(   53) = (   0.3333333  -0.5773503   0.0000000), wk =   0.0185185
        k(   54) = (   0.3333333  -0.5773503   0.2244352), wk =   0.0370370
        k(   55) = (   0.3333333  -0.5773503   0.4488704), wk =   0.0370370
        k(   56) = (   0.3333333  -0.5773503  -0.6733056), wk =   0.0185185
        k(   57) = (  -0.5000000  -0.2886751   0.0000000), wk =   0.0092593
        k(   58) = (  -0.5000000  -0.2886751   0.2244352), wk =   0.0185185
        k(   59) = (  -0.5000000  -0.2886751   0.4488704), wk =   0.0185185
        k(   60) = (  -0.5000000  -0.2886751  -0.6733056), wk =   0.0092593
        k(   61) = (  -0.5000000  -1.4433757   0.0000000), wk =   0.0092593
        k(   62) = (  -0.5000000  -1.4433757   0.2244352), wk =   0.0185185
        k(   63) = (  -0.5000000  -1.4433757   0.4488704), wk =   0.0185185
        k(   64) = (  -0.5000000  -1.4433757  -0.6733056), wk =   0.0092593
        k(   65) = (   0.3333333  -0.1924501  -0.2244352), wk =   0.0370370
        k(   66) = (   0.3333333  -0.1924501  -0.4488704), wk =   0.0370370
        k(   67) = (   0.6666667  -0.3849002  -0.2244352), wk =   0.0370370
        k(   68) = (   0.6666667  -0.3849002  -0.4488704), wk =   0.0370370
        k(   69) = (   0.1666667   0.0962250  -0.2244352), wk =   0.0185185
        k(   70) = (   0.1666667   0.0962250  -0.4488704), wk =   0.0185185
        k(   71) = (   0.5000000  -0.0962250  -0.2244352), wk =   0.0370370
        k(   72) = (   0.5000000  -0.0962250  -0.4488704), wk =   0.0370370
        k(   73) = (  -0.8333333   0.6735753  -0.2244352), wk =   0.0185185
        k(   74) = (  -0.8333333   0.6735753  -0.4488704), wk =   0.0185185
        k(   75) = (  -0.5000000   0.4811252  -0.2244352), wk =   0.0370370
        k(   76) = (  -0.5000000   0.4811252  -0.4488704), wk =   0.0370370
        k(   77) = (   0.3333333   0.1924501  -0.2244352), wk =   0.0185185
        k(   78) = (   0.3333333   0.1924501  -0.4488704), wk =   0.0185185
        k(   79) = (  -0.6666667   0.7698004  -0.2244352), wk =   0.0185185
        k(   80) = (  -0.6666667   0.7698004  -0.4488704), wk =   0.0185185

     Dense  grid:    72457 G-vectors     FFT dimensions: (  75,  40,  60)

     Smooth grid:    25675 G-vectors     FFT dimensions: (  54,  27,  40)

     Estimated max dynamical RAM per process >      32.13 MB

     Estimated total dynamical RAM >     496.40 MB

     Check: negative core charge=   -0.000002

     Initial potential from superposition of free atoms

     starting charge      71.9851, renormalised to      72.0000
     Starting wfcs are   52 randomized atomic wfcs

     total cpu time spent up to now is        3.4 secs

     Self-consistent Calculation

     iteration #  1     ecut=    50.00 Ry     beta= 0.30
     Davidson diagonalization with overlap
     ethr =  1.00E-02,  avg # of iterations =  2.0

     total cpu time spent up to now is        6.9 secs

     total energy              =    -722.83073920 Ry
     estimated scf accuracy    <       1.34987147 Ry

     iteration #  2     ecut=    50.00 Ry     beta= 0.30
     Davidson diagonalization with overlap
     ethr =  1.87E-03,  avg # of iterations =  2.0

     total cpu time spent up to now is       11.2 secs

     total energy              =    -722.94470767 Ry
     estimated scf accuracy    <       0.24431792 Ry

     iteration #  3     ecut=    50.00 Ry     beta= 0.30
     Davidson diagonalization with overlap
     ethr =  3.39E-04,  avg # of iterations =  6.2

     total cpu time spent up to now is       18.8 secs

     total energy              =    -723.07071600 Ry
     estimated scf accuracy    <       0.15319707 Ry

     iteration #  4     ecut=    50.00 Ry     beta= 0.30
     Davidson diagonalization with overlap
     ethr =  2.13E-04,  avg # of iterations =  2.1

     total cpu time spent up to now is       22.8 secs

     total energy              =    -723.12364367 Ry
     estimated scf accuracy    <       0.01917463 Ry

     iteration #  5     ecut=    50.00 Ry     beta= 0.30
     Davidson diagonalization with overlap
     ethr =  2.66E-05,  avg # of iterations = 11.1

     total cpu time spent up to now is       35.3 secs

     total energy              =    -723.29648513 Ry
     estimated scf accuracy    <       1.05238673 Ry

     iteration #  6     ecut=    50.00 Ry     beta= 0.30
     Davidson diagonalization with overlap
     ethr =  2.66E-05,  avg # of iterations =  5.0

     total cpu time spent up to now is       41.2 secs

     total energy              =    -723.24324697 Ry
     estimated scf accuracy    <       0.72805014 Ry

     iteration #  7     ecut=    50.00 Ry     beta= 0.30
     Davidson diagonalization with overlap
     ethr =  2.66E-05,  avg # of iterations =  3.3

     total cpu time spent up to now is       46.0 secs

     total energy              =    -722.95241127 Ry
     estimated scf accuracy    <       0.54960648 Ry

     iteration #  8     ecut=    50.00 Ry     beta= 0.30
     Davidson diagonalization with overlap
     ethr =  2.66E-05,  avg # of iterations = 10.9

     total cpu time spent up to now is       58.0 secs

     total energy              =    -723.12269565 Ry
     estimated scf accuracy    <       0.03254045 Ry

     iteration #  9     ecut=    50.00 Ry     beta= 0.30
     Davidson diagonalization with overlap
     ethr =  2.66E-05,  avg # of iterations =  1.2

     total cpu time spent up to now is       61.3 secs

     total energy              =    -723.11671473 Ry
     estimated scf accuracy    <       0.04232065 Ry

     iteration # 10     ecut=    50.00 Ry     beta= 0.30
     Davidson diagonalization with overlap
     ethr =  2.66E-05,  avg # of iterations =  1.0

     total cpu time spent up to now is       64.6 secs

     total energy              =    -723.10189305 Ry
     estimated scf accuracy    <       0.03135052 Ry

     iteration # 11     ecut=    50.00 Ry     beta= 0.30
     Davidson diagonalization with overlap
     ethr =  2.66E-05,  avg # of iterations =  5.2

     total cpu time spent up to now is       70.0 secs

     total energy              =    -723.10754197 Ry
     estimated scf accuracy    <       0.00047295 Ry

     iteration # 12     ecut=    50.00 Ry     beta= 0.30
     Davidson diagonalization with overlap
     ethr =  6.57E-07,  avg # of iterations =  8.3

     total cpu time spent up to now is       78.9 secs

     total energy              =    -723.10924431 Ry
     estimated scf accuracy    <       0.00067878 Ry

     iteration # 13     ecut=    50.00 Ry     beta= 0.30
     Davidson diagonalization with overlap
     ethr =  6.57E-07,  avg # of iterations =  1.7

     total cpu time spent up to now is       82.4 secs

     total energy              =    -723.10920682 Ry
     estimated scf accuracy    <       0.00030632 Ry

     iteration # 14     ecut=    50.00 Ry     beta= 0.30
     Davidson diagonalization with overlap
     ethr =  4.25E-07,  avg # of iterations =  2.0

     total cpu time spent up to now is       86.4 secs

     total energy              =    -723.10925127 Ry
     estimated scf accuracy    <       0.00010325 Ry

     iteration # 15     ecut=    50.00 Ry     beta= 0.30
     Davidson diagonalization with overlap
     ethr =  1.43E-07,  avg # of iterations =  1.7

     total cpu time spent up to now is       89.9 secs

     total energy              =    -723.10923108 Ry
     estimated scf accuracy    <       0.00010744 Ry

     iteration # 16     ecut=    50.00 Ry     beta= 0.30
     Davidson diagonalization with overlap
     ethr =  1.43E-07,  avg # of iterations =  1.9

     total cpu time spent up to now is       93.5 secs

     total energy              =    -723.10923537 Ry
     estimated scf accuracy    <       0.00005212 Ry

     iteration # 17     ecut=    50.00 Ry     beta= 0.30
     Davidson diagonalization with overlap
     ethr =  7.24E-08,  avg # of iterations =  2.2

     total cpu time spent up to now is       97.3 secs

     total energy              =    -723.10924080 Ry
     estimated scf accuracy    <       0.00003628 Ry

     iteration # 18     ecut=    50.00 Ry     beta= 0.30
     Davidson diagonalization with overlap
     ethr =  5.04E-08,  avg # of iterations =  2.0

     total cpu time spent up to now is      100.9 secs

     total energy              =    -723.10925743 Ry
     estimated scf accuracy    <       0.00003100 Ry

     iteration # 19     ecut=    50.00 Ry     beta= 0.30
     Davidson diagonalization with overlap
     ethr =  4.31E-08,  avg # of iterations =  2.0

     total cpu time spent up to now is      104.4 secs

     total energy              =    -723.10925628 Ry
     estimated scf accuracy    <       0.00005831 Ry

     iteration # 20     ecut=    50.00 Ry     beta= 0.30
     Davidson diagonalization with overlap
     ethr =  4.31E-08,  avg # of iterations =  1.0

     total cpu time spent up to now is      107.7 secs

     total energy              =    -723.10921423 Ry
     estimated scf accuracy    <       0.00005471 Ry

     iteration # 21     ecut=    50.00 Ry     beta= 0.30
     Davidson diagonalization with overlap
     ethr =  4.31E-08,  avg # of iterations =  8.5

     total cpu time spent up to now is      116.9 secs

     total energy              =    -723.10920911 Ry
     estimated scf accuracy    <       0.00010469 Ry

     iteration # 22     ecut=    50.00 Ry     beta= 0.30
     Davidson diagonalization with overlap
     ethr =  4.31E-08,  avg # of iterations =  7.2

     total cpu time spent up to now is      125.1 secs

     total energy              =    -723.10924260 Ry
     estimated scf accuracy    <       0.00001108 Ry

     iteration # 23     ecut=    50.00 Ry     beta= 0.30
     Davidson diagonalization with overlap
     ethr =  1.54E-08,  avg # of iterations =  1.7

     total cpu time spent up to now is      128.6 secs

     total energy              =    -723.10924230 Ry
     estimated scf accuracy    <       0.00000871 Ry

     iteration # 24     ecut=    50.00 Ry     beta= 0.30
     Davidson diagonalization with overlap
     ethr =  1.21E-08,  avg # of iterations =  1.0

     total cpu time spent up to now is      131.8 secs

     total energy              =    -723.10924356 Ry
     estimated scf accuracy    <       0.00000698 Ry

     iteration # 25     ecut=    50.00 Ry     beta= 0.30
     Davidson diagonalization with overlap
     ethr =  9.69E-09,  avg # of iterations =  1.2

     total cpu time spent up to now is      135.1 secs

     total energy              =    -723.10924350 Ry
     estimated scf accuracy    <       0.00000925 Ry

     iteration # 26     ecut=    50.00 Ry     beta= 0.30
     Davidson diagonalization with overlap
     ethr =  9.69E-09,  avg # of iterations =  1.0

     total cpu time spent up to now is      138.3 secs

     total energy              =    -723.10925158 Ry
     estimated scf accuracy    <       0.00000919 Ry

     iteration # 27     ecut=    50.00 Ry     beta= 0.30
     Davidson diagonalization with overlap
     ethr =  9.69E-09,  avg # of iterations =  4.8

     total cpu time spent up to now is      144.2 secs

     total energy              =    -723.10925676 Ry
     estimated scf accuracy    <       0.00004414 Ry

     iteration # 28     ecut=    50.00 Ry     beta= 0.30
     Davidson diagonalization with overlap
     ethr =  9.69E-09,  avg # of iterations =  2.0

     total cpu time spent up to now is      147.8 secs

     total energy              =    -723.10925158 Ry
     estimated scf accuracy    <       0.00005182 Ry

     iteration # 29     ecut=    50.00 Ry     beta= 0.30
     Davidson diagonalization with overlap
     ethr =  9.69E-09,  avg # of iterations =  1.0

     total cpu time spent up to now is      151.1 secs

     total energy              =    -723.10925852 Ry
     estimated scf accuracy    <       0.00004261 Ry

     iteration # 30     ecut=    50.00 Ry     beta= 0.30
     Davidson diagonalization with overlap
     ethr =  9.69E-09,  avg # of iterations =  1.1

     total cpu time spent up to now is      154.3 secs

     total energy              =    -723.10922233 Ry
     estimated scf accuracy    <       0.00005526 Ry

     iteration # 31     ecut=    50.00 Ry     beta= 0.30
     Davidson diagonalization with overlap
     ethr =  9.69E-09,  avg # of iterations =  9.4

     total cpu time spent up to now is      164.7 secs

     total energy              =    -723.10923670 Ry
     estimated scf accuracy    <       0.00001517 Ry

     iteration # 32     ecut=    50.00 Ry     beta= 0.30
     Davidson diagonalization with overlap
     ethr =  9.69E-09,  avg # of iterations =  5.9

     total cpu time spent up to now is      171.7 secs

     total energy              =    -723.10924085 Ry
     estimated scf accuracy    <       0.00000028 Ry

     iteration # 33     ecut=    50.00 Ry     beta= 0.30
     Davidson diagonalization with overlap
     ethr =  3.96E-10,  avg # of iterations =  7.2

     total cpu time spent up to now is      179.3 secs

     total energy              =    -723.10924086 Ry
     estimated scf accuracy    <       0.00000125 Ry

     iteration # 34     ecut=    50.00 Ry     beta= 0.30
     Davidson diagonalization with overlap
     ethr =  3.96E-10,  avg # of iterations =  2.0

     total cpu time spent up to now is      183.1 secs

     total energy              =    -723.10924075 Ry
     estimated scf accuracy    <       0.00000060 Ry

     iteration # 35     ecut=    50.00 Ry     beta= 0.30
     Davidson diagonalization with overlap
     ethr =  3.96E-10,  avg # of iterations =  4.5

     total cpu time spent up to now is      188.4 secs

     total energy              =    -723.10924085 Ry
     estimated scf accuracy    <       0.00000007 Ry

     iteration # 36     ecut=    50.00 Ry     beta= 0.30
     Davidson diagonalization with overlap
     ethr =  9.81E-11,  avg # of iterations =  2.9

     total cpu time spent up to now is      192.6 secs

     total energy              =    -723.10924083 Ry
     estimated scf accuracy    <       0.00000006 Ry

     iteration # 37     ecut=    50.00 Ry     beta= 0.30
     Davidson diagonalization with overlap
     ethr =  8.62E-11,  avg # of iterations =  3.0

     total cpu time spent up to now is      196.9 secs

     End of self-consistent calculation

          k = 0.0000 0.0000 0.0000 (  3201 PWs)   bands (ev):

    -9.4384  -8.4902  -8.2371  -8.1149   3.0894   3.1505   3.3850   3.4743
     3.4745   3.6323   3.6324   3.9616   3.9683   4.1068   4.4640   4.8241
     5.2509   5.2509   5.3881   5.4623   5.6168   5.6420   5.6421   5.7186
     5.8984   6.0909   6.4166   7.0224   7.1804   8.7984   8.9653   9.2129
     9.2131   9.9172  10.2273  10.2276

          k = 0.0000 0.0000 0.2244 (  3206 PWs)   bands (ev):

    -9.3622  -8.4575  -8.3213  -8.1314   2.9678   3.0449   3.2794   3.4709
     3.4710   3.6074   3.6075   3.8336   3.9886   4.0485   4.4138   4.6099
     5.2920   5.2920   5.4691   5.4725   5.6319   5.6319   5.6802   5.7056
     5.9542   6.3168   6.4432   7.3370   7.4529   8.8644   8.9625   9.2829
     9.2831   9.4825  10.1633  10.1635

          k = 0.0000 0.0000 0.4489 (  3238 PWs)   bands (ev):

    -9.1506  -8.5492  -8.3730  -8.1834   2.7460   2.8171   3.1733   3.4723
     3.4724   3.5391   3.5505   3.5507   4.0260   4.0519   4.2925   4.3096
     5.3928   5.3928   5.5018   5.5905   5.5905   5.5915   5.6089   5.7285
     6.0873   6.2364   7.2177   7.7163   8.2653   8.5808   8.7970   9.1712
     9.4739   9.4741   9.9845   9.9847

          k = 0.0000 0.0000-0.6733 (  3236 PWs)   bands (ev):

    -8.8540  -8.8540  -8.2700  -8.2700   2.6728   2.6728   3.2677   3.2677
     3.4981   3.4981   3.4982   3.4982   4.1136   4.1136   4.1579   4.1579
     5.5063   5.5063   5.5063   5.5063   5.5471   5.5471   5.6806   5.6807
     6.1801   6.1801   8.0491   8.0491   8.1695   8.1695   8.9534   8.9534
     9.7324   9.7324   9.7326   9.7326

          k = 0.0000 0.3849 0.0000 (  3201 PWs)   bands (ev):

    -9.2435  -8.5036  -8.1755  -8.1066   3.2146   3.2449   3.4440   3.5026
     3.6083   3.6838   3.7928   3.8629   4.0384   4.0666   4.4958   4.7471
     5.1367   5.1673   5.2360   5.3905   5.6677   5.7092   5.7507   5.7800
     6.0110   6.0790   6.5057   6.7817   7.3006   8.2342   8.5338   8.7358
     8.7896   9.1009   9.7223   9.9440

          k = 0.0000 0.3849 0.2244 (  3210 PWs)   bands (ev):

    -9.1736  -8.4697  -8.2476  -8.1247   3.1259   3.1919   3.2898   3.3127
     3.6069   3.7100   3.7658   3.8641   3.9643   3.9944   4.3699   4.5376
     5.2336   5.2684   5.2766   5.4522   5.6509   5.6847   5.7268   5.8615
     6.0386   6.4897   6.5913   6.8470   7.5959   8.3232   8.4404   8.8212
     8.8533   8.9551   9.8084   9.8685

          k = 0.0000 0.3849 0.4489 (  3216 PWs)   bands (ev):

    -8.9809  -8.4451  -8.3817  -8.1811   2.9323   2.9954   3.0290   3.1325
     3.6136   3.6910   3.7042   3.7882   3.8792   3.9467   4.2135   4.3252
     5.3785   5.3788   5.4116   5.4810   5.5949   5.6504   5.6842   5.8454
     6.2325   6.5427   7.1978   7.2591   8.0422   8.3638   8.4171   8.7048
     9.0520   9.1926   9.6521   9.6577

          k = 0.0000 0.3849-0.6733 (  3216 PWs)   bands (ev):

    -8.7143  -8.7143  -8.2734  -8.2734   2.8466   2.8466   3.0061   3.0061
     3.6456   3.6456   3.6961   3.6961   3.9116   3.9116   4.2030   4.2030
     5.4736   5.4736   5.4979   5.4979   5.5316   5.5317   5.7556   5.7556
     6.4130   6.4130   7.6511   7.6511   7.9163   7.9163   9.0234   9.0234
     9.1801   9.1801   9.3599   9.3599

          k = 0.0000 0.7698 0.0000 (  3198 PWs)   bands (ev):

    -8.7921  -8.5036  -8.1066  -8.0922   2.9900   3.2147   3.3848   3.4441
     3.8628   3.8660   4.0242   4.0384   4.1889   4.4957   4.4995   4.7472
     5.0511   5.1367   5.3180   5.3905   5.7047   5.7092   5.7507   5.8143
     6.0111   6.1889   6.5056   6.7817   6.8061   7.3006   7.6457   7.7537
     8.5336   8.7896   9.1988   9.3172

          k = 0.0000 0.7698 0.2244 (  3201 PWs)   bands (ev):

    -8.7411  -8.4697  -8.1333  -8.1247   2.9262   3.1260   3.2089   3.2899
     3.8640   3.8751   3.9577   3.9944   4.1524   4.3186   4.3698   4.5376
     5.1929   5.2684   5.3448   5.4522   5.6759   5.6847   5.8354   5.8615
     6.0386   6.4004   6.5913   6.8470   7.0043   7.5959   7.6092   7.8758
     8.4403   8.9551   9.2239   9.3290

          k = 0.0000 0.7698 0.4489 (  3195 PWs)   bands (ev):

    -8.6039  -8.3817  -8.2511  -8.1811   2.7868   2.9050   2.9323   2.9955
     3.8791   3.9050   3.9088   3.9467   4.0659   4.0873   4.2134   4.3252
     5.4093   5.4116   5.4161   5.4810   5.6033   5.6842   5.7545   5.8454
     6.2325   6.5427   6.6921   7.1124   7.1978   8.0421   8.1005   8.1908
     8.4171   8.9630   9.1926   9.3668

          k = 0.0000 0.7698-0.6733 (  3200 PWs)   bands (ev):

    -8.4226  -8.4226  -8.2734  -8.2734   2.7435   2.7435   2.8467   2.8467
     3.9116   3.9116   3.9465   3.9465   3.9746   3.9746   4.2030   4.2030
     5.4736   5.4736   5.5099   5.5099   5.6040   5.6040   5.7556   5.7556
     6.4130   6.4131   6.9250   6.9250   7.6510   7.6510   8.5897   8.5897
     8.9174   8.9174   9.0234   9.0234

          k = 0.0000-1.1547 0.0000 (  3220 PWs)   bands (ev):

    -8.4902  -8.4902  -8.1149  -8.1149   3.0895   3.0895   3.1505   3.1505
     3.9682   3.9682   4.1068   4.1068   4.4639   4.4639   4.8241   4.8241
     5.3882   5.3882   5.4623   5.4623   5.6168   5.6168   5.7186   5.7186
     5.8985   5.8985   6.4166   6.4166   7.0224   7.0224   7.1803   7.1803
     8.7984   8.7984   8.9652   8.9652

          k = 0.0000-1.1547 0.2244 (  3216 PWs)   bands (ev):

    -8.4575  -8.4575  -8.1314  -8.1314   2.9679   2.9679   3.0450   3.0450
     3.9885   3.9885   4.0485   4.0485   4.4137   4.4137   4.6099   4.6099
     5.4691   5.4691   5.4725   5.4725   5.6803   5.6803   5.7056   5.7056
     5.9543   5.9543   6.3168   6.3168   7.3369   7.3369   7.4529   7.4529
     8.8642   8.8642   8.9625   8.9625

          k = 0.0000-1.1547 0.4489 (  3208 PWs)   bands (ev):

    -8.3730  -8.3730  -8.1834  -8.1834   2.7460   2.7460   2.8172   2.8172
     4.0261   4.0261   4.0518   4.0518   4.2924   4.2924   4.3097   4.3097
     5.5018   5.5018   5.5916   5.5916   5.6090   5.6090   5.7286   5.7286
     6.0873   6.0873   6.2365   6.2365   7.7162   7.7162   8.2653   8.2653
     8.5806   8.5806   9.1712   9.1712

          k = 0.0000-1.1547-0.6733 (  3216 PWs)   bands (ev):

    -8.2700  -8.2700  -8.2700  -8.2700   2.6728   2.6728   2.6729   2.6729
     4.1136   4.1136   4.1136   4.1136   4.1578   4.1578   4.1578   4.1578
     5.5471   5.5471   5.5472   5.5472   5.6807   5.6807   5.6807   5.6807
     6.1801   6.1801   6.1801   6.1801   8.1694   8.1694   8.1694   8.1694
     8.9534   8.9534   8.9534   8.9534

          k = 0.1667 0.0962 0.0000 (  3211 PWs)   bands (ev):

    -9.3876  -8.5833  -8.2199  -8.0975   3.0043   3.2688   3.3960   3.4430
     3.5097   3.6271   3.6741   3.9433   3.9902   4.0870   4.3825   4.7746
     5.1690   5.2274   5.2441   5.4114   5.6495   5.6815   5.7155   5.7534
     5.9151   6.0842   6.6855   7.0702   7.3458   8.9224   8.9350   9.0630
     9.0842   9.7845   9.8680  10.1536

          k = 0.1667 0.0962 0.2244 (  3215 PWs)   bands (ev):

    -9.3129  -8.5442  -8.3010  -8.1221   2.9192   3.1223   3.2801   3.3969
     3.5068   3.6284   3.6486   3.8749   3.9603   4.0234   4.3372   4.5339
     5.2747   5.2853   5.3073   5.4270   5.6377   5.6591   5.6808   5.8307
     6.0048   6.4537   6.6332   7.4078   7.4905   8.9641   9.0091   9.0784
     9.1584   9.3159  10.0191  10.0863

          k = 0.1667 0.0962 0.4489 (  3220 PWs)   bands (ev):

    -9.1060  -8.5211  -8.4413  -8.1960   2.7447   2.8461   3.1299   3.3210
     3.5096   3.5909   3.5932   3.6599   3.9885   4.0145   4.2279   4.2421
     5.3875   5.3879   5.4705   5.4940   5.5920   5.6069   5.6083   5.7661
     6.2332   6.5303   7.2347   7.8490   8.1982   8.6867   8.7094   9.2362
     9.2390   9.3605   9.8633   9.8982

          k = 0.1667 0.0962-0.6733 (  3210 PWs)   bands (ev):

    -8.8169  -8.8169  -8.3114  -8.3114   2.6880   2.6880   3.1713   3.1713
     3.5369   3.5369   3.5747   3.5747   4.0613   4.0613   4.1077   4.1077
     5.5035   5.5035   5.5125   5.5125   5.5338   5.5338   5.6496   5.6496
     6.4024   6.4024   8.0350   8.0350   8.2860   8.2861   8.9404   8.9404
     9.5520   9.5520   9.6329   9.6329

          k = 0.1667 0.4811 0.0000 (  3203 PWs)   bands (ev):

    -9.1116  -8.6988  -8.1413  -8.0874   3.1225   3.1661   3.4512   3.4750
     3.6501   3.8403   3.8508   3.8831   3.9937   4.1471   4.3079   4.4968
     5.0974   5.1319   5.2321   5.3289   5.6796   5.7099   5.8367   5.8490
     6.1088   6.1625   6.8990   7.1404   7.4780   7.7824   8.2676   8.7161
     8.8936   9.0831   9.5914   9.7010

          k = 0.1667 0.4811 0.2244 (  3195 PWs)   bands (ev):

    -9.0466  -8.6527  -8.2049  -8.1216   3.0562   3.1190   3.2702   3.2780
     3.6720   3.8175   3.8386   3.8507   3.9455   4.0523   4.1755   4.3814
     5.2125   5.2138   5.2755   5.3834   5.6593   5.6817   5.7772   5.8770
     6.3374   6.5284   7.0545   7.3457   7.4497   7.8931   8.2986   8.5919
     8.7873   9.2339   9.6132   9.6877

          k = 0.1667 0.4811 0.4489 (  3211 PWs)   bands (ev):

    -8.8682  -8.5295  -8.3807  -8.2211   2.9018   2.9682   2.9719   3.0279
     3.6817   3.7466   3.8018   3.8246   3.8788   3.9018   4.0690   4.2182
     5.3758   5.3814   5.4080   5.4508   5.5968   5.6282   5.6887   5.7924
     6.6259   7.0451   7.2298   7.6078   8.0350   8.0971   8.3659   8.5394
     8.7209   9.3482   9.3780   9.5739

          k = 0.1667 0.4811-0.6733 (  3218 PWs)   bands (ev):

    -8.6239  -8.6238  -8.3694  -8.3693   2.8257   2.8257   2.9142   2.9142
     3.6963   3.6963   3.8131   3.8131   3.8325   3.8325   4.1008   4.1008
     5.4936   5.4936   5.5020   5.5020   5.5550   5.5550   5.6570   5.6570
     6.8568   6.8568   7.7162   7.7162   8.0140   8.0140   8.9816   8.9816
     9.0016   9.0016   9.1002   9.1002

          k = 0.1667 0.8660 0.0000 (  3210 PWs)   bands (ev):

    -8.6570  -8.6570  -8.0900  -8.0900   3.0321   3.0321   3.3715   3.3715
     3.8748   3.8748   4.0608   4.0608   4.3286   4.3286   4.6492   4.6492
     5.0833   5.0833   5.3660   5.3660   5.7123   5.7123   5.8111   5.8111
     6.0502   6.0502   6.7666   6.7666   7.2388   7.2388   7.3917   7.3917
     8.9852   8.9852   9.0699   9.0699

          k = 0.1667 0.8660 0.2244 (  3202 PWs)   bands (ev):

    -8.6133  -8.6133  -8.1208  -8.1208   2.9588   2.9588   3.2049   3.2049
     3.8837   3.8837   4.0071   4.0071   4.2597   4.2597   4.4402   4.4402
     5.2306   5.2306   5.3997   5.3997   5.6813   5.6813   5.8587   5.8587
     6.1766   6.1766   6.8718   6.8718   7.3628   7.3628   7.5480   7.5480
     8.9244   8.9244   9.1797   9.1797

          k = 0.1667 0.8660 0.4489 (  3192 PWs)   bands (ev):

    -8.4972  -8.4972  -8.2111  -8.2111   2.8009   2.8009   2.9049   2.9049
     3.8997   3.8998   3.9792   3.9792   4.1226   4.1226   4.2223   4.2223
     5.4277   5.4277   5.4623   5.4623   5.6183   5.6183   5.7802   5.7802
     6.4295   6.4295   6.8053   6.8053   7.7855   7.7855   8.1830   8.1830
     8.6516   8.6516   9.3018   9.3018

          k = 0.1667 0.8660-0.6733 (  3196 PWs)   bands (ev):

    -8.3478  -8.3478  -8.3477  -8.3477   2.7451   2.7451   2.7451   2.7451
     3.9472   3.9472   3.9472   3.9472   4.0995   4.0995   4.0995   4.0995
     5.5146   5.5146   5.5146   5.5146   5.6470   5.6470   5.6470   5.6470
     6.6374   6.6374   6.6374   6.6374   8.2223   8.2223   8.2224   8.2224
     8.9671   8.9671   8.9671   8.9671

          k = 0.1667-1.0585 0.0000 (  3196 PWs)   bands (ev):

    -8.4947  -8.4947  -8.1120  -8.1120   3.1140   3.1140   3.2542   3.2542
     3.9329   3.9329   4.0802   4.0802   4.4782   4.4782   4.8274   4.8274
     5.2676   5.2676   5.4187   5.4187   5.6755   5.6755   5.7221   5.7221
     5.9479   5.9479   6.5168   6.5168   6.8261   6.8261   7.2691   7.2691
     8.7272   8.7272   8.8907   8.8907

          k = 0.1667-1.0585 0.2244 (  3204 PWs)   bands (ev):

    -8.4616  -8.4616  -8.1291  -8.1291   3.0111   3.0111   3.1236   3.1236
     3.9486   3.9486   4.0299   4.0299   4.4121   4.4121   4.5897   4.5897
     5.3739   5.3739   5.4646   5.4646   5.6842   5.6842   5.7576   5.7576
     5.9940   5.9940   6.4183   6.4183   7.1017   7.1017   7.5707   7.5707
     8.7050   8.7050   8.9763   8.9763

          k = 0.1667-1.0585 0.4489 (  3200 PWs)   bands (ev):

    -8.3759  -8.3759  -8.1826  -8.1826   2.8023   2.8023   2.8715   2.8715
     3.9852   3.9852   4.0190   4.0190   4.2706   4.2706   4.3117   4.3117
     5.4783   5.4783   5.5135   5.5135   5.6588   5.6588   5.7683   5.7683
     6.1308   6.1308   6.3302   6.3302   7.5341   7.5341   8.3053   8.3053
     8.4339   8.4339   9.1830   9.1830

          k = 0.1667-1.0585-0.6733 (  3196 PWs)   bands (ev):

    -8.2712  -8.2712  -8.2711  -8.2711   2.7258   2.7258   2.7258   2.7258
     4.0395   4.0395   4.0395   4.0395   4.1848   4.1848   4.1848   4.1848
     5.5165   5.5165   5.5165   5.5165   5.7105   5.7105   5.7105   5.7105
     6.2474   6.2474   6.2474   6.2474   7.9989   7.9989   7.9989   7.9989
     8.9844   8.9844   8.9844   8.9844

          k = 0.1667-0.6736 0.0000 (  3195 PWs)   bands (ev):

    -8.8849  -8.3572  -8.1533  -8.1002   3.0531   3.4413   3.4803   3.6001
     3.7745   3.8299   3.9828   4.0073   4.1119   4.3473   4.6657   4.8331
     5.0777   5.1888   5.2766   5.3416   5.5027   5.5572   5.6977   5.8408
     5.9141   6.2103   6.2838   6.5932   7.0559   7.5931   7.7782   7.9891
     8.0622   8.4345   9.3228   9.3583

          k = 0.1667-0.6736 0.2244 (  3198 PWs)   bands (ev):

    -8.8293  -8.3350  -8.1578  -8.1482   2.9957   3.2507   3.3783   3.4622
     3.7865   3.7898   3.9313   3.9681   4.0469   4.2273   4.4801   4.5964
     5.1918   5.2522   5.3160   5.4193   5.6132   5.6719   5.7212   5.8307
     6.1017   6.2661   6.5249   6.5624   7.2244   7.8009   7.8046   7.9697
     8.0358   8.6473   9.2561   9.4491

          k = 0.1667-0.6736 0.4489 (  3197 PWs)   bands (ev):

    -8.6789  -8.2838  -8.2800  -8.1769   2.8593   2.9490   3.1387   3.1605
     3.7851   3.7955   3.8706   3.8980   3.9542   4.0656   4.3193   4.3798
     5.3037   5.3922   5.4024   5.4026   5.6036   5.7429   5.7994   5.9370
     6.2094   6.3714   6.6674   6.9336   7.4190   7.5548   8.0905   8.2539
     8.5902   8.9940   9.0225   9.4431

          k = 0.1667-0.6736-0.6733 (  3212 PWs)   bands (ev):

    -8.4778  -8.4777  -8.2195  -8.2195   2.8047   2.8047   3.0169   3.0169
     3.8192   3.8192   3.8306   3.8306   3.9643   3.9643   4.2919   4.2919
     5.3570   5.3570   5.4999   5.4999   5.5949   5.5949   5.9309   5.9309
     6.2988   6.2988   7.1042   7.1042   7.2066   7.2066   8.5921   8.5921
     8.9674   8.9674   9.0579   9.0579

          k = 0.1667-0.2887 0.0000 (  3197 PWs)   bands (ev):

    -9.2901  -8.4117  -8.1891  -8.1333   3.3107   3.3205   3.3897   3.4605
     3.5765   3.6762   3.7452   3.8722   4.0314   4.0422   4.5817   4.8770
     5.1900   5.2330   5.2620   5.3464   5.5718   5.6618   5.7131   5.7524
     6.0778   6.1649   6.2163   6.5002   7.4463   8.3477   8.4967   8.6626
     8.7668   9.3241   9.7738   9.9918

          k = 0.1667-0.2887 0.2244 (  3206 PWs)   bands (ev):

    -9.2186  -8.3849  -8.2642  -8.1430   3.2183   3.2437   3.2749   3.2803
     3.5755   3.6923   3.7160   3.8796   3.9390   3.9935   4.4779   4.6062
     5.2485   5.2755   5.3790   5.4143   5.6406   5.6466   5.7073   5.7178
     6.2122   6.2419   6.4774   6.6369   7.7684   8.2670   8.5874   8.8012
     8.8176   9.0714   9.8733   9.9178

          k = 0.1667-0.2887 0.4489 (  3224 PWs)   bands (ev):

    -9.0212  -8.4691  -8.3170  -8.1763   2.9725   2.9927   3.0656   3.1792
     3.5778   3.6485   3.6711   3.7623   3.9091   3.9614   4.3214   4.3404
     5.3791   5.3819   5.4121   5.4514   5.5937   5.6373   5.7848   5.7874
     6.2085   6.2340   7.0455   7.2570   7.9601   8.4703   8.5002   8.8622
     9.1063   9.1320   9.7116   9.7201

          k = 0.1667-0.2887-0.6733 (  3226 PWs)   bands (ev):

    -8.7471  -8.7471  -8.2380  -8.2379   2.8627   2.8627   3.0538   3.0538
     3.5972   3.5973   3.6735   3.6735   3.9457   3.9458   4.2493   4.2493
     5.4369   5.4369   5.4982   5.4982   5.5264   5.5264   5.8329   5.8329
     6.2147   6.2147   7.5184   7.5184   7.9715   7.9715   9.0335   9.0335
     9.2916   9.2916   9.4270   9.4270

          k = 0.3333 0.1925 0.0000 (  3195 PWs)   bands (ev):

    -9.2435  -8.7921  -8.1755  -8.0922   2.9899   3.2448   3.3847   3.5026
     3.6084   3.6838   3.7929   3.8661   4.0242   4.0666   4.1890   4.4995
     5.0511   5.1673   5.2360   5.3180   5.6677   5.7047   5.7800   5.8144
     6.0790   6.1888   6.8060   7.6456   7.7538   8.2341   8.7359   9.1008
     9.1988   9.3173   9.7223   9.9442

          k = 0.3333 0.1925 0.2244 (  3209 PWs)   bands (ev):

    -9.1736  -8.7411  -8.2476  -8.1333   2.9261   3.1918   3.2088   3.3126
     3.6070   3.7099   3.7659   3.8752   3.9577   3.9642   4.1525   4.3185
     5.1929   5.2336   5.2766   5.3448   5.6509   5.6759   5.7268   5.8354
     6.4003   6.4897   7.0042   7.6091   7.8759   8.3231   8.8213   8.8533
     9.2241   9.3290   9.8084   9.8686

          k = 0.3333 0.1925 0.4489 (  3213 PWs)   bands (ev):

    -8.9809  -8.6039  -8.4451  -8.2511   2.7867   2.9049   3.0290   3.1324
     3.6137   3.6909   3.7043   3.7882   3.9050   3.9089   4.0660   4.0873
     5.3785   5.3788   5.4093   5.4161   5.5949   5.6033   5.6504   5.7545
     6.6921   7.1123   7.2591   8.1004   8.1909   8.3637   8.7047   8.9632
     9.0521   9.3668   9.6520   9.6578

          k = 0.3333 0.1925-0.6733 (  3208 PWs)   bands (ev):

    -8.7143  -8.7143  -8.4226  -8.4226   2.7434   2.7434   3.0061   3.0061
     3.6457   3.6457   3.6960   3.6960   3.9465   3.9465   3.9747   3.9747
     5.4979   5.4979   5.5098   5.5099   5.5316   5.5316   5.6040   5.6040
     6.9249   6.9249   7.9163   7.9163   8.5898   8.5898   8.9173   8.9173
     9.1800   9.1800   9.3600   9.3600

          k = 0.3333 0.5774 0.0000 (  3182 PWs)   bands (ev):

    -8.9178  -8.9178  -8.1042  -8.1042   3.1135   3.1135   3.4499   3.4499
     3.7457   3.7457   3.9232   3.9232   4.1053   4.1053   4.2900   4.2900
     5.1063   5.1063   5.2516   5.2516   5.6943   5.6943   5.8531   5.8531
     6.2056   6.2056   7.2954   7.2954   7.6172   7.6172   8.1498   8.1498
     9.3096   9.3096   9.3778   9.3778

          k = 0.3333 0.5774 0.2244 (  3174 PWs)   bands (ev):

    -8.8608  -8.8608  -8.1545  -8.1545   3.0620   3.0620   3.2540   3.2540
     3.7623   3.7623   3.8729   3.8729   4.0164   4.0164   4.2025   4.2025
     5.2032   5.2032   5.3023   5.3023   5.6698   5.6698   5.8307   5.8307
     6.5546   6.5546   7.4702   7.4702   7.6726   7.6726   8.0582   8.0582
     9.2110   9.2110   9.4960   9.4960

          k = 0.3333 0.5774 0.4489 (  3200 PWs)   bands (ev):

    -8.7060  -8.7059  -8.2964  -8.2964   2.9314   2.9314   2.9531   2.9531
     3.7649   3.7649   3.7858   3.7858   3.9419   3.9419   4.0627   4.0627
     5.3929   5.3929   5.3958   5.3958   5.6042   5.6042   5.7403   5.7403
     7.0383   7.0383   7.5850   7.5850   8.1136   8.1136   8.1761   8.1761
     8.9459   8.9459   9.4798   9.4798

          k = 0.3333 0.5774-0.6733 (  3220 PWs)   bands (ev):

    -8.4980  -8.4980  -8.4980  -8.4980   2.8443   2.8443   2.8443   2.8443
     3.7536   3.7536   3.7536   3.7536   3.9655   3.9655   3.9655   3.9655
     5.4954   5.4954   5.4954   5.4954   5.5958   5.5958   5.5958   5.5958
     7.3424   7.3424   7.3424   7.3424   8.5209   8.5209   8.5209   8.5209
     8.9984   8.9984   8.9984   8.9984

          k = 0.3333-0.9623 0.0000 (  3204 PWs)   bands (ev):

    -8.5036  -8.5036  -8.1066  -8.1066   3.2147   3.2147   3.4441   3.4441
     3.8628   3.8628   4.0384   4.0384   4.4958   4.4958   4.7472   4.7472
     5.1367   5.1367   5.3905   5.3905   5.7093   5.7093   5.7507   5.7507
     6.0111   6.0111   6.5056   6.5056   6.7817   6.7817   7.3006   7.3006
     8.5336   8.5336   8.7896   8.7896

          k = 0.3333-0.9623 0.2244 (  3202 PWs)   bands (ev):

    -8.4697  -8.4697  -8.1247  -8.1247   3.1260   3.1260   3.2899   3.2899
     3.8640   3.8640   3.9944   3.9944   4.3699   4.3699   4.5376   4.5376
     5.2684   5.2684   5.4523   5.4523   5.6847   5.6847   5.8615   5.8615
     6.0386   6.0386   6.5912   6.5912   6.8470   6.8470   7.5959   7.5959
     8.4403   8.4403   8.9551   8.9551

          k = 0.3333-0.9623 0.4489 (  3198 PWs)   bands (ev):

    -8.3817  -8.3817  -8.1811  -8.1811   2.9324   2.9324   2.9955   2.9955
     3.8792   3.8792   3.9467   3.9467   4.2135   4.2135   4.3252   4.3252
     5.4116   5.4116   5.4811   5.4811   5.6842   5.6842   5.8454   5.8454
     6.2325   6.2325   6.5427   6.5427   7.1978   7.1978   8.0421   8.0421
     8.4171   8.4171   9.1926   9.1926

          k = 0.3333-0.9623-0.6733 (  3208 PWs)   bands (ev):

    -8.2734  -8.2734  -8.2734  -8.2734   2.8467   2.8467   2.8467   2.8467
     3.9116   3.9116   3.9116   3.9116   4.2029   4.2029   4.2029   4.2029
     5.4736   5.4736   5.4736   5.4736   5.7557   5.7557   5.7557   5.7557
     6.4130   6.4130   6.4130   6.4130   7.6510   7.6510   7.6510   7.6510
     9.0234   9.0234   9.0234   9.0234

          k = 0.3333-0.5774 0.0000 (  3196 PWs)   bands (ev):

    -8.9178  -8.2370  -8.2370  -8.1042   3.1136   3.4499   3.6390   3.7303
     3.7303   3.7457   3.9232   4.0487   4.1053   4.2900   4.8562   4.8563
     5.1062   5.1287   5.2516   5.2632   5.2632   5.3967   5.6944   5.8531
     5.8764   6.2057   6.4640   6.4640   7.2954   7.6171   7.8132   8.0258
     8.0258   8.1498   9.3095   9.3777

          k = 0.3333-0.5774 0.2244 (  3198 PWs)   bands (ev):

    -8.8608  -8.2278  -8.2278  -8.1545   3.0621   3.2540   3.5765   3.5765
     3.6519   3.7622   3.8728   3.9942   4.0164   4.2025   4.5735   4.5735
     5.1541   5.2032   5.3023   5.3817   5.5973   5.5973   5.6698   5.8307
     6.0107   6.4225   6.4225   6.5547   7.4702   7.6726   7.6765   8.0582
     8.2906   8.2906   9.2109   9.4960

          k = 0.3333-0.5774 0.4489 (  3202 PWs)   bands (ev):

    -8.7060  -8.2964  -8.2092  -8.2092   2.9315   2.9532   3.2652   3.2652
     3.6937   3.7649   3.7857   3.8792   3.9419   4.0627   4.3864   4.3864
     5.2113   5.3394   5.3929   5.3958   5.6042   5.7403   5.9153   5.9153
     6.3415   6.3415   6.3659   7.0383   7.3146   7.5850   8.1136   8.1761
     8.8107   8.8108   8.9458   9.4798

          k = 0.3333-0.5774-0.6733 (  3218 PWs)   bands (ev):

    -8.4980  -8.4980  -8.1999  -8.1998   2.8444   2.8444   3.1188   3.1188
     3.7536   3.7536   3.7700   3.7700   3.9654   3.9654   4.3389   4.3389
     5.2781   5.2781   5.4954   5.4955   5.5958   5.5958   6.0428   6.0428
     6.2872   6.2872   6.8378   6.8378   7.3424   7.3424   8.5208   8.5209
     8.9984   8.9984   9.0694   9.0694

          k =-0.5000-0.2887 0.0000 (  3192 PWs)   bands (ev):

    -9.0313  -9.0313  -8.1241  -8.1241   3.0832   3.0832   3.4641   3.4641
     3.7427   3.7427   3.8793   3.8793   3.9730   3.9730   4.2108   4.2108
     5.0940   5.0940   5.2539   5.2539   5.6879   5.6879   5.8429   5.8429
     6.1429   6.1429   7.4094   7.4094   8.2572   8.2572   8.3803   8.3803
     9.4900   9.4900   9.6413   9.6413

          k =-0.5000-0.2887 0.2244 (  3200 PWs)   bands (ev):

    -8.9694  -8.9694  -8.1823  -8.1823   3.0294   3.0294   3.2707   3.2707
     3.7449   3.7449   3.8460   3.8460   3.9429   3.9429   4.1001   4.1001
     5.1923   5.1923   5.2901   5.2901   5.6651   5.6651   5.7970   5.7970
     6.5418   6.5418   7.5311   7.5311   8.2244   8.2244   8.3589   8.3589
     9.5563   9.5563   9.5876   9.5876

          k =-0.5000-0.2887 0.4489 (  3202 PWs)   bands (ev):

    -8.8004  -8.8004  -8.3442  -8.3442   2.8965   2.8965   2.9912   2.9912
     3.7608   3.7608   3.8033   3.8033   3.8734   3.8734   3.9247   3.9247
     5.3797   5.3797   5.3832   5.3832   5.5985   5.5985   5.7066   5.7066
     7.1460   7.1460   7.7571   7.7571   8.2241   8.2241   8.6290   8.6290
     9.3189   9.3189   9.4986   9.4986

          k =-0.5000-0.2887-0.6733 (  3204 PWs)   bands (ev):

    -8.5707  -8.5707  -8.5706  -8.5706   2.8523   2.8523   2.8523   2.8523
     3.8041   3.8041   3.8041   3.8041   3.8202   3.8202   3.8202   3.8202
     5.4972   5.4972   5.4972   5.4972   5.5635   5.5635   5.5635   5.5635
     7.5190   7.5190   7.5190   7.5190   8.9510   8.9510   8.9510   8.9510
     8.9820   8.9820   8.9820   8.9820

          k =-0.5000-1.4434 0.0000 (  3206 PWs)   bands (ev):

    -8.5080  -8.5080  -8.1039  -8.1039   3.3004   3.3004   3.4945   3.4945
     3.9137   3.9137   3.9792   3.9792   4.4883   4.4883   4.6471   4.6471
     5.1343   5.1343   5.3732   5.3732   5.7129   5.7129   5.7770   5.7770
     6.0634   6.0634   6.3220   6.3220   6.9875   6.9875   7.2313   7.2313
     8.4241   8.4241   8.7504   8.7504

          k =-0.5000-1.4434 0.2244 (  3216 PWs)   bands (ev):

    -8.4737  -8.4737  -8.1226  -8.1226   3.2127   3.2127   3.3595   3.3595
     3.8770   3.8770   3.9305   3.9305   4.3065   4.3065   4.5201   4.5201
     5.2401   5.2401   5.4463   5.4463   5.6845   5.6845   5.9218   5.9218
     6.0830   6.0830   6.4824   6.4824   6.9398   6.9398   7.5316   7.5316
     8.3226   8.3226   8.9403   8.9403

          k =-0.5000-1.4434 0.4489 (  3190 PWs)   bands (ev):

    -8.3845  -8.3845  -8.1804  -8.1804   3.0175   3.0175   3.0621   3.0621
     3.8433   3.8433   3.8648   3.8648   4.1885   4.1885   4.3314   4.3314
     5.3848   5.3848   5.4724   5.4724   5.6927   5.6927   5.8813   5.8813
     6.3275   6.3275   6.6432   6.6432   7.0368   7.0368   7.8374   7.8374
     8.4392   8.4392   9.1943   9.1943

          k =-0.5000-1.4434-0.6733 (  3200 PWs)   bands (ev):

    -8.2746  -8.2746  -8.2745  -8.2745   2.9185   2.9185   2.9185   2.9185
     3.8399   3.8399   3.8399   3.8399   4.2086   4.2086   4.2086   4.2086
     5.4569   5.4569   5.4569   5.4569   5.7755   5.7755   5.7755   5.7755
     6.5298   6.5298   6.5298   6.5298   7.4503   7.4503   7.4503   7.4503
     9.0368   9.0369   9.0369   9.0369

          k = 0.3333-0.1925-0.2244 (  3210 PWs)   bands (ev):

    -9.1736  -8.4697  -8.2476  -8.1247   3.1259   3.1919   3.2898   3.3127
     3.6069   3.7100   3.7658   3.8641   3.9643   3.9944   4.3699   4.5376
     5.2336   5.2684   5.2766   5.4522   5.6509   5.6847   5.7268   5.8615
     6.0386   6.4897   6.5913   6.8470   7.5959   8.3232   8.4404   8.8212
     8.8533   8.9551   9.8084   9.8685

          k = 0.3333-0.1925-0.4489 (  3216 PWs)   bands (ev):

    -8.9809  -8.4451  -8.3817  -8.1811   2.9323   2.9954   3.0290   3.1325
     3.6136   3.6910   3.7042   3.7882   3.8792   3.9467   4.2135   4.3252
     5.3785   5.3788   5.4116   5.4810   5.5949   5.6504   5.6842   5.8454
     6.2325   6.5427   7.1978   7.2591   8.0422   8.3638   8.4171   8.7048
     9.0520   9.1926   9.6521   9.6577

          k = 0.6667-0.3849-0.2244 (  3201 PWs)   bands (ev):

    -8.7411  -8.4697  -8.1333  -8.1247   2.9262   3.1259   3.2089   3.2899
     3.8640   3.8751   3.9577   3.9944   4.1524   4.3186   4.3698   4.5376
     5.1929   5.2684   5.3448   5.4522   5.6759   5.6847   5.8354   5.8615
     6.0386   6.4004   6.5913   6.8470   7.0043   7.5959   7.6092   7.8758
     8.4403   8.9551   9.2239   9.3290

          k = 0.6667-0.3849-0.4489 (  3195 PWs)   bands (ev):

    -8.6039  -8.3817  -8.2511  -8.1811   2.7868   2.9050   2.9323   2.9955
     3.8791   3.9050   3.9088   3.9467   4.0659   4.0873   4.2134   4.3252
     5.4093   5.4116   5.4161   5.4810   5.6033   5.6842   5.7545   5.8454
     6.2325   6.5427   6.6921   7.1124   7.1978   8.0421   8.1005   8.1908
     8.4171   8.9630   9.1926   9.3668

          k = 0.1667 0.0962-0.2244 (  3215 PWs)   bands (ev):

    -9.3129  -8.5442  -8.3010  -8.1221   2.9192   3.1223   3.2800   3.3969
     3.5068   3.6284   3.6486   3.8749   3.9603   4.0234   4.3372   4.5339
     5.2747   5.2853   5.3073   5.4270   5.6377   5.6591   5.6808   5.8307
     6.0048   6.4537   6.6332   7.4078   7.4905   8.9641   9.0091   9.0784
     9.1584   9.3159  10.0191  10.0863

          k = 0.1667 0.0962-0.4489 (  3220 PWs)   bands (ev):

    -9.1060  -8.5211  -8.4413  -8.1960   2.7447   2.8461   3.1299   3.3210
     3.5096   3.5909   3.5932   3.6599   3.9885   4.0145   4.2279   4.2421
     5.3875   5.3879   5.4705   5.4940   5.5920   5.6069   5.6083   5.7661
     6.2332   6.5303   7.2347   7.8490   8.1982   8.6867   8.7093   9.2362
     9.2390   9.3605   9.8633   9.8982

          k = 0.5000-0.0962-0.2244 (  3195 PWs)   bands (ev):

    -9.0466  -8.6527  -8.2049  -8.1216   3.0562   3.1190   3.2702   3.2780
     3.6720   3.8175   3.8386   3.8507   3.9455   4.0523   4.1755   4.3814
     5.2125   5.2138   5.2755   5.3834   5.6593   5.6817   5.7772   5.8770
     6.3374   6.5284   7.0545   7.3457   7.4497   7.8931   8.2986   8.5919
     8.7873   9.2339   9.6132   9.6877

          k = 0.5000-0.0962-0.4489 (  3211 PWs)   bands (ev):

    -8.8682  -8.5295  -8.3807  -8.2211   2.9018   2.9682   2.9719   3.0279
     3.6817   3.7466   3.8018   3.8246   3.8789   3.9018   4.0690   4.2182
     5.3758   5.3814   5.4080   5.4508   5.5968   5.6282   5.6887   5.7924
     6.6259   7.0451   7.2298   7.6078   8.0351   8.0971   8.3659   8.5394
     8.7209   9.3482   9.3780   9.5739

          k =-0.8333 0.6736-0.2244 (  3204 PWs)   bands (ev):

    -8.4616  -8.4616  -8.1291  -8.1291   3.0111   3.0111   3.1236   3.1236
     3.9486   3.9486   4.0299   4.0299   4.4121   4.4121   4.5897   4.5897
     5.3739   5.3739   5.4646   5.4646   5.6842   5.6842   5.7576   5.7576
     5.9940   5.9940   6.4183   6.4183   7.1017   7.1017   7.5707   7.5707
     8.7050   8.7050   8.9763   8.9763

          k =-0.8333 0.6736-0.4489 (  3200 PWs)   bands (ev):

    -8.3759  -8.3759  -8.1826  -8.1826   2.8023   2.8023   2.8715   2.8715
     3.9852   3.9852   4.0190   4.0190   4.2706   4.2706   4.3117   4.3117
     5.4783   5.4783   5.5135   5.5135   5.6588   5.6588   5.7683   5.7683
     6.1308   6.1308   6.3302   6.3302   7.5341   7.5341   8.3053   8.3053
     8.4339   8.4339   9.1830   9.1830

          k =-0.5000 0.4811-0.2244 (  3198 PWs)   bands (ev):

    -8.8293  -8.3350  -8.1578  -8.1482   2.9957   3.2507   3.3783   3.4622
     3.7865   3.7898   3.9313   3.9681   4.0469   4.2273   4.4801   4.5964
     5.1918   5.2522   5.3160   5.4193   5.6132   5.6719   5.7212   5.8307
     6.1017   6.2661   6.5249   6.5624   7.2244   7.8009   7.8046   7.9697
     8.0358   8.6473   9.2561   9.4491

          k =-0.5000 0.4811-0.4489 (  3197 PWs)   bands (ev):

    -8.6789  -8.2838  -8.2800  -8.1769   2.8593   2.9490   3.1387   3.1605
     3.7851   3.7955   3.8706   3.8980   3.9542   4.0656   4.3193   4.3798
     5.3037   5.3921   5.4024   5.4026   5.6036   5.7429   5.7994   5.9370
     6.2094   6.3714   6.6674   6.9336   7.4190   7.5548   8.0905   8.2539
     8.5902   8.9940   9.0225   9.4431

          k = 0.3333 0.1925-0.2244 (  3209 PWs)   bands (ev):

    -9.1736  -8.7411  -8.2476  -8.1333   2.9261   3.1918   3.2088   3.3126
     3.6070   3.7099   3.7659   3.8752   3.9577   3.9642   4.1525   4.3185
     5.1929   5.2336   5.2766   5.3448   5.6509   5.6759   5.7268   5.8354
     6.4003   6.4897   7.0042   7.6091   7.8759   8.3231   8.8213   8.8533
     9.2241   9.3290   9.8084   9.8686

          k = 0.3333 0.1925-0.4489 (  3213 PWs)   bands (ev):

    -8.9809  -8.6039  -8.4451  -8.2511   2.7867   2.9049   3.0290   3.1324
     3.6137   3.6909   3.7043   3.7882   3.9050   3.9089   4.0660   4.0873
     5.3785   5.3788   5.4093   5.4161   5.5949   5.6033   5.6504   5.7545
     6.6921   7.1123   7.2591   8.1004   8.1909   8.3637   8.7047   8.9632
     9.0521   9.3668   9.6520   9.6578

          k =-0.6667 0.7698-0.2244 (  3202 PWs)   bands (ev):

    -8.4697  -8.4697  -8.1247  -8.1247   3.1260   3.1260   3.2899   3.2899
     3.8640   3.8640   3.9944   3.9944   4.3699   4.3699   4.5376   4.5376
     5.2684   5.2684   5.4523   5.4523   5.6847   5.6847   5.8615   5.8615
     6.0386   6.0386   6.5912   6.5912   6.8470   6.8470   7.5959   7.5959
     8.4403   8.4403   8.9551   8.9551

          k =-0.6667 0.7698-0.4489 (  3198 PWs)   bands (ev):

    -8.3817  -8.3817  -8.1811  -8.1811   2.9324   2.9324   2.9955   2.9955
     3.8792   3.8792   3.9467   3.9467   4.2135   4.2135   4.3252   4.3252
     5.4116   5.4116   5.4811   5.4811   5.6842   5.6842   5.8454   5.8454
     6.2325   6.2325   6.5427   6.5427   7.1978   7.1978   8.0421   8.0421
     8.4171   8.4171   9.1926   9.1926

     highest occupied level (ev):    10.2276

!    total energy              =    -723.10924083 Ry
     estimated scf accuracy    <          9.8E-09 Ry

     The total energy is the sum of the following terms:
     one-electron contribution =    -260.61701161 Ry
     hartree contribution      =     219.87765185 Ry
     xc contribution           =    -220.03292228 Ry
     ewald contribution        =    -462.33695880 Ry

     convergence has been achieved in  37 iterations

     Forces acting on atoms (cartesian axes, Ry/au):

     atom    1 type  1   force =    -0.00000542   -0.00000313    0.01721746
     atom    2 type  2   force =    -0.00000651   -0.00000376   -0.01721939
     atom    3 type  1   force =     0.00000519    0.00000300    0.01721920
     atom    4 type  2   force =     0.00000557    0.00000321   -0.01721605
     atom    5 type  1   force =    -0.00000325   -0.00000188    0.01721659
     atom    6 type  2   force =    -0.00000651   -0.00000376   -0.01722050
     atom    7 type  1   force =     0.00000336    0.00000194    0.01721981
     atom    8 type  2   force =     0.00000758    0.00000438   -0.01721712
     The non-local contrib.  to forces
     atom    1 type  1   force =     0.00002615    0.00001510    0.13619670
     atom    2 type  2   force =    -0.00014901   -0.00008603    0.09736689
     atom    3 type  1   force =    -0.00002721   -0.00001571    0.13619892
     atom    4 type  2   force =     0.00014770    0.00008527    0.09737416
     atom    5 type  1   force =     0.00002864    0.00001654    0.13619694
     atom    6 type  2   force =    -0.00014779   -0.00008533    0.09736683
     atom    7 type  1   force =    -0.00002874   -0.00001659    0.13619675
     atom    8 type  2   force =     0.00014751    0.00008517    0.09737348
     The ionic contribution  to forces
     atom    1 type  1   force =     0.00000000    0.00000000    0.93141675
     atom    2 type  2   force =    -0.00000000   -0.00000000   -0.93141675
     atom    3 type  1   force =    -0.00000000   -0.00000000    0.93141675
     atom    4 type  2   force =     0.00000000    0.00000000   -0.93141675
     atom    5 type  1   force =     0.00000000    0.00000000    0.93141675
     atom    6 type  2   force =    -0.00000000   -0.00000000   -0.93141675
     atom    7 type  1   force =    -0.00000000   -0.00000000    0.93141675
     atom    8 type  2   force =     0.00000000    0.00000000   -0.93141675
     The local contribution  to forces
     atom    1 type  1   force =    -0.00003369   -0.00001945   -1.03908711
     atom    2 type  2   force =     0.00014067    0.00008122    0.81748835
     atom    3 type  1   force =     0.00003542    0.00002045   -1.03909890
     atom    4 type  2   force =    -0.00014047   -0.00008110    0.81749403
     atom    5 type  1   force =    -0.00004002   -0.00002311   -1.03908666
     atom    6 type  2   force =     0.00014066    0.00008121    0.81748957
     atom    7 type  1   force =     0.00003919    0.00002263   -1.03909555
     atom    8 type  2   force =    -0.00013816   -0.00007977    0.81749299
     The core correction contribution to forces
     atom    1 type  1   force =     0.00000458    0.00000265   -0.01130747
     atom    2 type  2   force =     0.00000170    0.00000099   -0.00066330
     atom    3 type  1   force =    -0.00000443   -0.00000230   -0.01130685
     atom    4 type  2   force =    -0.00000165   -0.00000095   -0.00066337
     atom    5 type  1   force =     0.00000441    0.00000263   -0.01130756
     atom    6 type  2   force =     0.00000166    0.00000096   -0.00066328
     atom    7 type  1   force =    -0.00000451   -0.00000268   -0.01130675
     atom    8 type  2   force =    -0.00000167   -0.00000096   -0.00066338
     The Hubbard contrib.    to forces
     atom    1 type  1   force =     0.00000000    0.00000000    0.00000000
     atom    2 type  2   force =     0.00000000    0.00000000    0.00000000
     atom    3 type  1   force =     0.00000000    0.00000000    0.00000000
     atom    4 type  2   force =     0.00000000    0.00000000    0.00000000
     atom    5 type  1   force =     0.00000000    0.00000000    0.00000000
     atom    6 type  2   force =     0.00000000    0.00000000    0.00000000
     atom    7 type  1   force =     0.00000000    0.00000000    0.00000000
     atom    8 type  2   force =     0.00000000    0.00000000    0.00000000
     The SCF correction term to forces
     atom    1 type  1   force =    -0.00000239   -0.00000138    0.00000036
     atom    2 type  2   force =     0.00000018    0.00000010    0.00000717
     atom    3 type  1   force =     0.00000137    0.00000079    0.00001105
     atom    4 type  2   force =     0.00000004    0.00000002   -0.00000236
     atom    5 type  1   force =     0.00000374    0.00000216   -0.00000112
     atom    6 type  2   force =    -0.00000098   -0.00000057    0.00000487
     atom    7 type  1   force =    -0.00000249   -0.00000144    0.00001037
     atom    8 type  2   force =    -0.00000005   -0.00000003   -0.00000170

     Total force =     0.048701     Total SCF correction =     0.000019

     Writing all to output data dir ./ZnO-3.14-1.49-211.in.save/

     init_run     :      3.44s CPU      3.00s WALL (       1 calls)
     electrons    :    251.19s CPU    193.55s WALL (       1 calls)
     forces       :      0.98s CPU      0.79s WALL (       1 calls)

     Called by init_run:
     wfcinit      :      2.27s CPU      1.80s WALL (       1 calls)
     potinit      :      0.38s CPU      0.39s WALL (       1 calls)
     hinit0       :      0.67s CPU      0.69s WALL (       1 calls)

     Called by electrons:
     c_bands      :    221.32s CPU    169.24s WALL (      37 calls)
     sum_band     :     26.61s CPU     21.59s WALL (      37 calls)
     v_of_rho     :      1.11s CPU      0.98s WALL (      38 calls)
     newd         :      1.92s CPU      1.54s WALL (      38 calls)
     mix_rho      :      0.17s CPU      0.16s WALL (      37 calls)

     Called by c_bands:
     init_us_2    :      1.63s CPU      1.36s WALL (    3040 calls)
     init_us_2:cp :      1.61s CPU      1.35s WALL (    3040 calls)
     cegterg      :    207.52s CPU    157.83s WALL (    1480 calls)

     Called by *egterg:
     cdiaghg      :     34.17s CPU     26.86s WALL (    7023 calls)
     h_psi        :    135.08s CPU    109.76s WALL (    7063 calls)
     s_psi        :      9.39s CPU      5.05s WALL (    7063 calls)
     g_psi        :      0.79s CPU      0.50s WALL (    5543 calls)

     Called by h_psi:
     h_psi:calbec :      9.69s CPU      5.80s WALL (    7063 calls)
     vloc_psi     :    115.54s CPU     98.48s WALL (    7063 calls)
     add_vuspsi   :      9.44s CPU      5.17s WALL (    7063 calls)

     General routines
     calbec       :     12.90s CPU      7.65s WALL (    8703 calls)
     fft          :      0.83s CPU      0.82s WALL (     503 calls)
     ffts         :      0.15s CPU      0.16s WALL (      75 calls)
     fftw         :    117.07s CPU    100.55s WALL (  389278 calls)
     interpolate  :      0.18s CPU      0.19s WALL (      38 calls)

     Parallel routines

     PWSCF        :   4m16.14s CPU   3m18.10s WALL


   This run was terminated on:  13:22: 7  12Jul2025            

=------------------------------------------------------------------------------=
   JOB DONE.
=------------------------------------------------------------------------------=
Note: The following floating-point exceptions are signalling: IEEE_INVALID_FLAG
Note: The following floating-point exceptions are signalling: IEEE_INVALID_FLAG
