Authorization required, but no authorization protocol specified

Authorization required, but no authorization protocol specified

Authorization required, but no authorization protocol specified

Authorization required, but no authorization protocol specified

Authorization required, but no authorization protocol specified

Authorization required, but no authorization protocol specified

Authorization required, but no authorization protocol specified

Authorization required, but no authorization protocol specified

Authorization required, but no authorization protocol specified

Authorization required, but no authorization protocol specified

Authorization required, but no authorization protocol specified

Authorization required, but no authorization protocol specified

Authorization required, but no authorization protocol specified

Authorization required, but no authorization protocol specified

Authorization required, but no authorization protocol specified

Authorization required, but no authorization protocol specified

Authorization required, but no authorization protocol specified

Authorization required, but no authorization protocol specified


     Program PWSCF v.7.2 starts on 12Jul2025 at 15:46:38 

     This program is part of the open-source Quantum ESPRESSO suite
     for quantum simulation of materials; please cite
         "P. Giannozzi et al., J. Phys.:Condens. Matter 21 395502 (2009);
         "P. Giannozzi et al., J. Phys.:Condens. Matter 29 465901 (2017);
         "P. Giannozzi et al., J. Chem. Phys. 152 154105 (2020);
          URL http://www.quantum-espresso.org", 
     in publications or presentations arising from this work. More details at
     http://www.quantum-espresso.org/quote

     Parallel version (MPI), running on    16 processors

     MPI processes distributed on     1 nodes
     42479 MiB available memory on the printing compute node when the environment starts

     Reading input from /home/jvc/QEspresso7.2/ZnO_database/scripts/cell211_strain10%.in/ZnO-3.34-1.71-211.in
Warning: card &CELL ignored
Warning: card / ignored
Warning: card &FCP ignored
Warning: card / ignored
Warning: card &RISM ignored
Warning: card / ignored

     Current dimensions of program PWSCF are:
     Max number of different atomic species (ntypx) = 10
     Max number of k-points (npk) =  40000
     Max angular momentum in pseudopotentials (lmaxx) =  4
     file Zn.upf: wavefunction(s)  3D renormalized
     Found identity + ( -0.5000  0.0000  0.0000) symmetry
     This is a supercell, fractional translations are disabled
     Message from routine setup:
     using ibrav=0 with symmetry is DISCOURAGED, use correct ibrav instead

     K-points division:     npool     =       2
     R & G space division:  proc/nbgrp/npool/nimage =       8
     Subspace diagonalization in iterative solution of the eigenvalue problem:
     a serial algorithm will be used


     Parallelization info
     --------------------
     sticks:   dense  smooth     PW     G-vecs:    dense   smooth      PW
     Min         274     137     41                12518     4427     765
     Max         275     138     42                12521     4429     768
     Sum        2193    1097    333               100153    35421    6135

     Using Slab Decomposition



     bravais-lattice index     =            0
     lattice parameter (alat)  =      12.6049  a.u.
     unit-cell volume          =     741.9775 (a.u.)^3
     number of atoms/cell      =            8
     number of atomic types    =            2
     number of electrons       =        72.00
     number of Kohn-Sham states=           36
     kinetic-energy cutoff     =      50.0000  Ry
     charge density cutoff     =     400.0000  Ry
     scf convergence threshold =      1.0E-08
     mixing beta               =       0.3000
     number of iterations used =            8  plain     mixing
     Exchange-correlation= PBE
                           (   1   4   3   4   0   0   0)

     celldm(1)=  12.604862  celldm(2)=   0.000000  celldm(3)=   0.000000
     celldm(4)=   0.000000  celldm(5)=   0.000000  celldm(6)=   0.000000

     crystal axes: (cart. coord. in units of alat)
               a(1) = (   1.000000   0.000000   0.000000 )  
               a(2) = (  -0.250000   0.433013   0.000000 )  
               a(3) = (   0.000000   0.000000   0.855610 )  

     reciprocal axes: (cart. coord. in units 2 pi/alat)
               b(1) = (  1.000000  0.577350 -0.000000 )  
               b(2) = (  0.000000  2.309401  0.000000 )  
               b(3) = (  0.000000 -0.000000  1.168757 )  


     PseudoPot. # 1 for Zn read from file:
     /home/jvc/QEspresso7.2/ZnO_database/pseudos/Zn.upf
     MD5 check sum: 7f56cabf9682ed8c977c2f7d0c5985c5
     Pseudo is Ultrasoft + core correction, Zval = 12.0
     Generated using &quot;atomic&quot; code by A. Dal Corso  v.6.2.2
     Using radial grid of 1201 points,  6 beta functions with: 
                l(1) =   0
                l(2) =   0
                l(3) =   1
                l(4) =   1
                l(5) =   2
                l(6) =   2
     Q(r) pseudized with 0 coefficients 


     PseudoPot. # 2 for O  read from file:
     /home/jvc/QEspresso7.2/ZnO_database/pseudos/O.upf
     MD5 check sum: 91400c9766925bcf19f520983a725ff0
     Pseudo is Ultrasoft + core correction, Zval =  6.0
     Generated using &quot;atomic&quot; code by A. Dal Corso  v.6.3MaX
     Using radial grid of 1095 points,  4 beta functions with: 
                l(1) =   0
                l(2) =   0
                l(3) =   1
                l(4) =   1
     Q(r) pseudized with 0 coefficients 


     atomic species   valence    mass     pseudopotential
        Zn            12.00    65.38000     Zn( 1.00)
        O              6.00    15.99900     O ( 1.00)

      2 Sym. Ops. (no inversion) found



   Cartesian axes

     site n.     atom                  positions (alat units)
         1           Zn  tau(   1) = (   0.0000000   0.0000000   0.0000000  )
         2           O   tau(   2) = (   0.0000000   0.2886751   0.1165061  )
         3           Zn  tau(   3) = (   0.0000000   0.2886751   0.4278050  )
         4           O   tau(   4) = (   0.0000000   0.0000000   0.5443110  )
         5           Zn  tau(   5) = (   0.5000000   0.0000000   0.0000000  )
         6           O   tau(   6) = (   0.5000000   0.2886751   0.1165061  )
         7           Zn  tau(   7) = (   0.5000000   0.2886751   0.4278050  )
         8           O   tau(   8) = (   0.5000000   0.0000000   0.5443110  )

     number of k points=    80
                       cart. coord. in units 2pi/alat
        k(    1) = (   0.0000000   0.0000000   0.0000000), wk =   0.0092593
        k(    2) = (   0.0000000   0.0000000   0.1947928), wk =   0.0185185
        k(    3) = (   0.0000000   0.0000000   0.3895856), wk =   0.0185185
        k(    4) = (   0.0000000   0.0000000  -0.5843784), wk =   0.0092593
        k(    5) = (   0.0000000   0.3849002   0.0000000), wk =   0.0370370
        k(    6) = (   0.0000000   0.3849002   0.1947928), wk =   0.0370370
        k(    7) = (   0.0000000   0.3849002   0.3895856), wk =   0.0370370
        k(    8) = (   0.0000000   0.3849002  -0.5843784), wk =   0.0370370
        k(    9) = (   0.0000000   0.7698004   0.0000000), wk =   0.0370370
        k(   10) = (   0.0000000   0.7698004   0.1947928), wk =   0.0370370
        k(   11) = (   0.0000000   0.7698004   0.3895856), wk =   0.0370370
        k(   12) = (   0.0000000   0.7698004  -0.5843784), wk =   0.0370370
        k(   13) = (   0.0000000  -1.1547005   0.0000000), wk =   0.0092593
        k(   14) = (   0.0000000  -1.1547005   0.1947928), wk =   0.0185185
        k(   15) = (   0.0000000  -1.1547005   0.3895856), wk =   0.0185185
        k(   16) = (   0.0000000  -1.1547005  -0.5843784), wk =   0.0092593
        k(   17) = (   0.1666667   0.0962250   0.0000000), wk =   0.0185185
        k(   18) = (   0.1666667   0.0962250   0.1947928), wk =   0.0185185
        k(   19) = (   0.1666667   0.0962250   0.3895856), wk =   0.0185185
        k(   20) = (   0.1666667   0.0962250  -0.5843784), wk =   0.0185185
        k(   21) = (   0.1666667   0.4811252   0.0000000), wk =   0.0370370
        k(   22) = (   0.1666667   0.4811252   0.1947928), wk =   0.0370370
        k(   23) = (   0.1666667   0.4811252   0.3895856), wk =   0.0370370
        k(   24) = (   0.1666667   0.4811252  -0.5843784), wk =   0.0370370
        k(   25) = (   0.1666667   0.8660254   0.0000000), wk =   0.0185185
        k(   26) = (   0.1666667   0.8660254   0.1947928), wk =   0.0370370
        k(   27) = (   0.1666667   0.8660254   0.3895856), wk =   0.0370370
        k(   28) = (   0.1666667   0.8660254  -0.5843784), wk =   0.0185185
        k(   29) = (   0.1666667  -1.0584755   0.0000000), wk =   0.0185185
        k(   30) = (   0.1666667  -1.0584755   0.1947928), wk =   0.0185185
        k(   31) = (   0.1666667  -1.0584755   0.3895856), wk =   0.0185185
        k(   32) = (   0.1666667  -1.0584755  -0.5843784), wk =   0.0185185
        k(   33) = (   0.1666667  -0.6735753   0.0000000), wk =   0.0370370
        k(   34) = (   0.1666667  -0.6735753   0.1947928), wk =   0.0370370
        k(   35) = (   0.1666667  -0.6735753   0.3895856), wk =   0.0370370
        k(   36) = (   0.1666667  -0.6735753  -0.5843784), wk =   0.0370370
        k(   37) = (   0.1666667  -0.2886751   0.0000000), wk =   0.0185185
        k(   38) = (   0.1666667  -0.2886751   0.1947928), wk =   0.0370370
        k(   39) = (   0.1666667  -0.2886751   0.3895856), wk =   0.0370370
        k(   40) = (   0.1666667  -0.2886751  -0.5843784), wk =   0.0185185
        k(   41) = (   0.3333333   0.1924501   0.0000000), wk =   0.0185185
        k(   42) = (   0.3333333   0.1924501   0.1947928), wk =   0.0185185
        k(   43) = (   0.3333333   0.1924501   0.3895856), wk =   0.0185185
        k(   44) = (   0.3333333   0.1924501  -0.5843784), wk =   0.0185185
        k(   45) = (   0.3333333   0.5773503   0.0000000), wk =   0.0185185
        k(   46) = (   0.3333333   0.5773503   0.1947928), wk =   0.0370370
        k(   47) = (   0.3333333   0.5773503   0.3895856), wk =   0.0370370
        k(   48) = (   0.3333333   0.5773503  -0.5843784), wk =   0.0185185
        k(   49) = (   0.3333333  -0.9622504   0.0000000), wk =   0.0185185
        k(   50) = (   0.3333333  -0.9622504   0.1947928), wk =   0.0185185
        k(   51) = (   0.3333333  -0.9622504   0.3895856), wk =   0.0185185
        k(   52) = (   0.3333333  -0.9622504  -0.5843784), wk =   0.0185185
        k(   53) = (   0.3333333  -0.5773503   0.0000000), wk =   0.0185185
        k(   54) = (   0.3333333  -0.5773503   0.1947928), wk =   0.0370370
        k(   55) = (   0.3333333  -0.5773503   0.3895856), wk =   0.0370370
        k(   56) = (   0.3333333  -0.5773503  -0.5843784), wk =   0.0185185
        k(   57) = (  -0.5000000  -0.2886751   0.0000000), wk =   0.0092593
        k(   58) = (  -0.5000000  -0.2886751   0.1947928), wk =   0.0185185
        k(   59) = (  -0.5000000  -0.2886751   0.3895856), wk =   0.0185185
        k(   60) = (  -0.5000000  -0.2886751  -0.5843784), wk =   0.0092593
        k(   61) = (  -0.5000000  -1.4433757   0.0000000), wk =   0.0092593
        k(   62) = (  -0.5000000  -1.4433757   0.1947928), wk =   0.0185185
        k(   63) = (  -0.5000000  -1.4433757   0.3895856), wk =   0.0185185
        k(   64) = (  -0.5000000  -1.4433757  -0.5843784), wk =   0.0092593
        k(   65) = (   0.3333333  -0.1924501  -0.1947928), wk =   0.0370370
        k(   66) = (   0.3333333  -0.1924501  -0.3895856), wk =   0.0370370
        k(   67) = (   0.6666667  -0.3849002  -0.1947928), wk =   0.0370370
        k(   68) = (   0.6666667  -0.3849002  -0.3895856), wk =   0.0370370
        k(   69) = (   0.1666667   0.0962250  -0.1947928), wk =   0.0185185
        k(   70) = (   0.1666667   0.0962250  -0.3895856), wk =   0.0185185
        k(   71) = (   0.5000000  -0.0962250  -0.1947928), wk =   0.0370370
        k(   72) = (   0.5000000  -0.0962250  -0.3895856), wk =   0.0370370
        k(   73) = (  -0.8333333   0.6735753  -0.1947928), wk =   0.0185185
        k(   74) = (  -0.8333333   0.6735753  -0.3895856), wk =   0.0185185
        k(   75) = (  -0.5000000   0.4811252  -0.1947928), wk =   0.0370370
        k(   76) = (  -0.5000000   0.4811252  -0.3895856), wk =   0.0370370
        k(   77) = (   0.3333333   0.1924501  -0.1947928), wk =   0.0185185
        k(   78) = (   0.3333333   0.1924501  -0.3895856), wk =   0.0185185
        k(   79) = (  -0.6666667   0.7698004  -0.1947928), wk =   0.0185185
        k(   80) = (  -0.6666667   0.7698004  -0.3895856), wk =   0.0185185

     Dense  grid:   100153 G-vectors     FFT dimensions: (  81,  45,  72)

     Smooth grid:    35421 G-vectors     FFT dimensions: (  60,  30,  50)

     Estimated max dynamical RAM per process >      43.15 MB

     Estimated total dynamical RAM >     666.02 MB

     Check: negative core charge=   -0.000002

     Initial potential from superposition of free atoms

     starting charge      71.9851, renormalised to      72.0000
     Starting wfcs are   52 randomized atomic wfcs

     total cpu time spent up to now is        4.7 secs

     Self-consistent Calculation

     iteration #  1     ecut=    50.00 Ry     beta= 0.30
     Davidson diagonalization with overlap
     ethr =  1.00E-02,  avg # of iterations =  1.6

     total cpu time spent up to now is        9.7 secs

     total energy              =    -722.88455346 Ry
     estimated scf accuracy    <       1.48718661 Ry

     iteration #  2     ecut=    50.00 Ry     beta= 0.30
     Davidson diagonalization with overlap
     ethr =  2.07E-03,  avg # of iterations =  2.0

     total cpu time spent up to now is       16.0 secs

     total energy              =    -723.11633213 Ry
     estimated scf accuracy    <       0.16839496 Ry

     iteration #  3     ecut=    50.00 Ry     beta= 0.30
     Davidson diagonalization with overlap
     ethr =  2.34E-04,  avg # of iterations =  6.9

     total cpu time spent up to now is       26.8 secs

     total energy              =    -723.15338613 Ry
     estimated scf accuracy    <       0.16390072 Ry

     iteration #  4     ecut=    50.00 Ry     beta= 0.30
     Davidson diagonalization with overlap
     ethr =  2.28E-04,  avg # of iterations =  9.3

     total cpu time spent up to now is       41.0 secs

     total energy              =    -723.28991091 Ry
     estimated scf accuracy    <       0.80720266 Ry

     iteration #  5     ecut=    50.00 Ry     beta= 0.30
     Davidson diagonalization with overlap
     ethr =  2.28E-04,  avg # of iterations =  2.0

     total cpu time spent up to now is       46.3 secs

     total energy              =    -723.37143721 Ry
     estimated scf accuracy    <       0.50956054 Ry

     iteration #  6     ecut=    50.00 Ry     beta= 0.30
     Davidson diagonalization with overlap
     ethr =  2.28E-04,  avg # of iterations =  1.0

     total cpu time spent up to now is       51.1 secs

     total energy              =    -723.34326742 Ry
     estimated scf accuracy    <       0.62131959 Ry

     iteration #  7     ecut=    50.00 Ry     beta= 0.30
     Davidson diagonalization with overlap
     ethr =  2.28E-04,  avg # of iterations =  1.0

     total cpu time spent up to now is       55.9 secs

     total energy              =    -722.91382367 Ry
     estimated scf accuracy    <       0.54815487 Ry

     iteration #  8     ecut=    50.00 Ry     beta= 0.30
     Davidson diagonalization with overlap
     ethr =  2.28E-04,  avg # of iterations = 10.2

     total cpu time spent up to now is       69.6 secs

     total energy              =    -723.27650000 Ry
     estimated scf accuracy    <       1.50914642 Ry

     iteration #  9     ecut=    50.00 Ry     beta= 0.30
     Davidson diagonalization with overlap
     ethr =  2.28E-04,  avg # of iterations =  5.3

     total cpu time spent up to now is       77.2 secs

     total energy              =    -723.35012273 Ry
     estimated scf accuracy    <       0.56280539 Ry

     iteration # 10     ecut=    50.00 Ry     beta= 0.30
     Davidson diagonalization with overlap
     ethr =  2.28E-04,  avg # of iterations =  1.2

     total cpu time spent up to now is       82.1 secs

     total energy              =    -723.38146123 Ry
     estimated scf accuracy    <       0.58567509 Ry

     iteration # 11     ecut=    50.00 Ry     beta= 0.30
     Davidson diagonalization with overlap
     ethr =  2.28E-04,  avg # of iterations =  1.0

     total cpu time spent up to now is       87.0 secs

     total energy              =    -723.38342059 Ry
     estimated scf accuracy    <       0.66978591 Ry

     iteration # 12     ecut=    50.00 Ry     beta= 0.30
     Davidson diagonalization with overlap
     ethr =  2.28E-04,  avg # of iterations =  1.0

     total cpu time spent up to now is       91.8 secs

     total energy              =    -723.37326920 Ry
     estimated scf accuracy    <       0.66343939 Ry

     iteration # 13     ecut=    50.00 Ry     beta= 0.30
     Davidson diagonalization with overlap
     ethr =  2.28E-04,  avg # of iterations =  1.0

     total cpu time spent up to now is       96.6 secs

     total energy              =    -724.32123159 Ry
     estimated scf accuracy    <       0.63452147 Ry

     iteration # 14     ecut=    50.00 Ry     beta= 0.30
     Davidson diagonalization with overlap
     ethr =  2.28E-04,  avg # of iterations = 10.5

     total cpu time spent up to now is      108.8 secs

     total energy              =    -721.66712295 Ry
     estimated scf accuracy    <       6.70869703 Ry

     iteration # 15     ecut=    50.00 Ry     beta= 0.30
     Davidson diagonalization with overlap
     ethr =  2.28E-04,  avg # of iterations = 13.4

     total cpu time spent up to now is      129.0 secs

     total energy              =    -723.23049847 Ry
     estimated scf accuracy    <       0.27701537 Ry

     iteration # 16     ecut=    50.00 Ry     beta= 0.30
     Davidson diagonalization with overlap
     ethr =  2.28E-04,  avg # of iterations =  1.7

     total cpu time spent up to now is      134.1 secs

     total energy              =    -723.21463166 Ry
     estimated scf accuracy    <       0.13384040 Ry

     iteration # 17     ecut=    50.00 Ry     beta= 0.30
     Davidson diagonalization with overlap
     ethr =  1.86E-04,  avg # of iterations =  2.0

     total cpu time spent up to now is      139.9 secs

     total energy              =    -723.22918664 Ry
     estimated scf accuracy    <       0.03995669 Ry

     iteration # 18     ecut=    50.00 Ry     beta= 0.30
     Davidson diagonalization with overlap
     ethr =  5.55E-05,  avg # of iterations =  3.7

     total cpu time spent up to now is      146.1 secs

     total energy              =    -723.22200382 Ry
     estimated scf accuracy    <       0.02372160 Ry

     iteration # 19     ecut=    50.00 Ry     beta= 0.30
     Davidson diagonalization with overlap
     ethr =  3.29E-05,  avg # of iterations =  6.2

     total cpu time spent up to now is      155.6 secs

     total energy              =    -723.23878521 Ry
     estimated scf accuracy    <       0.00790256 Ry

     iteration # 20     ecut=    50.00 Ry     beta= 0.30
     Davidson diagonalization with overlap
     ethr =  1.10E-05,  avg # of iterations =  2.9

     total cpu time spent up to now is      161.3 secs

     total energy              =    -723.23610316 Ry
     estimated scf accuracy    <       0.01235349 Ry

     iteration # 21     ecut=    50.00 Ry     beta= 0.30
     Davidson diagonalization with overlap
     ethr =  1.10E-05,  avg # of iterations =  1.2

     total cpu time spent up to now is      166.2 secs

     total energy              =    -723.23387705 Ry
     estimated scf accuracy    <       0.00704023 Ry

     iteration # 22     ecut=    50.00 Ry     beta= 0.30
     Davidson diagonalization with overlap
     ethr =  9.78E-06,  avg # of iterations =  2.2

     total cpu time spent up to now is      172.0 secs

     total energy              =    -723.23439806 Ry
     estimated scf accuracy    <       0.00184732 Ry

     iteration # 23     ecut=    50.00 Ry     beta= 0.30
     Davidson diagonalization with overlap
     ethr =  2.57E-06,  avg # of iterations =  5.2

     total cpu time spent up to now is      180.2 secs

     total energy              =    -723.23519880 Ry
     estimated scf accuracy    <       0.00008224 Ry

     iteration # 24     ecut=    50.00 Ry     beta= 0.30
     Davidson diagonalization with overlap
     ethr =  1.14E-07,  avg # of iterations = 10.9

     total cpu time spent up to now is      195.7 secs

     total energy              =    -723.23577033 Ry
     estimated scf accuracy    <       0.00126293 Ry

     iteration # 25     ecut=    50.00 Ry     beta= 0.30
     Davidson diagonalization with overlap
     ethr =  1.14E-07,  avg # of iterations =  5.3

     total cpu time spent up to now is      203.7 secs

     total energy              =    -723.23725693 Ry
     estimated scf accuracy    <       0.00218897 Ry

     iteration # 26     ecut=    50.00 Ry     beta= 0.30
     Davidson diagonalization with overlap
     c_bands:  1 eigenvalues not converged
     ethr =  1.14E-07,  avg # of iterations = 12.1

     total cpu time spent up to now is      221.3 secs

     total energy              =    -723.23474477 Ry
     estimated scf accuracy    <       0.01067239 Ry

     iteration # 27     ecut=    50.00 Ry     beta= 0.30
     Davidson diagonalization with overlap
     ethr =  1.14E-07,  avg # of iterations = 12.2

     total cpu time spent up to now is      239.6 secs

     total energy              =    -723.23520788 Ry
     estimated scf accuracy    <       0.00126936 Ry

     iteration # 28     ecut=    50.00 Ry     beta= 0.30
     Davidson diagonalization with overlap
     ethr =  1.14E-07,  avg # of iterations =  7.1

     total cpu time spent up to now is      250.6 secs

     total energy              =    -723.23523957 Ry
     estimated scf accuracy    <       0.00021997 Ry

     iteration # 29     ecut=    50.00 Ry     beta= 0.30
     Davidson diagonalization with overlap
     ethr =  1.14E-07,  avg # of iterations =  3.4

     total cpu time spent up to now is      256.8 secs

     total energy              =    -723.23521979 Ry
     estimated scf accuracy    <       0.00009927 Ry

     iteration # 30     ecut=    50.00 Ry     beta= 0.30
     Davidson diagonalization with overlap
     ethr =  1.14E-07,  avg # of iterations =  5.1

     total cpu time spent up to now is      264.4 secs

     total energy              =    -723.23524678 Ry
     estimated scf accuracy    <       0.00000071 Ry

     iteration # 31     ecut=    50.00 Ry     beta= 0.30
     Davidson diagonalization with overlap
     c_bands:  1 eigenvalues not converged
     c_bands:  1 eigenvalues not converged
     ethr =  9.80E-10,  avg # of iterations = 11.7

     total cpu time spent up to now is      281.0 secs

     total energy              =    -723.23524870 Ry
     estimated scf accuracy    <       0.00001148 Ry

     iteration # 32     ecut=    50.00 Ry     beta= 0.30
     Davidson diagonalization with overlap
     ethr =  9.80E-10,  avg # of iterations =  9.0

     total cpu time spent up to now is      294.4 secs

     total energy              =    -723.23525040 Ry
     estimated scf accuracy    <       0.00000056 Ry

     iteration # 33     ecut=    50.00 Ry     beta= 0.30
     Davidson diagonalization with overlap
     ethr =  7.81E-10,  avg # of iterations =  2.1

     total cpu time spent up to now is      300.2 secs

     total energy              =    -723.23525029 Ry
     estimated scf accuracy    <       0.00000148 Ry

     iteration # 34     ecut=    50.00 Ry     beta= 0.30
     Davidson diagonalization with overlap
     ethr =  7.81E-10,  avg # of iterations =  1.1

     total cpu time spent up to now is      305.1 secs

     total energy              =    -723.23524993 Ry
     estimated scf accuracy    <       0.00000137 Ry

     iteration # 35     ecut=    50.00 Ry     beta= 0.30
     Davidson diagonalization with overlap
     ethr =  7.81E-10,  avg # of iterations =  2.0

     total cpu time spent up to now is      310.4 secs

     total energy              =    -723.23524959 Ry
     estimated scf accuracy    <       0.00000070 Ry

     iteration # 36     ecut=    50.00 Ry     beta= 0.30
     Davidson diagonalization with overlap
     ethr =  7.81E-10,  avg # of iterations =  5.7

     total cpu time spent up to now is      319.9 secs

     total energy              =    -723.23524992 Ry
     estimated scf accuracy    <       0.00000022 Ry

     iteration # 37     ecut=    50.00 Ry     beta= 0.30
     Davidson diagonalization with overlap
     ethr =  2.99E-10,  avg # of iterations =  1.4

     total cpu time spent up to now is      324.9 secs

     total energy              =    -723.23524982 Ry
     estimated scf accuracy    <       0.00000014 Ry

     iteration # 38     ecut=    50.00 Ry     beta= 0.30
     Davidson diagonalization with overlap
     ethr =  1.89E-10,  avg # of iterations =  7.2

     total cpu time spent up to now is      336.6 secs

     total energy              =    -723.23524993 Ry
     estimated scf accuracy    <       0.00000036 Ry

     iteration # 39     ecut=    50.00 Ry     beta= 0.30
     Davidson diagonalization with overlap
     ethr =  1.89E-10,  avg # of iterations =  1.0

     total cpu time spent up to now is      341.4 secs

     total energy              =    -723.23524985 Ry
     estimated scf accuracy    <       0.00000023 Ry

     iteration # 40     ecut=    50.00 Ry     beta= 0.30
     Davidson diagonalization with overlap
     ethr =  1.89E-10,  avg # of iterations =  4.1

     total cpu time spent up to now is      349.3 secs

     End of self-consistent calculation

          k = 0.0000 0.0000 0.0000 (  4427 PWs)   bands (ev):

   -11.7621 -11.2926 -11.2424 -11.1003   0.0534   0.0548   0.1776   0.1779
     0.2736   0.3192   0.3397   0.3398   0.3940   0.4843   0.7499   0.8236
     0.9356   0.9357   1.0010   1.0684   1.0685   1.0703   1.1041   1.1733
     1.3001   1.6476   2.2945   2.8179   3.6293   4.0842   4.7059   4.7065
     4.7304   5.1464   5.3187   5.3193

          k = 0.0000 0.0000 0.1948 (  4408 PWs)   bands (ev):

   -11.7320 -11.3255 -11.2322 -11.1091   0.0312   0.0337   0.1858   0.1861
     0.2054   0.2499   0.3258   0.3260   0.3428   0.4993   0.7155   0.7922
     0.9472   0.9472   1.0197   1.0622   1.0622   1.0711   1.0982   1.1718
     1.6000   1.6479   2.2024   3.0370   3.7093   4.1496   4.5416   4.6598
     4.7476   4.7482   5.2783   5.2789

          k = 0.0000 0.0000 0.3896 (  4414 PWs)   bands (ev):

   -11.6489 -11.4144 -11.2048 -11.1337  -0.0083  -0.0041   0.0693   0.0782
     0.2092   0.2094   0.2895   0.2897   0.4112   0.5415   0.6253   0.7000
     0.9755   0.9756   1.0422   1.0422   1.0739   1.0822   1.0876   1.1634
     1.6979   2.0098   2.2224   3.5131   3.7435   3.9207   4.1826   4.4661
     4.8610   4.8616   5.1673   5.1679

          k = 0.0000 0.0000-0.5844 (  4436 PWs)   bands (ev):

   -11.5331 -11.5331 -11.1685 -11.1685  -0.0101  -0.0100  -0.0037  -0.0037
     0.2461   0.2461   0.2463   0.2463   0.5125   0.5125   0.6085   0.6085
     1.0108   1.0108   1.0108   1.0108   1.0791   1.0791   1.1363   1.1363
     1.8246   1.8246   2.9603   2.9603   3.9642   3.9642   4.1976   4.1976
     5.0147   5.0147   5.0153   5.0153

          k = 0.0000 0.3849 0.0000 (  4409 PWs)   bands (ev):

   -11.6479 -11.2475 -11.2346 -11.0979   0.0911   0.0947   0.1231   0.2305
     0.3310   0.3416   0.3470   0.4316   0.5928   0.6012   0.6815   0.7590
     0.8923   0.9247   0.9381   0.9718   1.0735   1.1307   1.1711   1.2903
     1.2956   1.8103   2.3238   2.9129   3.2116   3.8311   4.1452   4.2146
     4.4262   4.4431   5.0084   5.1820

          k = 0.0000 0.3849 0.1948 (  4418 PWs)   bands (ev):

   -11.6211 -11.2632 -11.2368 -11.1072   0.0446   0.0932   0.1515   0.2411
     0.2615   0.2995   0.3659   0.4148   0.4442   0.5735   0.6594   0.7123
     0.9103   0.9251   0.9479   1.0090   1.0654   1.0957   1.1326   1.2745
     1.6750   1.8138   2.3243   3.0312   3.3326   3.8186   4.1131   4.1840
     4.3542   4.4938   4.9167   5.1333

          k = 0.0000 0.3849 0.3896 (  4432 PWs)   bands (ev):

   -11.5473 -11.3406 -11.2081 -11.1332  -0.0051   0.0790   0.0902   0.1663
     0.2430   0.2721   0.3402   0.3668   0.3719   0.5377   0.6024   0.6456
     0.9516   0.9682   0.9746   1.0307   1.0425   1.0513   1.1430   1.2220
     1.8932   2.2103   2.2959   3.3419   3.5005   3.6669   4.0572   4.1688
     4.2762   4.6311   4.6867   4.9998

          k = 0.0000 0.3849-0.5844 (  4438 PWs)   bands (ev):

   -11.4449 -11.4448 -11.1699 -11.1699  -0.0015  -0.0015   0.0899   0.0899
     0.2828   0.2828   0.3189   0.3189   0.4395   0.4395   0.6088   0.6088
     1.0028   1.0029   1.0094   1.0094   1.0140   1.0140   1.1718   1.1718
     2.0417   2.0417   2.9393   2.9394   3.6897   3.6898   4.0889   4.0889
     4.4067   4.4067   4.8164   4.8164

          k = 0.0000 0.7698 0.0000 (  4429 PWs)   bands (ev):

   -11.3963 -11.2475 -11.1305 -11.0979   0.0102   0.0948   0.1966   0.3025
     0.3309   0.3470   0.5117   0.6012   0.6382   0.6816   0.6970   0.7589
     0.9197   0.9247   0.9719   1.0007   1.0869   1.1307   1.2541   1.2956
     1.6946   1.8104   2.3238   2.4305   2.9130   3.2113   3.2323   3.9112
     4.1452   4.4260   4.5400   4.8873

          k = 0.0000 0.7698 0.1948 (  4436 PWs)   bands (ev):

   -11.3783 -11.2368 -11.1481 -11.1072  -0.0094   0.0933   0.1693   0.2615
     0.3215   0.3658   0.4952   0.5736   0.6118   0.6174   0.6594   0.7122
     0.9196   0.9251   1.0053   1.0091   1.0788   1.1326   1.1773   1.2745
     1.8140   1.8954   2.3244   2.5338   3.0313   3.2184   3.3323   3.9801
     4.1840   4.3540   4.5222   4.8238

          k = 0.0000 0.7698 0.3896 (  4437 PWs)   bands (ev):

   -11.3293 -11.2081 -11.1963 -11.1332  -0.0367   0.0764   0.0791   0.1663
     0.3667   0.3758   0.4640   0.5172   0.5378   0.5430   0.6024   0.6456
     0.9593   0.9682   1.0186   1.0307   1.0599   1.0955   1.1430   1.2221
     1.8934   2.1678   2.2104   2.5823   3.3418   3.4484   3.6667   4.0571
     4.1646   4.2762   4.3568   4.6499

          k = 0.0000 0.7698-0.5844 (  4430 PWs)   bands (ev):

   -11.2627 -11.2626 -11.1699 -11.1699  -0.0151  -0.0151   0.0899   0.0899
     0.4394   0.4394   0.4558   0.4558   0.4708   0.4708   0.6088   0.6088
     1.0140   1.0140   1.0235   1.0235   1.0380   1.0380   1.1718   1.1718
     2.0418   2.0419   2.4050   2.4050   3.6896   3.6896   3.9508   3.9508
     4.0888   4.0888   4.4098   4.4098

          k = 0.0000-1.1547 0.0000 (  4424 PWs)   bands (ev):

   -11.2424 -11.2424 -11.1003 -11.1003   0.0549   0.0549   0.2737   0.2737
     0.3190   0.3190   0.4844   0.4844   0.7498   0.7498   0.8237   0.8237
     1.0011   1.0011   1.0704   1.0704   1.1041   1.1041   1.1734   1.1734
     1.6479   1.6479   2.2947   2.2947   2.8179   2.8179   3.6289   3.6289
     4.0842   4.0842   4.7300   4.7300

          k = 0.0000-1.1547 0.1948 (  4448 PWs)   bands (ev):

   -11.2322 -11.2322 -11.1091 -11.1091   0.0312   0.0312   0.2055   0.2055
     0.3426   0.3426   0.4994   0.4994   0.7153   0.7153   0.7923   0.7923
     1.0198   1.0198   1.0712   1.0712   1.0983   1.0983   1.1719   1.1719
     1.6481   1.6481   2.2026   2.2026   3.0370   3.0370   3.7089   3.7089
     4.1496   4.1496   4.6593   4.6593

          k = 0.0000-1.1547 0.3896 (  4424 PWs)   bands (ev):

   -11.2048 -11.2048 -11.1337 -11.1337  -0.0082  -0.0082   0.0783   0.0783
     0.4110   0.4110   0.5416   0.5416   0.6252   0.6252   0.7001   0.7001
     1.0740   1.0740   1.0822   1.0822   1.0876   1.0876   1.1634   1.1634
     1.6980   1.6980   2.0100   2.0100   3.5132   3.5132   3.9203   3.9204
     4.1826   4.1826   4.4657   4.4657

          k = 0.0000-1.1547-0.5844 (  4432 PWs)   bands (ev):

   -11.1685 -11.1685 -11.1685 -11.1685  -0.0036  -0.0036  -0.0036  -0.0036
     0.5123   0.5123   0.5123   0.5123   0.6086   0.6086   0.6086   0.6086
     1.0791   1.0791   1.0791   1.0791   1.1364   1.1364   1.1364   1.1364
     1.8248   1.8248   1.8248   1.8248   3.9643   3.9643   3.9643   3.9643
     4.1972   4.1972   4.1972   4.1972

          k = 0.1667 0.0962 0.0000 (  4393 PWs)   bands (ev):

   -11.7320 -11.2880 -11.2769 -11.1044   0.0355   0.0730   0.1535   0.1931
     0.2308   0.3161   0.3375   0.3642   0.4485   0.5573   0.7199   0.7202
     0.9243   0.9349   0.9502   1.0482   1.0701   1.0924   1.0982   1.2627
     1.2954   1.7616   2.1976   2.9163   3.7068   4.2379   4.4667   4.6357
     4.7733   4.7861   5.1170   5.2835

          k = 0.1667 0.0962 0.1948 (  4409 PWs)   bands (ev):

   -11.7028 -11.3087 -11.2752 -11.1161   0.0134   0.0446   0.1695   0.1858
     0.2015   0.2706   0.3385   0.3462   0.3492   0.5424   0.6871   0.6882
     0.9366   0.9456   0.9725   1.0502   1.0630   1.0709   1.0917   1.2205
     1.6169   1.7618   2.2685   3.0305   3.7836   4.2771   4.3698   4.5386
     4.6799   4.7046   5.1081   5.2407

          k = 0.1667 0.0962 0.3896 (  4419 PWs)   bands (ev):

   -11.6221 -11.3946 -11.2405 -11.1486  -0.0210  -0.0002   0.0762   0.0813
     0.2087   0.2267   0.2982   0.3116   0.4029   0.5383   0.6041   0.6243
     0.9683   0.9741   1.0227   1.0420   1.0440   1.0560   1.0784   1.1470
     1.8514   2.1894   2.2441   3.4608   3.6985   3.9874   4.2434   4.5162
     4.6496   4.7998   4.9928   5.1235

          k = 0.1667 0.0962-0.5844 (  4412 PWs)   bands (ev):

   -11.5096 -11.5096 -11.1939 -11.1939  -0.0089  -0.0089  -0.0047  -0.0047
     0.2508   0.2508   0.2662   0.2662   0.4986   0.4986   0.5690   0.5690
     1.0083   1.0083   1.0099   1.0099   1.0657   1.0657   1.0819   1.0819
     2.0127   2.0127   2.9644   2.9644   3.9527   3.9527   4.2554   4.2554
     4.8207   4.8208   4.9623   4.9623

          k = 0.1667 0.4811 0.0000 (  4420 PWs)   bands (ev):

   -11.5724 -11.3464 -11.1992 -11.1151   0.0736   0.1167   0.1653   0.2123
     0.2231   0.2949   0.3651   0.4942   0.5007   0.6643   0.6937   0.7741
     0.8739   0.8793   0.9419   0.9518   1.0753   1.0994   1.2278   1.2877
     1.3400   1.7824   2.6009   2.9698   3.4611   3.5132   3.7455   4.2971
     4.4638   4.5875   4.8999   5.0463

          k = 0.1667 0.4811 0.1948 (  4420 PWs)   bands (ev):

   -11.5480 -11.3306 -11.2247 -11.1302   0.0387   0.0989   0.1742   0.1766
     0.2302   0.3284   0.3400   0.4758   0.4799   0.5304   0.6310   0.6637
     0.8785   0.8940   0.9558   1.0035   1.0668   1.0957   1.1204   1.2299
     1.7430   1.9252   2.6355   3.0776   3.4701   3.5544   3.7198   4.3200
     4.4591   4.5168   4.8191   4.9915

          k = 0.1667 0.4811 0.3896 (  4429 PWs)   bands (ev):

   -11.4808 -11.2941 -11.2875 -11.1718  -0.0066   0.0553   0.0962   0.1205
     0.2607   0.3177   0.3725   0.3931   0.4288   0.4387   0.5323   0.5630
     0.9395   0.9425   0.9810   1.0304   1.0438   1.0626   1.0889   1.1465
     2.1524   2.3247   2.5534   3.2751   3.4785   3.7246   3.8598   4.2799
     4.3830   4.4248   4.5745   4.8417

          k = 0.1667 0.4811-0.5844 (  4426 PWs)   bands (ev):

   -11.3880 -11.3880 -11.2293 -11.2293   0.0026   0.0026   0.0568   0.0568
     0.3068   0.3068   0.3763   0.3763   0.4211   0.4211   0.4999   0.4999
     1.0020   1.0020   1.0103   1.0103   1.0140   1.0140   1.0930   1.0930
     2.3675   2.3675   2.8639   2.8639   3.8933   3.8933   4.1124   4.1124
     4.1864   4.1864   4.6408   4.6408

          k = 0.1667 0.8660 0.0000 (  4438 PWs)   bands (ev):

   -11.3252 -11.3252 -11.1108 -11.1108   0.0490   0.0490   0.2301   0.2301
     0.3022   0.3022   0.5865   0.5865   0.6406   0.6406   0.7160   0.7160
     0.9325   0.9325   1.0023   1.0023   1.0979   1.0979   1.2789   1.2789
     1.8117   1.8117   2.2767   2.2767   3.0279   3.0279   3.6440   3.6440
     4.3704   4.3704   4.7211   4.7211

          k = 0.1667 0.8660 0.1948 (  4440 PWs)   bands (ev):

   -11.3104 -11.3104 -11.1247 -11.1247   0.0291   0.0291   0.1930   0.1930
     0.3260   0.3260   0.5655   0.5655   0.6019   0.6019   0.6704   0.6704
     0.9329   0.9329   1.0211   1.0211   1.0928   1.0928   1.2236   1.2236
     1.8726   1.8726   2.3904   2.3904   3.0819   3.0819   3.7188   3.7188
     4.3852   4.3852   4.6510   4.6510

          k = 0.1667 0.8660 0.3896 (  4424 PWs)   bands (ev):

   -11.2703 -11.2703 -11.1630 -11.1630  -0.0023  -0.0023   0.0976   0.0976
     0.3819   0.3819   0.5183   0.5183   0.5586   0.5587   0.5796   0.5796
     0.9725   0.9725   1.0380   1.0380   1.0829   1.0829   1.1404   1.1404
     2.0178   2.0178   2.3758   2.3758   3.4426   3.4426   3.9211   3.9211
     4.2921   4.2921   4.4689   4.4689

          k = 0.1667 0.8660-0.5844 (  4428 PWs)   bands (ev):

   -11.2162 -11.2162 -11.2162 -11.2162   0.0126   0.0126   0.0126   0.0126
     0.4664   0.4664   0.4664   0.4664   0.5304   0.5304   0.5305   0.5305
     1.0260   1.0260   1.0260   1.0260   1.0860   1.0860   1.0860   1.0860
     2.2031   2.2031   2.2031   2.2031   3.9299   3.9299   3.9299   3.9299
     4.2182   4.2182   4.2182   4.2182

          k = 0.1667-1.0585 0.0000 (  4440 PWs)   bands (ev):

   -11.2441 -11.2441 -11.0995 -11.0995   0.0663   0.0663   0.3005   0.3005
     0.3156   0.3156   0.5370   0.5370   0.7335   0.7335   0.7789   0.7789
     0.9548   0.9548   1.0438   1.0438   1.1221   1.1221   1.2278   1.2278
     1.7044   1.7044   2.2846   2.2846   2.8502   2.8502   3.5088   3.5088
     4.0964   4.0964   4.6323   4.6323

          k = 0.1667-1.0585 0.1948 (  4444 PWs)   bands (ev):

   -11.2338 -11.2338 -11.1085 -11.1085   0.0481   0.0481   0.2364   0.2364
     0.3321   0.3321   0.5399   0.5399   0.7073   0.7073   0.7399   0.7399
     0.9809   0.9809   1.0467   1.0467   1.1212   1.1212   1.2153   1.2153
     1.6982   1.6982   2.2353   2.2353   3.0341   3.0341   3.5971   3.5971
     4.1570   4.1570   4.5581   4.5581

          k = 0.1667-1.0585 0.3896 (  4440 PWs)   bands (ev):

   -11.2059 -11.2059 -11.1335 -11.1335   0.0153   0.0153   0.1104   0.1104
     0.3872   0.3872   0.5668   0.5668   0.6096   0.6096   0.6746   0.6746
     1.0263   1.0263   1.0520   1.0520   1.1275   1.1275   1.1868   1.1868
     1.7542   1.7542   2.0728   2.0728   3.4734   3.4734   3.8322   3.8322
     4.1671   4.1671   4.3720   4.3720

          k = 0.1667-1.0585-0.5844 (  4440 PWs)   bands (ev):

   -11.1690 -11.1690 -11.1690 -11.1690   0.0245   0.0245   0.0245   0.0245
     0.4860   0.4860   0.4860   0.4860   0.6155   0.6155   0.6155   0.6155
     1.0484   1.0484   1.0484   1.0484   1.1538   1.1538   1.1538   1.1538
     1.8913   1.8913   1.8913   1.8913   3.9026   3.9026   3.9026   3.9026
     4.1363   4.1363   4.1363   4.1363

          k = 0.1667-0.6736 0.0000 (  4454 PWs)   bands (ev):

   -11.4462 -11.1779 -11.1473 -11.1013   0.0428   0.0864   0.1973   0.2668
     0.4033   0.4461   0.5112   0.5957   0.6303   0.7373   0.7431   0.8160
     0.8846   0.8907   0.9557   0.9678   1.0829   1.1641   1.2463   1.2482
     1.5808   1.8899   2.2396   2.5516   2.7722   3.2808   3.3472   3.8847
     3.9460   4.1234   4.6699   4.8728

          k = 0.1667-0.6736 0.1948 (  4432 PWs)   bands (ev):

   -11.4262 -11.1720 -11.1673 -11.1056   0.0198   0.1077   0.1756   0.2891
     0.3466   0.4285   0.4409   0.5716   0.6186   0.6256   0.6989   0.7925
     0.8886   0.9103   0.9783   0.9868   1.0753   1.1642   1.1775   1.2649
     1.8647   1.8699   2.1990   2.6413   2.8343   3.3336   3.4491   3.9360
     3.9964   4.0632   4.6289   4.8100

          k = 0.1667-0.6736 0.3896 (  4441 PWs)   bands (ev):

   -11.3715 -11.2220 -11.1562 -11.1179  -0.0138   0.0926   0.1551   0.2549
     0.3363   0.3380   0.4020   0.4764   0.5123   0.5126   0.7018   0.7556
     0.9400   0.9489   0.9898   1.0073   1.0563   1.0879   1.2152   1.2822
     1.8643   2.0731   2.2737   2.8164   2.9249   3.5248   3.6600   3.8502
     4.1478   4.1527   4.4241   4.6393

          k = 0.1667-0.6736-0.5844 (  4438 PWs)   bands (ev):

   -11.2968 -11.2967 -11.1362 -11.1362   0.0033   0.0033   0.1883   0.1883
     0.3782   0.3782   0.3922   0.3922   0.4470   0.4470   0.7256   0.7256
     0.9776   0.9776   1.0077   1.0077   1.0365   1.0365   1.2599   1.2599
     1.9428   1.9428   2.5922   2.5923   3.3070   3.3071   3.9872   3.9872
     4.1032   4.1032   4.4056   4.4056

          k = 0.1667-0.2887 0.0000 (  4406 PWs)   bands (ev):

   -11.6750 -11.2479 -11.2038 -11.0987   0.0869   0.1090   0.1211   0.2046
     0.3390   0.3410   0.4100   0.4419   0.5496   0.5830   0.7369   0.7689
     0.9049   0.9245   0.9333   1.0065   1.0719   1.1454   1.1844   1.1908
     1.2899   1.7662   2.3095   2.7601   3.2985   3.9401   4.1128   4.2082
     4.3685   4.5760   5.0462   5.1973

          k = 0.1667-0.2887 0.1948 (  4410 PWs)   bands (ev):

   -11.6473 -11.2775 -11.1960 -11.1049   0.0534   0.0890   0.1675   0.2025
     0.2972   0.3259   0.3519   0.3942   0.4116   0.6018   0.6990   0.7443
     0.9195   0.9452   0.9581   1.0094   1.0640   1.0887   1.1918   1.2005
     1.6548   1.7485   2.2240   2.9107   3.4400   4.0067   4.0497   4.1666
     4.2941   4.5678   4.9703   5.1500

          k = 0.1667-0.2887 0.3896 (  4425 PWs)   bands (ev):

   -11.5712 -11.3577 -11.1751 -11.1225   0.0011   0.0849   0.0939   0.2000
     0.2145   0.2630   0.3247   0.3432   0.3538   0.5720   0.6376   0.7126
     0.9572   0.9731   0.9998   1.0141   1.0415   1.0497   1.2089   1.2197
     1.7703   2.0474   2.2815   3.2365   3.5795   3.7794   3.9331   4.2174
     4.3175   4.6546   4.7916   5.0210

          k = 0.1667-0.2887-0.5844 (  4422 PWs)   bands (ev):

   -11.4655 -11.4655 -11.1480 -11.1480   0.0008   0.0008   0.1047   0.1047
     0.2632   0.2632   0.3070   0.3070   0.4356   0.4356   0.6757   0.6757
     1.0044   1.0044   1.0091   1.0091   1.0140   1.0140   1.2232   1.2232
     1.8791   1.8791   2.9553   2.9553   3.6068   3.6068   4.0962   4.0962
     4.5331   4.5331   4.8478   4.8478

          k = 0.3333 0.1925 0.0000 (  4400 PWs)   bands (ev):

   -11.6479 -11.3963 -11.2346 -11.1305   0.0101   0.0909   0.1231   0.1966
     0.2307   0.3027   0.3415   0.4317   0.5116   0.5928   0.6383   0.6970
     0.8923   0.9196   0.9380   1.0006   1.0735   1.0869   1.1710   1.2540
     1.2903   1.6945   2.4303   3.2321   3.8307   3.9115   4.2143   4.4435
     4.5400   4.8877   5.0084   5.1824

          k = 0.3333 0.1925 0.1948 (  4418 PWs)   bands (ev):

   -11.6211 -11.3783 -11.2632 -11.1481  -0.0095   0.0445   0.1514   0.1692
     0.2413   0.2994   0.3217   0.4150   0.4441   0.4951   0.6120   0.6173
     0.9103   0.9195   0.9479   1.0053   1.0654   1.0788   1.0956   1.1772
     1.6750   1.8953   2.5335   3.2182   3.8184   3.9805   4.1128   4.4942
     4.5222   4.8242   4.9166   5.1337

          k = 0.3333 0.1925 0.3896 (  4425 PWs)   bands (ev):

   -11.5473 -11.3406 -11.3293 -11.1963  -0.0368  -0.0051   0.0763   0.0902
     0.2429   0.2723   0.3401   0.3720   0.3760   0.4639   0.5171   0.5431
     0.9517   0.9592   0.9746   1.0186   1.0425   1.0513   1.0599   1.0954
     2.1677   2.2959   2.5821   3.4483   3.5004   4.1650   4.1685   4.3568
     4.6315   4.6503   4.6864   5.0003

          k = 0.3333 0.1925-0.5844 (  4432 PWs)   bands (ev):

   -11.4449 -11.4448 -11.2627 -11.2626  -0.0152  -0.0152  -0.0016  -0.0015
     0.2826   0.2826   0.3190   0.3191   0.4559   0.4559   0.4707   0.4707
     1.0028   1.0029   1.0094   1.0094   1.0235   1.0235   1.0379   1.0379
     2.4048   2.4048   2.9393   2.9393   3.9507   3.9507   4.4064   4.4064
     4.4102   4.4102   4.8168   4.8168

          k = 0.3333 0.5774 0.0000 (  4426 PWs)   bands (ev):

   -11.4641 -11.4641 -11.1537 -11.1537   0.1003   0.1003   0.1797   0.1797
     0.2327   0.2327   0.4188   0.4188   0.5825   0.5825   0.7720   0.7720
     0.8533   0.8533   0.9526   0.9526   1.0813   1.0813   1.2488   1.2488
     1.5464   1.5464   3.1384   3.1384   3.1564   3.1564   3.9617   3.9617
     4.7210   4.7210   4.8178   4.8178

          k = 0.3333 0.5774 0.1948 (  4432 PWs)   bands (ev):

   -11.4434 -11.4434 -11.1746 -11.1746   0.0638   0.0638   0.1706   0.1706
     0.2587   0.2587   0.4007   0.4007   0.5603   0.5603   0.6105   0.6105
     0.8763   0.8763   0.9806   0.9806   1.0737   1.0737   1.1636   1.1636
     1.8576   1.8576   3.1079   3.1079   3.2485   3.2485   3.9802   3.9802
     4.6770   4.6770   4.7505   4.7505

          k = 0.3333 0.5774 0.3896 (  4424 PWs)   bands (ev):

   -11.3868 -11.3868 -11.2315 -11.2315   0.0153   0.0153   0.1053   0.1053
     0.3037   0.3037   0.3741   0.3741   0.4569   0.4569   0.5031   0.5031
     0.9351   0.9351   1.0049   1.0049   1.0556   1.0556   1.0887   1.0887
     2.3083   2.3083   2.9426   2.9426   3.5764   3.5764   4.0918   4.0918
     4.4722   4.4722   4.5701   4.5701

          k = 0.3333 0.5774-0.5844 (  4436 PWs)   bands (ev):

   -11.3093 -11.3093 -11.3092 -11.3092   0.0234   0.0234   0.0234   0.0234
     0.3517   0.3517   0.3517   0.3517   0.4419   0.4419   0.4419   0.4419
     1.0048   1.0048   1.0048   1.0048   1.0374   1.0374   1.0374   1.0374
     2.6727   2.6727   2.6727   2.6727   4.0317   4.0317   4.0317   4.0317
     4.3415   4.3415   4.3415   4.3415

          k = 0.3333-0.9623 0.0000 (  4438 PWs)   bands (ev):

   -11.2475 -11.2475 -11.0979 -11.0979   0.0947   0.0947   0.3309   0.3309
     0.3471   0.3471   0.6012   0.6012   0.6815   0.6815   0.7588   0.7588
     0.9247   0.9247   0.9719   0.9719   1.1308   1.1308   1.2957   1.2957
     1.8105   1.8105   2.3239   2.3239   2.9129   2.9129   3.2113   3.2113
     4.1451   4.1451   4.4259   4.4259

          k = 0.3333-0.9623 0.1948 (  4436 PWs)   bands (ev):

   -11.2368 -11.2368 -11.1072 -11.1072   0.0933   0.0933   0.2615   0.2615
     0.3658   0.3658   0.5736   0.5736   0.6594   0.6594   0.7122   0.7122
     0.9251   0.9251   1.0091   1.0091   1.1327   1.1327   1.2745   1.2745
     1.8140   1.8140   2.3245   2.3245   3.0311   3.0311   3.3323   3.3323
     4.1839   4.1839   4.3539   4.3539

          k = 0.3333-0.9623 0.3896 (  4444 PWs)   bands (ev):

   -11.2081 -11.2081 -11.1332 -11.1332   0.0790   0.0790   0.1663   0.1663
     0.3668   0.3668   0.5378   0.5378   0.6024   0.6024   0.6456   0.6456
     0.9682   0.9682   1.0307   1.0307   1.1431   1.1431   1.2221   1.2221
     1.8934   1.8934   2.2105   2.2105   3.3417   3.3417   3.6668   3.6668
     4.0570   4.0570   4.2762   4.2762

          k = 0.3333-0.9623-0.5844 (  4436 PWs)   bands (ev):

   -11.1699 -11.1699 -11.1699 -11.1699   0.0899   0.0899   0.0899   0.0899
     0.4394   0.4394   0.4394   0.4394   0.6088   0.6088   0.6088   0.6088
     1.0140   1.0140   1.0140   1.0140   1.1718   1.1718   1.1718   1.1718
     2.0419   2.0419   2.0419   2.0419   3.6895   3.6895   3.6895   3.6895
     4.0889   4.0889   4.0889   4.0889

          k = 0.3333-0.5774 0.0000 (  4448 PWs)   bands (ev):

   -11.4641 -11.1537 -11.1276 -11.1275   0.0773   0.1005   0.1796   0.2327
     0.4188   0.4771   0.4772   0.5824   0.7367   0.7720   0.8086   0.8087
     0.8532   0.8875   0.9527   0.9586   1.0813   1.1781   1.1782   1.2488
     1.5464   2.0974   2.0975   2.2419   3.1386   3.1566   3.6070   3.6070
     3.9614   3.9679   4.7209   4.8175

          k = 0.3333-0.5774 0.1948 (  4448 PWs)   bands (ev):

   -11.4434 -11.1746 -11.1267 -11.1266   0.0640   0.1052   0.1705   0.2587
     0.4007   0.4148   0.4149   0.5601   0.6105   0.6556   0.8130   0.8130
     0.8763   0.8975   0.9548   0.9807   1.0738   1.1636   1.2121   1.2121
     1.8577   2.0423   2.0424   2.3777   3.1082   3.2487   3.7418   3.7419
     3.8528   3.9799   4.6770   4.7502

          k = 0.3333-0.5774 0.3896 (  4444 PWs)   bands (ev):

   -11.3868 -11.2315 -11.1248 -11.1248   0.0154   0.1053   0.1874   0.3038
     0.3074   0.3074   0.3740   0.4570   0.4884   0.5029   0.8151   0.8152
     0.9128   0.9350   0.9443   1.0050   1.0557   1.0887   1.2730   1.2730
     1.9506   1.9506   2.3084   2.7133   2.9427   3.5458   3.5766   3.9939
     3.9939   4.0914   4.4723   4.5698

          k = 0.3333-0.5774-0.5844 (  4444 PWs)   bands (ev):

   -11.3093 -11.3092 -11.1239 -11.1239   0.0235   0.0235   0.2593   0.2593
     0.3198   0.3198   0.3517   0.3517   0.4418   0.4418   0.8147   0.8147
     0.9292   0.9292   1.0048   1.0048   1.0374   1.0375   1.3015   1.3015
     1.9105   1.9105   2.6728   2.6728   3.1345   3.1345   4.0319   4.0319
     4.1146   4.1146   4.3411   4.3411

          k =-0.5000-0.2887 0.0000 (  4400 PWs)   bands (ev):

   -11.5272 -11.5272 -11.1795 -11.1795   0.0297   0.0297   0.1718   0.1718
     0.2731   0.2731   0.3897   0.3897   0.5310   0.5310   0.7267   0.7267
     0.8697   0.8697   0.9584   0.9584   1.0786   1.0786   1.2354   1.2354
     1.4053   1.4053   3.0901   3.0901   3.6891   3.6891   4.1805   4.1805
     4.8156   4.8156   5.0383   5.0383

          k =-0.5000-0.2887 0.1948 (  4412 PWs)   bands (ev):

   -11.5043 -11.5043 -11.2031 -11.2031   0.0059   0.0059   0.1628   0.1628
     0.2875   0.2875   0.3655   0.3655   0.5104   0.5104   0.5728   0.5728
     0.8892   0.8892   0.9662   0.9662   1.0699   1.0699   1.1304   1.1304
     1.7860   1.7860   3.1324   3.1324   3.6297   3.6297   4.2400   4.2400
     4.7429   4.7429   4.9820   4.9820

          k =-0.5000-0.2887 0.3896 (  4440 PWs)   bands (ev):

   -11.4413 -11.4413 -11.2674 -11.2674  -0.0277  -0.0277   0.0833   0.0833
     0.3288   0.3288   0.3345   0.3345   0.4273   0.4273   0.4569   0.4569
     0.9395   0.9395   0.9874   0.9874   1.0469   1.0469   1.0663   1.0663
     2.3186   2.3186   3.0776   3.0776   3.6951   3.6951   4.4005   4.4005
     4.4824   4.4824   4.8279   4.8279

          k =-0.5000-0.2887-0.5844 (  4444 PWs)   bands (ev):

   -11.3547 -11.3547 -11.3547 -11.3547  -0.0104  -0.0104  -0.0104  -0.0104
     0.3616   0.3616   0.3616   0.3616   0.3900   0.3900   0.3900   0.3900
     1.0032   1.0032   1.0032   1.0032   1.0169   1.0169   1.0169   1.0169
     2.7698   2.7698   2.7698   2.7698   4.0672   4.0672   4.0672   4.0672
     4.6158   4.6158   4.6158   4.6158

          k =-0.5000-1.4434 0.0000 (  4418 PWs)   bands (ev):

   -11.2491 -11.2491 -11.0971 -11.0971   0.1102   0.1102   0.3581   0.3581
     0.3751   0.3751   0.5248   0.5248   0.7193   0.7193   0.8453   0.8453
     0.8647   0.8647   0.9178   0.9178   1.1332   1.1332   1.3207   1.3207
     1.8523   1.8523   2.4093   2.4093   2.9555   2.9555   2.9978   2.9978
     4.1997   4.1997   4.2936   4.2936

          k =-0.5000-1.4434 0.1948 (  4444 PWs)   bands (ev):

   -11.2383 -11.2383 -11.1066 -11.1066   0.1234   0.1234   0.2555   0.2555
     0.4455   0.4455   0.4799   0.4799   0.6799   0.6799   0.7401   0.7401
     0.8738   0.8738   0.9965   0.9965   1.1354   1.1354   1.2959   1.2959
     1.8828   1.8828   2.3896   2.3896   3.0418   3.0418   3.1608   3.1608
     4.1996   4.1996   4.2502   4.2502

          k =-0.5000-1.4434 0.3896 (  4440 PWs)   bands (ev):

   -11.2091 -11.2091 -11.1330 -11.1330   0.1411   0.1411   0.1615   0.1615
     0.3952   0.3952   0.4686   0.4686   0.6036   0.6036   0.6457   0.6457
     0.9416   0.9416   1.0258   1.0258   1.1471   1.1471   1.2358   1.2358
     1.9844   1.9844   2.2871   2.2871   3.2410   3.2410   3.5861   3.5861
     3.9688   3.9688   4.2694   4.2694

          k =-0.5000-1.4434-0.5844 (  4440 PWs)   bands (ev):

   -11.1704 -11.1704 -11.1704 -11.1704   0.1303   0.1303   0.1303   0.1303
     0.4126   0.4126   0.4126   0.4126   0.5984   0.5984   0.5984   0.5984
     1.0034   1.0034   1.0034   1.0034   1.1785   1.1785   1.1785   1.1785
     2.1323   2.1323   2.1323   2.1323   3.5534   3.5534   3.5534   3.5534
     4.0808   4.0809   4.0809   4.0809

          k = 0.3333-0.1925-0.1948 (  4418 PWs)   bands (ev):

   -11.6211 -11.2632 -11.2368 -11.1072   0.0446   0.0932   0.1515   0.2411
     0.2615   0.2995   0.3659   0.4148   0.4442   0.5735   0.6594   0.7123
     0.9103   0.9251   0.9479   1.0090   1.0654   1.0957   1.1326   1.2745
     1.6750   1.8138   2.3243   3.0312   3.3326   3.8186   4.1131   4.1840
     4.3542   4.4938   4.9167   5.1333

          k = 0.3333-0.1925-0.3896 (  4432 PWs)   bands (ev):

   -11.5473 -11.3406 -11.2081 -11.1332  -0.0051   0.0790   0.0902   0.1663
     0.2430   0.2721   0.3402   0.3668   0.3719   0.5377   0.6024   0.6456
     0.9516   0.9682   0.9746   1.0307   1.0425   1.0513   1.1430   1.2220
     1.8932   2.2103   2.2959   3.3419   3.5005   3.6669   4.0572   4.1688
     4.2762   4.6311   4.6867   4.9998

          k = 0.6667-0.3849-0.1948 (  4436 PWs)   bands (ev):

   -11.3783 -11.2368 -11.1481 -11.1072  -0.0094   0.0933   0.1693   0.2615
     0.3215   0.3658   0.4952   0.5736   0.6118   0.6174   0.6594   0.7122
     0.9195   0.9251   1.0053   1.0091   1.0788   1.1326   1.1773   1.2745
     1.8140   1.8954   2.3244   2.5338   3.0313   3.2184   3.3323   3.9801
     4.1840   4.3540   4.5222   4.8238

          k = 0.6667-0.3849-0.3896 (  4437 PWs)   bands (ev):

   -11.3293 -11.2081 -11.1963 -11.1332  -0.0367   0.0764   0.0791   0.1663
     0.3667   0.3758   0.4640   0.5172   0.5378   0.5430   0.6024   0.6456
     0.9592   0.9682   1.0186   1.0307   1.0599   1.0955   1.1430   1.2221
     1.8934   2.1678   2.2104   2.5823   3.3418   3.4484   3.6667   4.0571
     4.1646   4.2762   4.3568   4.6499

          k = 0.1667 0.0962-0.1948 (  4409 PWs)   bands (ev):

   -11.7028 -11.3087 -11.2752 -11.1161   0.0134   0.0446   0.1695   0.1858
     0.2015   0.2706   0.3385   0.3462   0.3492   0.5424   0.6871   0.6882
     0.9366   0.9456   0.9725   1.0502   1.0630   1.0709   1.0917   1.2205
     1.6169   1.7618   2.2685   3.0305   3.7836   4.2771   4.3698   4.5386
     4.6799   4.7046   5.1081   5.2407

          k = 0.1667 0.0962-0.3896 (  4419 PWs)   bands (ev):

   -11.6221 -11.3946 -11.2405 -11.1486  -0.0210  -0.0002   0.0762   0.0813
     0.2087   0.2267   0.2982   0.3116   0.4029   0.5383   0.6041   0.6243
     0.9683   0.9741   1.0227   1.0420   1.0440   1.0560   1.0784   1.1470
     1.8514   2.1894   2.2441   3.4608   3.6985   3.9874   4.2434   4.5162
     4.6496   4.7998   4.9928   5.1235

          k = 0.5000-0.0962-0.1948 (  4420 PWs)   bands (ev):

   -11.5480 -11.3306 -11.2247 -11.1302   0.0387   0.0989   0.1742   0.1766
     0.2302   0.3284   0.3400   0.4758   0.4799   0.5304   0.6310   0.6637
     0.8785   0.8940   0.9558   1.0035   1.0668   1.0957   1.1204   1.2299
     1.7430   1.9252   2.6355   3.0776   3.4701   3.5544   3.7198   4.3200
     4.4591   4.5168   4.8191   4.9915

          k = 0.5000-0.0962-0.3896 (  4429 PWs)   bands (ev):

   -11.4808 -11.2941 -11.2875 -11.1718  -0.0067   0.0552   0.0962   0.1205
     0.2607   0.3177   0.3725   0.3931   0.4288   0.4387   0.5323   0.5630
     0.9395   0.9425   0.9810   1.0304   1.0438   1.0626   1.0889   1.1465
     2.1524   2.3247   2.5534   3.2751   3.4785   3.7246   3.8598   4.2799
     4.3830   4.4248   4.5745   4.8417

          k =-0.8333 0.6736-0.1948 (  4444 PWs)   bands (ev):

   -11.2338 -11.2338 -11.1085 -11.1085   0.0481   0.0481   0.2364   0.2364
     0.3321   0.3321   0.5399   0.5399   0.7073   0.7073   0.7399   0.7399
     0.9809   0.9809   1.0467   1.0467   1.1212   1.1212   1.2153   1.2153
     1.6982   1.6982   2.2353   2.2353   3.0341   3.0341   3.5971   3.5971
     4.1570   4.1570   4.5581   4.5581

          k =-0.8333 0.6736-0.3896 (  4440 PWs)   bands (ev):

   -11.2059 -11.2059 -11.1335 -11.1335   0.0153   0.0153   0.1104   0.1104
     0.3872   0.3872   0.5668   0.5668   0.6096   0.6096   0.6746   0.6746
     1.0263   1.0263   1.0520   1.0520   1.1275   1.1275   1.1868   1.1868
     1.7542   1.7542   2.0728   2.0728   3.4734   3.4734   3.8322   3.8322
     4.1671   4.1671   4.3720   4.3720

          k =-0.5000 0.4811-0.1948 (  4432 PWs)   bands (ev):

   -11.4262 -11.1720 -11.1673 -11.1056   0.0198   0.1077   0.1756   0.2891
     0.3466   0.4285   0.4409   0.5716   0.6186   0.6256   0.6989   0.7925
     0.8886   0.9103   0.9783   0.9868   1.0753   1.1642   1.1775   1.2649
     1.8647   1.8699   2.1990   2.6413   2.8343   3.3336   3.4491   3.9360
     3.9964   4.0632   4.6289   4.8100

          k =-0.5000 0.4811-0.3896 (  4441 PWs)   bands (ev):

   -11.3715 -11.2220 -11.1562 -11.1179  -0.0138   0.0926   0.1551   0.2549
     0.3363   0.3380   0.4020   0.4764   0.5123   0.5126   0.7018   0.7556
     0.9400   0.9489   0.9898   1.0073   1.0563   1.0879   1.2152   1.2822
     1.8643   2.0731   2.2737   2.8164   2.9249   3.5249   3.6600   3.8502
     4.1478   4.1527   4.4241   4.6393

          k = 0.3333 0.1925-0.1948 (  4418 PWs)   bands (ev):

   -11.6211 -11.3783 -11.2632 -11.1481  -0.0095   0.0445   0.1514   0.1692
     0.2413   0.2994   0.3217   0.4150   0.4441   0.4951   0.6120   0.6173
     0.9103   0.9195   0.9479   1.0053   1.0654   1.0788   1.0956   1.1772
     1.6750   1.8953   2.5335   3.2182   3.8183   3.9805   4.1128   4.4942
     4.5222   4.8242   4.9166   5.1337

          k = 0.3333 0.1925-0.3896 (  4425 PWs)   bands (ev):

   -11.5473 -11.3406 -11.3293 -11.1963  -0.0368  -0.0051   0.0763   0.0902
     0.2429   0.2723   0.3401   0.3720   0.3760   0.4639   0.5171   0.5431
     0.9517   0.9592   0.9746   1.0186   1.0425   1.0513   1.0599   1.0954
     2.1677   2.2959   2.5821   3.4483   3.5004   4.1650   4.1685   4.3568
     4.6315   4.6503   4.6864   5.0003

          k =-0.6667 0.7698-0.1948 (  4436 PWs)   bands (ev):

   -11.2368 -11.2368 -11.1072 -11.1072   0.0933   0.0933   0.2615   0.2615
     0.3658   0.3658   0.5736   0.5736   0.6594   0.6594   0.7122   0.7122
     0.9251   0.9251   1.0091   1.0091   1.1327   1.1327   1.2745   1.2745
     1.8140   1.8140   2.3245   2.3245   3.0311   3.0311   3.3323   3.3323
     4.1839   4.1839   4.3539   4.3539

          k =-0.6667 0.7698-0.3896 (  4444 PWs)   bands (ev):

   -11.2081 -11.2081 -11.1332 -11.1332   0.0790   0.0790   0.1663   0.1663
     0.3668   0.3668   0.5378   0.5378   0.6024   0.6024   0.6456   0.6456
     0.9682   0.9682   1.0307   1.0307   1.1431   1.1431   1.2221   1.2221
     1.8934   1.8934   2.2105   2.2105   3.3417   3.3417   3.6668   3.6668
     4.0570   4.0570   4.2762   4.2762

     highest occupied level (ev):     5.3193

!    total energy              =    -723.23524990 Ry
     estimated scf accuracy    <          1.5E-09 Ry

     The total energy is the sum of the following terms:
     one-electron contribution =    -334.77931390 Ry
     hartree contribution      =     245.67047729 Ry
     xc contribution           =    -218.62320005 Ry
     ewald contribution        =    -415.50321324 Ry

     convergence has been achieved in  40 iterations

     Forces acting on atoms (cartesian axes, Ry/au):

     atom    1 type  1   force =    -0.00000583   -0.00000336    0.00622646
     atom    2 type  2   force =     0.00000045    0.00000026   -0.00623218
     atom    3 type  1   force =     0.00000752    0.00000434    0.00624018
     atom    4 type  2   force =    -0.00000043   -0.00000025   -0.00623350
     atom    5 type  1   force =    -0.00000800   -0.00000462    0.00622623
     atom    6 type  2   force =     0.00000015    0.00000009   -0.00623296
     atom    7 type  1   force =     0.00000678    0.00000392    0.00623930
     atom    8 type  2   force =    -0.00000065   -0.00000038   -0.00623353
     The non-local contrib.  to forces
     atom    1 type  1   force =     0.00000345    0.00000199   -0.07333960
     atom    2 type  2   force =    -0.00020630   -0.00011911   -0.06999521
     atom    3 type  1   force =    -0.00000156   -0.00000090   -0.07332808
     atom    4 type  2   force =     0.00020640    0.00011917   -0.06999684
     atom    5 type  1   force =     0.00000140    0.00000081   -0.07333898
     atom    6 type  2   force =    -0.00020588   -0.00011886   -0.06999584
     atom    7 type  1   force =    -0.00000153   -0.00000088   -0.07332886
     atom    8 type  2   force =     0.00020683    0.00011941   -0.06999492
     The ionic contribution  to forces
     atom    1 type  1   force =     0.00000000    0.00000000   -0.64610567
     atom    2 type  2   force =    -0.00000000   -0.00000000    0.64610567
     atom    3 type  1   force =    -0.00000000   -0.00000000   -0.64610567
     atom    4 type  2   force =     0.00000000    0.00000000    0.64610567
     atom    5 type  1   force =     0.00000000    0.00000000   -0.64610567
     atom    6 type  2   force =    -0.00000000   -0.00000000    0.64610567
     atom    7 type  1   force =    -0.00000000   -0.00000000   -0.64610567
     atom    8 type  2   force =     0.00000000    0.00000000    0.64610567
     The local contribution  to forces
     atom    1 type  1   force =    -0.00001590   -0.00000918    0.72190985
     atom    2 type  2   force =     0.00020438    0.00011800   -0.58293948
     atom    3 type  1   force =     0.00001238    0.00000715    0.72188035
     atom    4 type  2   force =    -0.00020504   -0.00011838   -0.58294283
     atom    5 type  1   force =    -0.00001160   -0.00000670    0.72190971
     atom    6 type  2   force =     0.00020353    0.00011751   -0.58294082
     atom    7 type  1   force =     0.00001315    0.00000759    0.72188113
     atom    8 type  2   force =    -0.00020448   -0.00011806   -0.58294458
     The core correction contribution to forces
     atom    1 type  1   force =     0.00000529    0.00000303    0.00377246
     atom    2 type  2   force =     0.00000233    0.00000135    0.00060212
     atom    3 type  1   force =    -0.00000533   -0.00000312    0.00377289
     atom    4 type  2   force =    -0.00000236   -0.00000136    0.00060213
     atom    5 type  1   force =     0.00000528    0.00000309    0.00377237
     atom    6 type  2   force =     0.00000235    0.00000135    0.00060212
     atom    7 type  1   force =    -0.00000533   -0.00000305    0.00377296
     atom    8 type  2   force =    -0.00000234   -0.00000135    0.00060211
     The Hubbard contrib.    to forces
     atom    1 type  1   force =     0.00000000    0.00000000    0.00000000
     atom    2 type  2   force =     0.00000000    0.00000000    0.00000000
     atom    3 type  1   force =     0.00000000    0.00000000    0.00000000
     atom    4 type  2   force =     0.00000000    0.00000000    0.00000000
     atom    5 type  1   force =     0.00000000    0.00000000    0.00000000
     atom    6 type  2   force =     0.00000000    0.00000000    0.00000000
     atom    7 type  1   force =     0.00000000    0.00000000    0.00000000
     atom    8 type  2   force =     0.00000000    0.00000000    0.00000000
     The SCF correction term to forces
     atom    1 type  1   force =     0.00000136    0.00000078   -0.00000693
     atom    2 type  2   force =     0.00000005    0.00000003   -0.00000162
     atom    3 type  1   force =     0.00000207    0.00000119    0.00002433
     atom    4 type  2   force =     0.00000059    0.00000034    0.00000203
     atom    5 type  1   force =    -0.00000309   -0.00000178   -0.00000754
     atom    6 type  2   force =     0.00000016    0.00000009   -0.00000042
     atom    7 type  1   force =     0.00000050    0.00000029    0.00002339
     atom    8 type  2   force =    -0.00000065   -0.00000038    0.00000184

     Total force =     0.017630     Total SCF correction =     0.000036

     Writing all to output data dir ./ZnO-3.34-1.71-211.in.save/

     init_run     :      4.75s CPU      4.30s WALL (       1 calls)
     electrons    :    423.78s CPU    344.65s WALL (       1 calls)
     forces       :      1.41s CPU      1.14s WALL (       1 calls)

     Called by init_run:
     wfcinit      :      3.18s CPU      2.69s WALL (       1 calls)
     potinit      :      0.58s CPU      0.58s WALL (       1 calls)
     hinit0       :      0.79s CPU      0.80s WALL (       1 calls)

     Called by electrons:
     c_bands      :    378.19s CPU    305.22s WALL (      40 calls)
     sum_band     :     40.57s CPU     35.24s WALL (      40 calls)
     v_of_rho     :      1.68s CPU      1.49s WALL (      41 calls)
     newd         :      2.96s CPU      2.39s WALL (      41 calls)
     mix_rho      :      0.28s CPU      0.24s WALL (      40 calls)

     Called by c_bands:
     init_us_2    :      2.44s CPU      2.05s WALL (    3280 calls)
     init_us_2:cp :      2.42s CPU      2.03s WALL (    3280 calls)
     cegterg      :    357.06s CPU    287.67s WALL (    1600 calls)

     Called by *egterg:
     cdiaghg      :     47.48s CPU     37.22s WALL (    9446 calls)
     h_psi        :    241.50s CPU    213.54s WALL (    9486 calls)
     s_psi        :     15.81s CPU      8.49s WALL (    9486 calls)
     g_psi        :      1.27s CPU      0.89s WALL (    7846 calls)

     Called by h_psi:
     h_psi:calbec :     16.18s CPU      9.67s WALL (    9486 calls)
     vloc_psi     :    208.55s CPU    194.61s WALL (    9486 calls)
     add_vuspsi   :     16.05s CPU      8.72s WALL (    9486 calls)

     General routines
     calbec       :     20.88s CPU     12.33s WALL (   11246 calls)
     fft          :      1.13s CPU      1.08s WALL (     542 calls)
     ffts         :      0.22s CPU      0.23s WALL (      81 calls)
     fftw         :    209.56s CPU    197.19s WALL (  468132 calls)
     interpolate  :      0.28s CPU      0.28s WALL (      41 calls)

     Parallel routines

     PWSCF        :   7m10.49s CPU   5m50.95s WALL


   This run was terminated on:  15:52:29  12Jul2025            

=------------------------------------------------------------------------------=
   JOB DONE.
=------------------------------------------------------------------------------=
Note: The following floating-point exceptions are signalling: IEEE_INVALID_FLAG
Note: The following floating-point exceptions are signalling: IEEE_INVALID_FLAG
