Authorization required, but no authorization protocol specified

Authorization required, but no authorization protocol specified

Authorization required, but no authorization protocol specified

Authorization required, but no authorization protocol specified

Authorization required, but no authorization protocol specified

Authorization required, but no authorization protocol specified

Authorization required, but no authorization protocol specified

Authorization required, but no authorization protocol specified

Authorization required, but no authorization protocol specified

Authorization required, but no authorization protocol specified

Authorization required, but no authorization protocol specified

Authorization required, but no authorization protocol specified

Authorization required, but no authorization protocol specified

Authorization required, but no authorization protocol specified

Authorization required, but no authorization protocol specified

Authorization required, but no authorization protocol specified

Authorization required, but no authorization protocol specified

Authorization required, but no authorization protocol specified


     Program PWSCF v.7.2 starts on 12Jul2025 at 16:24: 4 

     This program is part of the open-source Quantum ESPRESSO suite
     for quantum simulation of materials; please cite
         "P. Giannozzi et al., J. Phys.:Condens. Matter 21 395502 (2009);
         "P. Giannozzi et al., J. Phys.:Condens. Matter 29 465901 (2017);
         "P. Giannozzi et al., J. Chem. Phys. 152 154105 (2020);
          URL http://www.quantum-espresso.org", 
     in publications or presentations arising from this work. More details at
     http://www.quantum-espresso.org/quote

     Parallel version (MPI), running on    16 processors

     MPI processes distributed on     1 nodes
     52678 MiB available memory on the printing compute node when the environment starts

     Reading input from /home/jvc/QEspresso7.2/ZnO_database/scripts/cell211_strain10%.in/ZnO-3.40-1.61-211.in
Warning: card &CELL ignored
Warning: card / ignored
Warning: card &FCP ignored
Warning: card / ignored
Warning: card &RISM ignored
Warning: card / ignored

     Current dimensions of program PWSCF are:
     Max number of different atomic species (ntypx) = 10
     Max number of k-points (npk) =  40000
     Max angular momentum in pseudopotentials (lmaxx) =  4
     file Zn.upf: wavefunction(s)  3D renormalized
     Found identity + ( -0.5000  0.0000  0.0000) symmetry
     This is a supercell, fractional translations are disabled
     Message from routine setup:
     using ibrav=0 with symmetry is DISCOURAGED, use correct ibrav instead

     K-points division:     npool     =       2
     R & G space division:  proc/nbgrp/npool/nimage =       8
     Subspace diagonalization in iterative solution of the eigenvalue problem:
     a serial algorithm will be used


     Parallelization info
     --------------------
     sticks:   dense  smooth     PW     G-vecs:    dense   smooth      PW
     Min         284     141     43                12527     4425     761
     Max         285     142     44                12529     4428     764
     Sum        2279    1135    347               100229    35413    6101

     Using Slab Decomposition



     bravais-lattice index     =            0
     lattice parameter (alat)  =      12.8520  a.u.
     unit-cell volume          =     741.9667 (a.u.)^3
     number of atoms/cell      =            8
     number of atomic types    =            2
     number of electrons       =        72.00
     number of Kohn-Sham states=           36
     kinetic-energy cutoff     =      50.0000  Ry
     charge density cutoff     =     400.0000  Ry
     scf convergence threshold =      1.0E-08
     mixing beta               =       0.3000
     number of iterations used =            8  plain     mixing
     Exchange-correlation= PBE
                           (   1   4   3   4   0   0   0)

     celldm(1)=  12.852016  celldm(2)=   0.000000  celldm(3)=   0.000000
     celldm(4)=   0.000000  celldm(5)=   0.000000  celldm(6)=   0.000000

     crystal axes: (cart. coord. in units of alat)
               a(1) = (   1.000000   0.000000   0.000000 )  
               a(2) = (  -0.250000   0.433013   0.000000 )  
               a(3) = (   0.000000   0.000000   0.807179 )  

     reciprocal axes: (cart. coord. in units 2 pi/alat)
               b(1) = (  1.000000  0.577350 -0.000000 )  
               b(2) = (  0.000000  2.309401  0.000000 )  
               b(3) = (  0.000000 -0.000000  1.238882 )  


     PseudoPot. # 1 for Zn read from file:
     /home/jvc/QEspresso7.2/ZnO_database/pseudos/Zn.upf
     MD5 check sum: 7f56cabf9682ed8c977c2f7d0c5985c5
     Pseudo is Ultrasoft + core correction, Zval = 12.0
     Generated using &quot;atomic&quot; code by A. Dal Corso  v.6.2.2
     Using radial grid of 1201 points,  6 beta functions with: 
                l(1) =   0
                l(2) =   0
                l(3) =   1
                l(4) =   1
                l(5) =   2
                l(6) =   2
     Q(r) pseudized with 0 coefficients 


     PseudoPot. # 2 for O  read from file:
     /home/jvc/QEspresso7.2/ZnO_database/pseudos/O.upf
     MD5 check sum: 91400c9766925bcf19f520983a725ff0
     Pseudo is Ultrasoft + core correction, Zval =  6.0
     Generated using &quot;atomic&quot; code by A. Dal Corso  v.6.3MaX
     Using radial grid of 1095 points,  4 beta functions with: 
                l(1) =   0
                l(2) =   0
                l(3) =   1
                l(4) =   1
     Q(r) pseudized with 0 coefficients 


     atomic species   valence    mass     pseudopotential
        Zn            12.00    65.38000     Zn( 1.00)
        O              6.00    15.99900     O ( 1.00)

      2 Sym. Ops. (no inversion) found



   Cartesian axes

     site n.     atom                  positions (alat units)
         1           Zn  tau(   1) = (   0.0000000   0.0000000   0.0000000  )
         2           O   tau(   2) = (   0.0000000   0.2886751   0.0985546  )
         3           Zn  tau(   3) = (   0.0000000   0.2886751   0.4035896  )
         4           O   tau(   4) = (   0.0000000   0.0000000   0.5021442  )
         5           Zn  tau(   5) = (   0.5000000   0.0000000   0.0000000  )
         6           O   tau(   6) = (   0.5000000   0.2886751   0.0985546  )
         7           Zn  tau(   7) = (   0.5000000   0.2886751   0.4035896  )
         8           O   tau(   8) = (   0.5000000   0.0000000   0.5021442  )

     number of k points=    80
                       cart. coord. in units 2pi/alat
        k(    1) = (   0.0000000   0.0000000   0.0000000), wk =   0.0092593
        k(    2) = (   0.0000000   0.0000000   0.2064804), wk =   0.0185185
        k(    3) = (   0.0000000   0.0000000   0.4129608), wk =   0.0185185
        k(    4) = (   0.0000000   0.0000000  -0.6194412), wk =   0.0092593
        k(    5) = (   0.0000000   0.3849002   0.0000000), wk =   0.0370370
        k(    6) = (   0.0000000   0.3849002   0.2064804), wk =   0.0370370
        k(    7) = (   0.0000000   0.3849002   0.4129608), wk =   0.0370370
        k(    8) = (   0.0000000   0.3849002  -0.6194412), wk =   0.0370370
        k(    9) = (   0.0000000   0.7698004   0.0000000), wk =   0.0370370
        k(   10) = (   0.0000000   0.7698004   0.2064804), wk =   0.0370370
        k(   11) = (   0.0000000   0.7698004   0.4129608), wk =   0.0370370
        k(   12) = (   0.0000000   0.7698004  -0.6194412), wk =   0.0370370
        k(   13) = (   0.0000000  -1.1547005   0.0000000), wk =   0.0092593
        k(   14) = (   0.0000000  -1.1547005   0.2064804), wk =   0.0185185
        k(   15) = (   0.0000000  -1.1547005   0.4129608), wk =   0.0185185
        k(   16) = (   0.0000000  -1.1547005  -0.6194412), wk =   0.0092593
        k(   17) = (   0.1666667   0.0962250   0.0000000), wk =   0.0185185
        k(   18) = (   0.1666667   0.0962250   0.2064804), wk =   0.0185185
        k(   19) = (   0.1666667   0.0962250   0.4129608), wk =   0.0185185
        k(   20) = (   0.1666667   0.0962250  -0.6194412), wk =   0.0185185
        k(   21) = (   0.1666667   0.4811252   0.0000000), wk =   0.0370370
        k(   22) = (   0.1666667   0.4811252   0.2064804), wk =   0.0370370
        k(   23) = (   0.1666667   0.4811252   0.4129608), wk =   0.0370370
        k(   24) = (   0.1666667   0.4811252  -0.6194412), wk =   0.0370370
        k(   25) = (   0.1666667   0.8660254   0.0000000), wk =   0.0185185
        k(   26) = (   0.1666667   0.8660254   0.2064804), wk =   0.0370370
        k(   27) = (   0.1666667   0.8660254   0.4129608), wk =   0.0370370
        k(   28) = (   0.1666667   0.8660254  -0.6194412), wk =   0.0185185
        k(   29) = (   0.1666667  -1.0584755   0.0000000), wk =   0.0185185
        k(   30) = (   0.1666667  -1.0584755   0.2064804), wk =   0.0185185
        k(   31) = (   0.1666667  -1.0584755   0.4129608), wk =   0.0185185
        k(   32) = (   0.1666667  -1.0584755  -0.6194412), wk =   0.0185185
        k(   33) = (   0.1666667  -0.6735753   0.0000000), wk =   0.0370370
        k(   34) = (   0.1666667  -0.6735753   0.2064804), wk =   0.0370370
        k(   35) = (   0.1666667  -0.6735753   0.4129608), wk =   0.0370370
        k(   36) = (   0.1666667  -0.6735753  -0.6194412), wk =   0.0370370
        k(   37) = (   0.1666667  -0.2886751   0.0000000), wk =   0.0185185
        k(   38) = (   0.1666667  -0.2886751   0.2064804), wk =   0.0370370
        k(   39) = (   0.1666667  -0.2886751   0.4129608), wk =   0.0370370
        k(   40) = (   0.1666667  -0.2886751  -0.6194412), wk =   0.0185185
        k(   41) = (   0.3333333   0.1924501   0.0000000), wk =   0.0185185
        k(   42) = (   0.3333333   0.1924501   0.2064804), wk =   0.0185185
        k(   43) = (   0.3333333   0.1924501   0.4129608), wk =   0.0185185
        k(   44) = (   0.3333333   0.1924501  -0.6194412), wk =   0.0185185
        k(   45) = (   0.3333333   0.5773503   0.0000000), wk =   0.0185185
        k(   46) = (   0.3333333   0.5773503   0.2064804), wk =   0.0370370
        k(   47) = (   0.3333333   0.5773503   0.4129608), wk =   0.0370370
        k(   48) = (   0.3333333   0.5773503  -0.6194412), wk =   0.0185185
        k(   49) = (   0.3333333  -0.9622504   0.0000000), wk =   0.0185185
        k(   50) = (   0.3333333  -0.9622504   0.2064804), wk =   0.0185185
        k(   51) = (   0.3333333  -0.9622504   0.4129608), wk =   0.0185185
        k(   52) = (   0.3333333  -0.9622504  -0.6194412), wk =   0.0185185
        k(   53) = (   0.3333333  -0.5773503   0.0000000), wk =   0.0185185
        k(   54) = (   0.3333333  -0.5773503   0.2064804), wk =   0.0370370
        k(   55) = (   0.3333333  -0.5773503   0.4129608), wk =   0.0370370
        k(   56) = (   0.3333333  -0.5773503  -0.6194412), wk =   0.0185185
        k(   57) = (  -0.5000000  -0.2886751   0.0000000), wk =   0.0092593
        k(   58) = (  -0.5000000  -0.2886751   0.2064804), wk =   0.0185185
        k(   59) = (  -0.5000000  -0.2886751   0.4129608), wk =   0.0185185
        k(   60) = (  -0.5000000  -0.2886751  -0.6194412), wk =   0.0092593
        k(   61) = (  -0.5000000  -1.4433757   0.0000000), wk =   0.0092593
        k(   62) = (  -0.5000000  -1.4433757   0.2064804), wk =   0.0185185
        k(   63) = (  -0.5000000  -1.4433757   0.4129608), wk =   0.0185185
        k(   64) = (  -0.5000000  -1.4433757  -0.6194412), wk =   0.0092593
        k(   65) = (   0.3333333  -0.1924501  -0.2064804), wk =   0.0370370
        k(   66) = (   0.3333333  -0.1924501  -0.4129608), wk =   0.0370370
        k(   67) = (   0.6666667  -0.3849002  -0.2064804), wk =   0.0370370
        k(   68) = (   0.6666667  -0.3849002  -0.4129608), wk =   0.0370370
        k(   69) = (   0.1666667   0.0962250  -0.2064804), wk =   0.0185185
        k(   70) = (   0.1666667   0.0962250  -0.4129608), wk =   0.0185185
        k(   71) = (   0.5000000  -0.0962250  -0.2064804), wk =   0.0370370
        k(   72) = (   0.5000000  -0.0962250  -0.4129608), wk =   0.0370370
        k(   73) = (  -0.8333333   0.6735753  -0.2064804), wk =   0.0185185
        k(   74) = (  -0.8333333   0.6735753  -0.4129608), wk =   0.0185185
        k(   75) = (  -0.5000000   0.4811252  -0.2064804), wk =   0.0370370
        k(   76) = (  -0.5000000   0.4811252  -0.4129608), wk =   0.0370370
        k(   77) = (   0.3333333   0.1924501  -0.2064804), wk =   0.0185185
        k(   78) = (   0.3333333   0.1924501  -0.4129608), wk =   0.0185185
        k(   79) = (  -0.6666667   0.7698004  -0.2064804), wk =   0.0185185
        k(   80) = (  -0.6666667   0.7698004  -0.4129608), wk =   0.0185185

     Dense  grid:   100229 G-vectors     FFT dimensions: (  81,  45,  72)

     Smooth grid:    35413 G-vectors     FFT dimensions: (  60,  30,  48)

     Estimated max dynamical RAM per process >      43.17 MB

     Estimated total dynamical RAM >     666.26 MB

     Check: negative core charge=   -0.000002

     Initial potential from superposition of free atoms

     starting charge      71.9851, renormalised to      72.0000
     Starting wfcs are   52 randomized atomic wfcs

     total cpu time spent up to now is        4.4 secs

     Self-consistent Calculation

     iteration #  1     ecut=    50.00 Ry     beta= 0.30
     Davidson diagonalization with overlap
     ethr =  1.00E-02,  avg # of iterations =  1.7

     total cpu time spent up to now is        9.2 secs

     total energy              =    -722.89394090 Ry
     estimated scf accuracy    <       1.48172791 Ry

     iteration #  2     ecut=    50.00 Ry     beta= 0.30
     Davidson diagonalization with overlap
     ethr =  2.06E-03,  avg # of iterations =  2.1

     total cpu time spent up to now is       15.2 secs

     total energy              =    -723.13029044 Ry
     estimated scf accuracy    <       0.16262960 Ry

     iteration #  3     ecut=    50.00 Ry     beta= 0.30
     Davidson diagonalization with overlap
     ethr =  2.26E-04,  avg # of iterations =  6.8

     total cpu time spent up to now is       25.3 secs

     total energy              =    -723.16908339 Ry
     estimated scf accuracy    <       0.15013426 Ry

     iteration #  4     ecut=    50.00 Ry     beta= 0.30
     Davidson diagonalization with overlap
     ethr =  2.09E-04,  avg # of iterations =  9.4

     total cpu time spent up to now is       38.8 secs

     total energy              =    -723.29163513 Ry
     estimated scf accuracy    <       0.74308538 Ry

     iteration #  5     ecut=    50.00 Ry     beta= 0.30
     Davidson diagonalization with overlap
     ethr =  2.09E-04,  avg # of iterations =  2.0

     total cpu time spent up to now is       43.8 secs

     total energy              =    -723.48032628 Ry
     estimated scf accuracy    <       0.46514308 Ry

     iteration #  6     ecut=    50.00 Ry     beta= 0.30
     Davidson diagonalization with overlap
     ethr =  2.09E-04,  avg # of iterations =  2.0

     total cpu time spent up to now is       48.8 secs

     total energy              =    -723.09505574 Ry
     estimated scf accuracy    <       0.79133176 Ry

     iteration #  7     ecut=    50.00 Ry     beta= 0.30
     Davidson diagonalization with overlap
     ethr =  2.09E-04,  avg # of iterations =  5.8

     total cpu time spent up to now is       57.8 secs

     total energy              =    -723.27051169 Ry
     estimated scf accuracy    <       0.01473648 Ry

     iteration #  8     ecut=    50.00 Ry     beta= 0.30
     Davidson diagonalization with overlap
     ethr =  2.05E-05,  avg # of iterations =  9.9

     total cpu time spent up to now is       72.1 secs

     total energy              =    -723.30592808 Ry
     estimated scf accuracy    <       0.32313308 Ry

     iteration #  9     ecut=    50.00 Ry     beta= 0.30
     Davidson diagonalization with overlap
     ethr =  2.05E-05,  avg # of iterations =  1.1

     total cpu time spent up to now is       76.7 secs

     total energy              =    -723.31968390 Ry
     estimated scf accuracy    <       0.29050070 Ry

     iteration # 10     ecut=    50.00 Ry     beta= 0.30
     Davidson diagonalization with overlap
     ethr =  2.05E-05,  avg # of iterations =  1.0

     total cpu time spent up to now is       81.2 secs

     total energy              =    -723.27132982 Ry
     estimated scf accuracy    <       0.31512503 Ry

     iteration # 11     ecut=    50.00 Ry     beta= 0.30
     Davidson diagonalization with overlap
     ethr =  2.05E-05,  avg # of iterations =  4.9

     total cpu time spent up to now is       88.4 secs

     total energy              =    -723.23675650 Ry
     estimated scf accuracy    <       0.17222383 Ry

     iteration # 12     ecut=    50.00 Ry     beta= 0.30
     Davidson diagonalization with overlap
     ethr =  2.05E-05,  avg # of iterations =  6.0

     total cpu time spent up to now is       97.6 secs

     total energy              =    -723.23069690 Ry
     estimated scf accuracy    <       0.03219212 Ry

     iteration # 13     ecut=    50.00 Ry     beta= 0.30
     Davidson diagonalization with overlap
     ethr =  2.05E-05,  avg # of iterations =  7.1

     total cpu time spent up to now is      108.3 secs

     total energy              =    -723.25405112 Ry
     estimated scf accuracy    <       0.00942230 Ry

     iteration # 14     ecut=    50.00 Ry     beta= 0.30
     Davidson diagonalization with overlap
     ethr =  1.31E-05,  avg # of iterations =  5.7

     total cpu time spent up to now is      116.7 secs

     total energy              =    -723.24923226 Ry
     estimated scf accuracy    <       0.05880272 Ry

     iteration # 15     ecut=    50.00 Ry     beta= 0.30
     Davidson diagonalization with overlap
     ethr =  1.31E-05,  avg # of iterations =  1.8

     total cpu time spent up to now is      121.5 secs

     total energy              =    -723.25754267 Ry
     estimated scf accuracy    <       0.04189718 Ry

     iteration # 16     ecut=    50.00 Ry     beta= 0.30
     Davidson diagonalization with overlap
     ethr =  1.31E-05,  avg # of iterations =  1.2

     total cpu time spent up to now is      126.1 secs

     total energy              =    -723.22016790 Ry
     estimated scf accuracy    <       0.05624524 Ry

     iteration # 17     ecut=    50.00 Ry     beta= 0.30
     Davidson diagonalization with overlap
     ethr =  1.31E-05,  avg # of iterations = 11.0

     total cpu time spent up to now is      140.5 secs

     total energy              =    -723.23499579 Ry
     estimated scf accuracy    <       0.03887424 Ry

     iteration # 18     ecut=    50.00 Ry     beta= 0.30
     Davidson diagonalization with overlap
     ethr =  1.31E-05,  avg # of iterations =  6.2

     total cpu time spent up to now is      150.2 secs

     total energy              =    -723.24307367 Ry
     estimated scf accuracy    <       0.00006943 Ry

     iteration # 19     ecut=    50.00 Ry     beta= 0.30
     Davidson diagonalization with overlap
     c_bands:  2 eigenvalues not converged
     ethr =  9.64E-08,  avg # of iterations = 12.9

     total cpu time spent up to now is      167.2 secs

     total energy              =    -723.24271512 Ry
     estimated scf accuracy    <       0.00343301 Ry

     iteration # 20     ecut=    50.00 Ry     beta= 0.30
     Davidson diagonalization with overlap
     ethr =  9.64E-08,  avg # of iterations = 10.7

     total cpu time spent up to now is      182.1 secs

     total energy              =    -723.24306109 Ry
     estimated scf accuracy    <       0.00039250 Ry

     iteration # 21     ecut=    50.00 Ry     beta= 0.30
     Davidson diagonalization with overlap
     ethr =  9.64E-08,  avg # of iterations =  2.0

     total cpu time spent up to now is      187.2 secs

     total energy              =    -723.24284151 Ry
     estimated scf accuracy    <       0.00056228 Ry

     iteration # 22     ecut=    50.00 Ry     beta= 0.30
     Davidson diagonalization with overlap
     ethr =  9.64E-08,  avg # of iterations =  6.6

     total cpu time spent up to now is      197.0 secs

     total energy              =    -723.24288266 Ry
     estimated scf accuracy    <       0.00002749 Ry

     iteration # 23     ecut=    50.00 Ry     beta= 0.30
     Davidson diagonalization with overlap
     ethr =  3.82E-08,  avg # of iterations =  5.6

     total cpu time spent up to now is      205.2 secs

     total energy              =    -723.24289053 Ry
     estimated scf accuracy    <       0.00000915 Ry

     iteration # 24     ecut=    50.00 Ry     beta= 0.30
     Davidson diagonalization with overlap
     ethr =  1.27E-08,  avg # of iterations =  7.6

     total cpu time spent up to now is      216.6 secs

     total energy              =    -723.24288991 Ry
     estimated scf accuracy    <       0.00002481 Ry

     iteration # 25     ecut=    50.00 Ry     beta= 0.30
     Davidson diagonalization with overlap
     ethr =  1.27E-08,  avg # of iterations =  4.9

     total cpu time spent up to now is      224.7 secs

     total energy              =    -723.24289538 Ry
     estimated scf accuracy    <       0.00000019 Ry

     iteration # 26     ecut=    50.00 Ry     beta= 0.30
     Davidson diagonalization with overlap
     ethr =  2.70E-10,  avg # of iterations =  8.3

     total cpu time spent up to now is      235.0 secs

     total energy              =    -723.24289508 Ry
     estimated scf accuracy    <       0.00000090 Ry

     iteration # 27     ecut=    50.00 Ry     beta= 0.30
     Davidson diagonalization with overlap
     ethr =  2.70E-10,  avg # of iterations =  8.2

     total cpu time spent up to now is      246.9 secs

     total energy              =    -723.24289531 Ry
     estimated scf accuracy    <       0.00000011 Ry

     iteration # 28     ecut=    50.00 Ry     beta= 0.30
     Davidson diagonalization with overlap
     ethr =  1.50E-10,  avg # of iterations =  3.7

     total cpu time spent up to now is      253.3 secs

     End of self-consistent calculation

          k = 0.0000 0.0000 0.0000 (  4421 PWs)   bands (ev):

   -11.7730 -11.2740 -11.2491 -11.1129   0.0637   0.1517   0.1519   0.1659
     0.3033   0.3035   0.3381   0.3387   0.6067   0.6280   0.7480   0.7603
     0.9473   0.9474   1.0028   1.0722   1.0969   1.0969   1.1305   1.1870
     1.3640   1.7353   2.1921   2.8768   3.4742   4.2123   4.6260   4.6343
     4.6348   5.2320   5.2790   5.2795

          k = 0.0000 0.0000 0.2065 (  4459 PWs)   bands (ev):

   -11.7392 -11.2856 -11.2620 -11.1224   0.0374   0.1394   0.1570   0.1573
     0.2509   0.2881   0.2883   0.3609   0.4002   0.6221   0.7151   0.7268
     0.9606   0.9606   1.0447   1.0738   1.0908   1.0909   1.1207   1.1864
     1.7080   1.7253   2.1121   3.1304   3.5595   4.2954   4.5533   4.6432
     4.6785   4.6790   5.2369   5.2374

          k = 0.0000 0.0000 0.4130 (  4434 PWs)   bands (ev):

   -11.6460 -11.3841 -11.2300 -11.1493  -0.0102   0.0866   0.0898   0.1693
     0.1758   0.1760   0.2508   0.2509   0.4253   0.6173   0.6292   0.6710
     0.9954   0.9954   1.0712   1.0712   1.0792   1.1029   1.1134   1.1813
     1.7170   1.9513   2.3923   3.6614   3.7835   3.8823   4.3531   4.3594
     4.7986   4.7991   5.1211   5.1215

          k = 0.0000 0.0000-0.6194 (  4448 PWs)   bands (ev):

   -11.5164 -11.5164 -11.1884 -11.1884  -0.0089  -0.0089   0.0735   0.0735
     0.2088   0.2088   0.2090   0.2090   0.5214   0.5214   0.6315   0.6315
     1.0370   1.0370   1.0370   1.0370   1.0883   1.0883   1.1603   1.1603
     1.8054   1.8055   3.1299   3.1299   4.0738   4.0739   4.1456   4.1456
     4.9609   4.9609   4.9614   4.9614

          k = 0.0000 0.3849 0.0000 (  4434 PWs)   bands (ev):

   -11.6651 -11.2790 -11.2028 -11.1101   0.0755   0.1288   0.2133   0.2246
     0.3197   0.3217   0.3978   0.4474   0.5806   0.6936   0.7404   0.7823
     0.9074   0.9473   0.9477   0.9970   1.1050   1.1441   1.2425   1.3022
     1.3964   1.8027   2.3147   2.8737   3.1591   3.7938   4.1863   4.2109
     4.3506   4.3522   5.0779   5.1274

          k = 0.0000 0.3849 0.2065 (  4422 PWs)   bands (ev):

   -11.6348 -11.2665 -11.2345 -11.1201   0.0570   0.1183   0.2114   0.2215
     0.2939   0.2941   0.3807   0.3979   0.5082   0.5692   0.6966   0.7241
     0.9300   0.9525   0.9602   1.0361   1.0970   1.1434   1.1438   1.2885
     1.8091   1.8226   2.2973   2.9837   3.3390   3.8049   4.0799   4.1981
     4.3570   4.4043   5.0045   5.0768

          k = 0.0000 0.3849 0.4130 (  4436 PWs)   bands (ev):

   -11.5516 -11.3204 -11.2332 -11.1485   0.0195   0.0851   0.1193   0.1833
     0.2466   0.2594   0.3377   0.3461   0.3871   0.5419   0.6203   0.6286
     0.9809   0.9935   1.0071   1.0554   1.0728   1.0933   1.1551   1.2458
     1.8858   2.1768   2.4522   3.2642   3.5440   3.7658   3.9935   4.1570
     4.4134   4.5496   4.7733   4.9375

          k = 0.0000 0.3849-0.6194 (  4448 PWs)   bands (ev):

   -11.4367 -11.4367 -11.1896 -11.1896   0.0233   0.0233   0.0885   0.0885
     0.2844   0.2844   0.2879   0.2879   0.4632   0.4632   0.5925   0.5925
     1.0352   1.0352   1.0401   1.0401   1.0461   1.0461   1.1930   1.1930
     2.0210   2.0210   3.0521   3.0521   3.6106   3.6106   4.2409   4.2409
     4.4483   4.4483   4.7450   4.7450

          k = 0.0000 0.7698 0.0000 (  4433 PWs)   bands (ev):

   -11.4247 -11.2790 -11.1258 -11.1101   0.0214   0.1289   0.2620   0.3090
     0.3196   0.4474   0.5097   0.5807   0.6195   0.7404   0.7590   0.7823
     0.9207   0.9478   0.9970   1.0034   1.1192   1.1441   1.2889   1.3023
     1.8017   1.8028   2.3148   2.4732   2.8737   3.1589   3.1829   3.7786
     4.2108   4.3521   4.6177   4.8004

          k = 0.0000 0.7698 0.2065 (  4437 PWs)   bands (ev):

   -11.4041 -11.2665 -11.1452 -11.1201   0.0008   0.1183   0.2145   0.2938
     0.3258   0.3978   0.4916   0.5693   0.5941   0.6590   0.6967   0.7240
     0.9328   0.9525   1.0101   1.0361   1.1094   1.1435   1.2249   1.2886
     1.8092   1.9684   2.2974   2.5895   2.9837   3.1998   3.3388   3.8518
     4.1979   4.3569   4.6301   4.7348

          k = 0.0000 0.7698 0.4130 (  4433 PWs)   bands (ev):

   -11.3482 -11.2332 -11.1986 -11.1485  -0.0335   0.0851   0.0875   0.1833
     0.3743   0.3870   0.4631   0.5280   0.5284   0.5420   0.6202   0.6287
     0.9956   1.0072   1.0289   1.0554   1.0851   1.1495   1.1551   1.2459
     1.8859   2.1769   2.1918   2.5882   3.2641   3.5602   3.7657   3.9934
     4.0467   4.4134   4.5160   4.5543

          k = 0.0000 0.7698-0.6194 (  4414 PWs)   bands (ev):

   -11.2728 -11.2728 -11.1896 -11.1896  -0.0171  -0.0171   0.0886   0.0886
     0.4473   0.4473   0.4632   0.4632   0.4708   0.4708   0.5925   0.5925
     1.0461   1.0461   1.0560   1.0560   1.0739   1.0739   1.1931   1.1931
     2.0211   2.0211   2.4028   2.4028   3.6105   3.6105   4.1228   4.1228
     4.2409   4.2409   4.3040   4.3040

          k = 0.0000-1.1547 0.0000 (  4416 PWs)   bands (ev):

   -11.2740 -11.2740 -11.1129 -11.1129   0.0638   0.0638   0.3382   0.3382
     0.3386   0.3386   0.6281   0.6281   0.7478   0.7478   0.7603   0.7603
     1.0028   1.0028   1.0723   1.0723   1.1306   1.1306   1.1870   1.1870
     1.7355   1.7355   2.1922   2.1922   2.8768   2.8769   3.4739   3.4739
     4.2123   4.2123   4.6257   4.6257

          k = 0.0000-1.1547 0.2065 (  4456 PWs)   bands (ev):

   -11.2620 -11.2620 -11.1224 -11.1224   0.0375   0.0375   0.2510   0.2510
     0.3607   0.3607   0.6222   0.6222   0.7150   0.7150   0.7269   0.7269
     1.0447   1.0448   1.0739   1.0739   1.1208   1.1208   1.1865   1.1865
     1.7081   1.7081   2.1123   2.1123   3.1305   3.1305   3.5592   3.5592
     4.2955   4.2955   4.5529   4.5529

          k = 0.0000-1.1547 0.4130 (  4416 PWs)   bands (ev):

   -11.2300 -11.2300 -11.1493 -11.1493  -0.0102  -0.0102   0.0899   0.0899
     0.4251   0.4251   0.6174   0.6174   0.6291   0.6291   0.6711   0.6711
     1.0792   1.0792   1.1029   1.1030   1.1135   1.1135   1.1814   1.1814
     1.7171   1.7171   1.9514   1.9514   3.6614   3.6614   3.7832   3.7832
     4.3528   4.3528   4.3594   4.3594

          k = 0.0000-1.1547-0.6194 (  4432 PWs)   bands (ev):

   -11.1884 -11.1884 -11.1884 -11.1884  -0.0089  -0.0089  -0.0089  -0.0089
     0.5213   0.5213   0.5213   0.5213   0.6316   0.6316   0.6316   0.6316
     1.0884   1.0884   1.0884   1.0884   1.1603   1.1603   1.1603   1.1603
     1.8056   1.8056   1.8056   1.8056   4.0735   4.0735   4.0735   4.0735
     4.1457   4.1457   4.1457   4.1457

          k = 0.1667 0.0962 0.0000 (  4465 PWs)   bands (ev):

   -11.7446 -11.3192 -11.2364 -11.1119   0.0471   0.1258   0.1686   0.1873
     0.3008   0.3047   0.3278   0.3320   0.6296   0.6419   0.7007   0.7125
     0.9362   0.9454   0.9740   1.0498   1.0992   1.1269   1.1393   1.2752
     1.3649   1.7770   2.2434   2.9080   3.5581   4.3449   4.4025   4.5582
     4.6736   4.7725   5.1945   5.2397

          k = 0.1667 0.0962 0.2065 (  4444 PWs)   bands (ev):

   -11.7117 -11.3043 -11.2716 -11.1246   0.0226   0.1087   0.1750   0.1836
     0.2335   0.2805   0.3123   0.3528   0.4316   0.6259   0.6542   0.6821
     0.9520   0.9591   0.9985   1.0529   1.0927   1.1060   1.1173   1.2439
     1.7487   1.7728   2.2719   3.0909   3.6399   4.3974   4.4064   4.4976
     4.6028   4.6050   5.1392   5.1953

          k = 0.1667 0.0962 0.4130 (  4417 PWs)   bands (ev):

   -11.6211 -11.3670 -11.2642 -11.1603  -0.0205   0.0650   0.0878   0.1498
     0.1953   0.1999   0.2740   0.2805   0.4127   0.5876   0.6023   0.6040
     0.9910   0.9940   1.0553   1.0622   1.0717   1.0770   1.0972   1.1830
     1.8510   2.1630   2.4122   3.6074   3.8090   3.8554   4.4080   4.4127
     4.6018   4.7321   4.9917   5.0729

          k = 0.1667 0.0962-0.6194 (  4426 PWs)   bands (ev):

   -11.4952 -11.4952 -11.2112 -11.2112  -0.0131  -0.0131   0.0573   0.0573
     0.2297   0.2297   0.2300   0.2300   0.5025   0.5026   0.5794   0.5794
     1.0360   1.0360   1.0372   1.0372   1.0776   1.0776   1.1196   1.1196
     1.9963   1.9963   3.1215   3.1215   4.1339   4.1339   4.1366   4.1366
     4.7941   4.7941   4.9036   4.9036

          k = 0.1667 0.4811 0.0000 (  4423 PWs)   bands (ev):

   -11.5933 -11.3763 -11.1754 -11.1160   0.0626   0.1331   0.2200   0.2279
     0.2583   0.3456   0.3637   0.4686   0.4870   0.6773   0.7443   0.8046
     0.8848   0.8899   0.9507   0.9871   1.1085   1.1263   1.2784   1.3144
     1.4981   1.8474   2.6124   2.9686   3.3831   3.4324   3.7125   4.1963
     4.4946   4.5405   4.9654   4.9838

          k = 0.1667 0.4811 0.2065 (  4423 PWs)   bands (ev):

   -11.5657 -11.3581 -11.2036 -11.1326   0.0425   0.1100   0.2070   0.2071
     0.2570   0.3233   0.3603   0.4501   0.4707   0.5675   0.6468   0.6693
     0.9076   0.9166   0.9663   1.0240   1.0995   1.1194   1.1738   1.2631
     1.8966   1.9739   2.6338   3.1274   3.4287   3.4592   3.6883   4.2186
     4.4178   4.5715   4.9091   4.9326

          k = 0.1667 0.4811 0.4130 (  4423 PWs)   bands (ev):

   -11.4898 -11.3088 -11.2806 -11.1785   0.0046   0.0585   0.1096   0.1344
     0.2736   0.3005   0.3737   0.3989   0.4066   0.4399   0.5192   0.5730
     0.9769   0.9862   0.9981   1.0487   1.0742   1.1072   1.1109   1.1871
     2.1675   2.4584   2.5342   3.2866   3.5512   3.6736   3.8811   4.2040
     4.3417   4.5241   4.6885   4.7738

          k = 0.1667 0.4811-0.6194 (  4426 PWs)   bands (ev):

   -11.3855 -11.3855 -11.2428 -11.2428   0.0120   0.0120   0.0554   0.0554
     0.3002   0.3002   0.3630   0.3630   0.4132   0.4132   0.5027   0.5027
     1.0360   1.0360   1.0483   1.0483   1.0497   1.0497   1.1189   1.1189
     2.3572   2.3572   2.9324   2.9324   3.8558   3.8558   4.2242   4.2242
     4.2796   4.2796   4.5627   4.5627

          k = 0.1667 0.8660 0.0000 (  4436 PWs)   bands (ev):

   -11.3556 -11.3556 -11.1141 -11.1141   0.0622   0.0622   0.2931   0.2931
     0.3241   0.3241   0.5654   0.5654   0.6832   0.6832   0.7447   0.7447
     0.9434   0.9434   1.0155   1.0155   1.1261   1.1261   1.3018   1.3018
     1.8328   1.8328   2.3490   2.3490   2.9969   2.9970   3.5100   3.5100
     4.4524   4.4525   4.6313   4.6313

          k = 0.1667 0.8660 0.2065 (  4428 PWs)   bands (ev):

   -11.3386 -11.3385 -11.1292 -11.1292   0.0398   0.0398   0.2421   0.2421
     0.3380   0.3380   0.5478   0.5478   0.6507   0.6507   0.6725   0.6725
     0.9508   0.9508   1.0339   1.0339   1.1179   1.1179   1.2552   1.2552
     1.8869   1.8869   2.4324   2.4324   3.1079   3.1079   3.5925   3.5925
     4.4838   4.4838   4.5700   4.5700

          k = 0.1667 0.8660 0.4130 (  4426 PWs)   bands (ev):

   -11.2925 -11.2925 -11.1715 -11.1715  -0.0003  -0.0003   0.1106   0.1106
     0.3887   0.3887   0.5186   0.5186   0.5605   0.5605   0.5839   0.5839
     1.0090   1.0090   1.0533   1.0533   1.1021   1.1021   1.1813   1.1813
     2.0184   2.0184   2.3634   2.3634   3.5587   3.5587   3.8263   3.8263
     4.3292   4.3292   4.4902   4.4902

          k = 0.1667 0.8660-0.6194 (  4440 PWs)   bands (ev):

   -11.2311 -11.2311 -11.2311 -11.2311   0.0096   0.0096   0.0096   0.0096
     0.4682   0.4682   0.4682   0.4682   0.5296   0.5296   0.5296   0.5296
     1.0588   1.0588   1.0588   1.0588   1.1139   1.1139   1.1139   1.1139
     2.1896   2.1896   2.1896   2.1896   4.0023   4.0023   4.0023   4.0023
     4.2150   4.2150   4.2150   4.2150

          k = 0.1667-1.0585 0.0000 (  4448 PWs)   bands (ev):

   -11.2757 -11.2757 -11.1119 -11.1119   0.0815   0.0815   0.3308   0.3308
     0.3760   0.3760   0.6627   0.6627   0.6857   0.6857   0.7701   0.7701
     0.9830   0.9830   1.0492   1.0492   1.1391   1.1391   1.2295   1.2295
     1.7545   1.7545   2.2271   2.2271   2.8775   2.8775   3.3774   3.3774
     4.2086   4.2086   4.5348   4.5348

          k = 0.1667-1.0585 0.2065 (  4438 PWs)   bands (ev):

   -11.2636 -11.2635 -11.1216 -11.1216   0.0587   0.0587   0.2863   0.2863
     0.3513   0.3513   0.6435   0.6435   0.6694   0.6694   0.7268   0.7268
     1.0144   1.0144   1.0563   1.0563   1.1356   1.1356   1.2254   1.2254
     1.7306   1.7306   2.1730   2.1730   3.0933   3.0934   3.4845   3.4845
     4.2824   4.2824   4.4658   4.4658

          k = 0.1667-1.0585 0.4130 (  4438 PWs)   bands (ev):

   -11.2311 -11.2311 -11.1490 -11.1490   0.0154   0.0154   0.1230   0.1230
     0.4085   0.4085   0.6147   0.6147   0.6260   0.6260   0.6424   0.6424
     1.0536   1.0536   1.0692   1.0692   1.1427   1.1427   1.2069   1.2069
     1.7607   1.7607   2.0251   2.0251   3.5206   3.5206   3.8046   3.8046
     4.2016   4.2016   4.4005   4.4005

          k = 0.1667-1.0585-0.6194 (  4428 PWs)   bands (ev):

   -11.1888 -11.1888 -11.1888 -11.1888   0.0202   0.0202   0.0202   0.0202
     0.5048   0.5048   0.5048   0.5048   0.6199   0.6199   0.6199   0.6199
     1.0689   1.0689   1.0689   1.0689   1.1746   1.1746   1.1746   1.1746
     1.8712   1.8712   1.8712   1.8712   3.8925   3.8925   3.8925   3.8925
     4.2098   4.2098   4.2098   4.2098

          k = 0.1667-0.6736 0.0000 (  4425 PWs)   bands (ev):

   -11.4727 -11.2085 -11.1371 -11.1218   0.0473   0.1468   0.2480   0.2929
     0.3922   0.4395   0.5359   0.5818   0.6974   0.7856   0.7967   0.8470
     0.8850   0.9367   0.9791   0.9791   1.1160   1.1586   1.2341   1.2885
     1.7278   1.8721   2.1768   2.4265   2.7780   3.3074   3.3463   3.8233
     3.9368   4.0590   4.7363   4.7958

          k = 0.1667-0.6736 0.2065 (  4428 PWs)   bands (ev):

   -11.4499 -11.2013 -11.1591 -11.1262   0.0265   0.1635   0.2153   0.3010
     0.3503   0.4229   0.4636   0.5584   0.6408   0.6532   0.7499   0.7924
     0.9098   0.9482   0.9953   1.0107   1.1066   1.1774   1.2149   1.2679
     1.8503   1.9900   2.1474   2.5173   2.8545   3.3108   3.5408   3.8771
     3.8974   4.1179   4.7092   4.7495

          k = 0.1667-0.6736 0.4130 (  4433 PWs)   bands (ev):

   -11.3878 -11.2198 -11.1826 -11.1391  -0.0101   0.1034   0.1846   0.2650
     0.3357   0.3552   0.3990   0.4778   0.5027   0.5510   0.6943   0.7217
     0.9804   0.9826   1.0162   1.0201   1.0829   1.1413   1.2299   1.2997
     1.8546   2.0366   2.3345   2.8150   2.8167   3.5928   3.6097   3.9754
     4.0500   4.2949   4.5212   4.6045

          k = 0.1667-0.6736-0.6194 (  4426 PWs)   bands (ev):

   -11.3034 -11.3034 -11.1594 -11.1594   0.0028   0.0028   0.1891   0.1891
     0.3817   0.3817   0.4188   0.4188   0.4452   0.4452   0.6910   0.6910
     1.0042   1.0042   1.0456   1.0456   1.0696   1.0696   1.2814   1.2814
     1.9244   1.9244   2.6034   2.6034   3.2110   3.2110   4.1259   4.1259
     4.2731   4.2731   4.3290   4.3290

          k = 0.1667-0.2887 0.0000 (  4441 PWs)   bands (ev):

   -11.6907 -11.2351 -11.2133 -11.1159   0.0971   0.1255   0.1909   0.2174
     0.3099   0.3424   0.3771   0.5263   0.6640   0.6734   0.7083   0.7975
     0.9185   0.9437   0.9655   1.0207   1.1029   1.1818   1.1833   1.2155
     1.3793   1.8008   2.2215   2.6950   3.2854   4.0316   4.0535   4.1827
     4.2886   4.5034   5.1181   5.1471

          k = 0.1667-0.2887 0.2065 (  4439 PWs)   bands (ev):

   -11.6595 -11.2461 -11.2258 -11.1225   0.0775   0.1184   0.1939   0.2160
     0.2791   0.3404   0.3608   0.4037   0.4850   0.6618   0.6905   0.7488
     0.9374   0.9581   0.9998   1.0281   1.0952   1.1330   1.1959   1.1982
     1.7718   1.7979   2.1455   2.8385   3.4722   4.0519   4.0677   4.1158
     4.2648   4.4893   5.0478   5.0978

          k = 0.1667-0.2887 0.4130 (  4437 PWs)   bands (ev):

   -11.5739 -11.3351 -11.2012 -11.1415   0.0363   0.0927   0.1284   0.2132
     0.2260   0.2352   0.3209   0.3269   0.3748   0.5983   0.6654   0.6738
     0.9840   0.9927   1.0294   1.0368   1.0719   1.0886   1.2229   1.2332
     1.7746   1.9946   2.4430   3.1510   3.6416   3.8683   3.8918   4.2934
     4.3487   4.5902   4.8429   4.9630

          k = 0.1667-0.2887-0.6194 (  4426 PWs)   bands (ev):

   -11.4554 -11.4554 -11.1700 -11.1700   0.0351   0.0351   0.1025   0.1025
     0.2507   0.2507   0.2834   0.2834   0.4707   0.4707   0.6585   0.6585
     1.0347   1.0347   1.0378   1.0378   1.0396   1.0396   1.2422   1.2422
     1.8576   1.8576   3.0839   3.0839   3.5208   3.5208   4.2523   4.2523
     4.5524   4.5524   4.7812   4.7812

          k = 0.3333 0.1925 0.0000 (  4433 PWs)   bands (ev):

   -11.6651 -11.4246 -11.2028 -11.1258   0.0213   0.0754   0.2134   0.2246
     0.2620   0.3092   0.3216   0.3979   0.5096   0.6197   0.6936   0.7590
     0.9074   0.9206   0.9472   1.0033   1.1050   1.1192   1.2425   1.2888
     1.3964   1.8016   2.4730   3.1827   3.7789   3.7935   4.1861   4.3509
     4.6177   4.8008   5.0779   5.1278

          k = 0.3333 0.1925 0.2065 (  4429 PWs)   bands (ev):

   -11.6348 -11.4041 -11.2345 -11.1452   0.0007   0.0569   0.2114   0.2145
     0.2217   0.2940   0.3260   0.3808   0.4915   0.5082   0.5942   0.6590
     0.9300   0.9328   0.9602   1.0101   1.0970   1.1094   1.1438   1.2249
     1.8226   1.9683   2.5893   3.1996   3.8047   3.8521   4.0797   4.4046
     4.6301   4.7351   5.0045   5.0771

          k = 0.3333 0.1925 0.4130 (  4439 PWs)   bands (ev):

   -11.5516 -11.3482 -11.3204 -11.1986  -0.0336   0.0195   0.0875   0.1193
     0.2467   0.2593   0.3379   0.3461   0.3744   0.4631   0.5280   0.5286
     0.9809   0.9934   0.9956   1.0289   1.0728   1.0851   1.0933   1.1495
     2.1917   2.4522   2.5880   3.5439   3.5600   4.0470   4.1567   4.5159
     4.5499   4.5547   4.7731   4.9378

          k = 0.3333 0.1925-0.6194 (  4426 PWs)   bands (ev):

   -11.4367 -11.4367 -11.2728 -11.2728  -0.0171  -0.0171   0.0232   0.0232
     0.2843   0.2843   0.2880   0.2880   0.4474   0.4474   0.4707   0.4707
     1.0352   1.0352   1.0401   1.0401   1.0560   1.0560   1.0739   1.0739
     2.4027   2.4027   3.0520   3.0520   4.1227   4.1227   4.3043   4.3043
     4.4481   4.4481   4.7454   4.7454

          k = 0.3333 0.5774 0.0000 (  4430 PWs)   bands (ev):

   -11.4899 -11.4899 -11.1416 -11.1416   0.0924   0.0924   0.2000   0.2000
     0.3142   0.3142   0.3969   0.3969   0.5719   0.5719   0.7922   0.7922
     0.8727   0.8727   0.9668   0.9668   1.1143   1.1143   1.2898   1.2898
     1.6995   1.6995   3.1133   3.1133   3.1388   3.1388   3.8441   3.8441
     4.7461   4.7461   4.7837   4.7837

          k = 0.3333 0.5774 0.2065 (  4414 PWs)   bands (ev):

   -11.4663 -11.4663 -11.1646 -11.1646   0.0667   0.0667   0.1886   0.1886
     0.3108   0.3108   0.3789   0.3789   0.5497   0.5497   0.6260   0.6260
     0.9043   0.9043   0.9904   0.9904   1.1054   1.1054   1.2137   1.2137
     1.9903   1.9903   3.0911   3.0911   3.2527   3.2527   3.8618   3.8618
     4.6768   4.6768   4.7733   4.7733

          k = 0.3333 0.5774 0.4130 (  4416 PWs)   bands (ev):

   -11.4021 -11.4021 -11.2278 -11.2277   0.0199   0.0199   0.1123   0.1123
     0.3170   0.3170   0.3543   0.3543   0.4606   0.4606   0.4947   0.4947
     0.9771   0.9771   1.0181   1.0181   1.0825   1.0825   1.1406   1.1406
     2.3876   2.3876   2.9313   2.9313   3.6611   3.6611   3.9870   3.9870
     4.4906   4.4906   4.6170   4.6170

          k = 0.3333 0.5774-0.6194 (  4400 PWs)   bands (ev):

   -11.3146 -11.3146 -11.3146 -11.3146   0.0236   0.0236   0.0236   0.0236
     0.3403   0.3403   0.3403   0.3403   0.4407   0.4407   0.4407   0.4407
     1.0425   1.0425   1.0425   1.0426   1.0704   1.0704   1.0704   1.0704
     2.6918   2.6918   2.6918   2.6918   4.1391   4.1391   4.1391   4.1391
     4.2922   4.2922   4.2922   4.2922

          k = 0.3333-0.9623 0.0000 (  4434 PWs)   bands (ev):

   -11.2790 -11.2790 -11.1101 -11.1101   0.1288   0.1288   0.3196   0.3196
     0.4474   0.4474   0.5806   0.5806   0.7404   0.7404   0.7822   0.7822
     0.9477   0.9477   0.9971   0.9971   1.1442   1.1442   1.3023   1.3023
     1.8028   1.8028   2.3149   2.3149   2.8735   2.8735   3.1589   3.1589
     4.2107   4.2107   4.3521   4.3521

          k = 0.3333-0.9623 0.2065 (  4430 PWs)   bands (ev):

   -11.2665 -11.2665 -11.1201 -11.1201   0.1183   0.1183   0.2939   0.2939
     0.3979   0.3979   0.5693   0.5693   0.6967   0.6967   0.7239   0.7239
     0.9525   0.9525   1.0361   1.0361   1.1435   1.1435   1.2886   1.2886
     1.8092   1.8092   2.2975   2.2975   2.9835   2.9835   3.3389   3.3389
     4.1978   4.1978   4.3569   4.3569

          k = 0.3333-0.9623 0.4130 (  4430 PWs)   bands (ev):

   -11.2332 -11.2332 -11.1485 -11.1485   0.0851   0.0851   0.1833   0.1833
     0.3870   0.3870   0.5420   0.5420   0.6202   0.6202   0.6286   0.6286
     1.0071   1.0071   1.0554   1.0554   1.1552   1.1552   1.2459   1.2459
     1.8859   1.8859   2.1769   2.1769   3.2640   3.2640   3.7657   3.7657
     3.9933   3.9933   4.4134   4.4134

          k = 0.3333-0.9623-0.6194 (  4436 PWs)   bands (ev):

   -11.1896 -11.1896 -11.1896 -11.1896   0.0886   0.0886   0.0886   0.0886
     0.4632   0.4632   0.4632   0.4632   0.5925   0.5925   0.5925   0.5925
     1.0461   1.0461   1.0461   1.0461   1.1931   1.1931   1.1931   1.1931
     2.0211   2.0211   2.0211   2.0211   3.6104   3.6104   3.6104   3.6104
     4.2409   4.2409   4.2409   4.2409

          k = 0.3333-0.5774 0.0000 (  4438 PWs)   bands (ev):

   -11.4899 -11.1544 -11.1544 -11.1416   0.0926   0.1454   0.1999   0.3142
     0.3969   0.4743   0.4743   0.5719   0.7922   0.8049   0.8727   0.8850
     0.8850   0.9298   0.9669   0.9950   1.1144   1.1499   1.1499   1.2898
     1.6996   2.0570   2.0571   2.0932   3.1134   3.1390   3.6766   3.6766
     3.8439   3.8797   4.7458   4.7837

          k = 0.3333-0.5774 0.2065 (  4433 PWs)   bands (ev):

   -11.4663 -11.1646 -11.1529 -11.1529   0.0668   0.1716   0.1885   0.3108
     0.3789   0.4185   0.4185   0.5496   0.6260   0.7218   0.8324   0.8324
     0.9043   0.9320   0.9904   0.9905   1.1054   1.2118   1.2119   1.2137
     1.9903   2.0075   2.0075   2.2429   3.0912   3.2529   3.7643   3.8386
     3.8386   3.8615   4.6765   4.7733

          k = 0.3333-0.5774 0.4130 (  4422 PWs)   bands (ev):

   -11.4021 -11.2278 -11.1499 -11.1499   0.0200   0.1123   0.2503   0.3043
     0.3043   0.3171   0.3542   0.4606   0.4946   0.5487   0.7794   0.7794
     0.9434   0.9771   0.9780   1.0181   1.0826   1.1406   1.2920   1.2920
     1.9303   1.9303   2.3877   2.5997   2.9315   3.4546   3.6613   3.9868
     4.1411   4.1411   4.4903   4.6171

          k = 0.3333-0.5774-0.6194 (  4444 PWs)   bands (ev):

   -11.3146 -11.3146 -11.1484 -11.1484   0.0236   0.0236   0.2482   0.2482
     0.3403   0.3403   0.3792   0.3792   0.4406   0.4406   0.7632   0.7632
     0.9603   0.9603   1.0426   1.0426   1.0705   1.0705   1.3227   1.3227
     1.8986   1.8986   2.6919   2.6919   3.0354   3.0354   4.1391   4.1391
     4.2858   4.2858   4.2920   4.2921

          k =-0.5000-0.2887 0.0000 (  4406 PWs)   bands (ev):

   -11.5502 -11.5502 -11.1605 -11.1605   0.0298   0.0298   0.2465   0.2465
     0.2670   0.2670   0.3905   0.3905   0.5029   0.5029   0.7704   0.7704
     0.8775   0.8775   0.9646   0.9646   1.1118   1.1118   1.2823   1.2823
     1.5751   1.5751   3.0797   3.0797   3.6488   3.6488   4.0681   4.0681
     4.8815   4.8815   4.9679   4.9679

          k =-0.5000-0.2887 0.2065 (  4410 PWs)   bands (ev):

   -11.5242 -11.5242 -11.1866 -11.1866   0.0113   0.0113   0.2123   0.2123
     0.2789   0.2789   0.3718   0.3718   0.4825   0.4825   0.6020   0.6020
     0.9107   0.9107   0.9752   0.9752   1.1024   1.1024   1.1864   1.1864
     1.9358   1.9358   3.1374   3.1374   3.5921   3.5921   4.1312   4.1312
     4.8418   4.8418   4.9095   4.9095

          k =-0.5000-0.2887 0.4130 (  4426 PWs)   bands (ev):

   -11.4530 -11.4530 -11.2580 -11.2580  -0.0210  -0.0210   0.0972   0.0972
     0.3140   0.3140   0.3476   0.3476   0.4307   0.4307   0.4337   0.4337
     0.9760   0.9761   1.0032   1.0032   1.0764   1.0764   1.1186   1.1186
     2.4279   2.4279   3.0869   3.0869   3.7341   3.7341   4.3007   4.3007
     4.6246   4.6246   4.7491   4.7491

          k =-0.5000-0.2887-0.6194 (  4412 PWs)   bands (ev):

   -11.3555 -11.3555 -11.3555 -11.3555  -0.0060  -0.0060  -0.0060  -0.0060
     0.3661   0.3661   0.3661   0.3661   0.3682   0.3682   0.3682   0.3682
     1.0403   1.0403   1.0403   1.0403   1.0504   1.0504   1.0504   1.0504
     2.8117   2.8117   2.8117   2.8117   4.1938   4.1938   4.1938   4.1938
     4.5271   4.5271   4.5271   4.5271

          k =-0.5000-1.4434 0.0000 (  4438 PWs)   bands (ev):

   -11.2806 -11.2806 -11.1092 -11.1092   0.1611   0.1611   0.3170   0.3170
     0.4814   0.4814   0.5228   0.5228   0.7560   0.7560   0.8688   0.8688
     0.8758   0.8758   0.9706   0.9706   1.1454   1.1454   1.3335   1.3335
     1.8379   1.8379   2.3695   2.3695   2.8675   2.8675   3.0342   3.0342
     4.2082   4.2082   4.2654   4.2654

          k =-0.5000-1.4434 0.2065 (  4432 PWs)   bands (ev):

   -11.2680 -11.2680 -11.1194 -11.1194   0.1701   0.1701   0.2610   0.2610
     0.4774   0.4774   0.4877   0.4877   0.7146   0.7146   0.7333   0.7333
     0.9123   0.9123   1.0297   1.0297   1.1454   1.1454   1.3131   1.3131
     1.8752   1.8752   2.3548   2.3548   2.9115   2.9115   3.2664   3.2664
     4.1143   4.1143   4.3454   4.3454

          k =-0.5000-1.4434 0.4130 (  4426 PWs)   bands (ev):

   -11.2342 -11.2342 -11.1483 -11.1483   0.1653   0.1653   0.1669   0.1669
     0.4130   0.4130   0.4705   0.4705   0.6145   0.6145   0.6233   0.6233
     0.9892   0.9892   1.0517   1.0517   1.1586   1.1586   1.2609   1.2609
     1.9761   1.9761   2.2561   2.2561   3.1262   3.1262   3.6908   3.6908
     3.9289   3.9289   4.4184   4.4184

          k =-0.5000-1.4434-0.6194 (  4440 PWs)   bands (ev):

   -11.1900 -11.1900 -11.1900 -11.1900   0.1319   0.1319   0.1319   0.1319
     0.4326   0.4326   0.4326   0.4326   0.5784   0.5784   0.5784   0.5784
     1.0388   1.0388   1.0388   1.0388   1.2005   1.2005   1.2005   1.2005
     2.1122   2.1122   2.1122   2.1122   3.4623   3.4623   3.4623   3.4623
     4.2485   4.2485   4.2485   4.2485

          k = 0.3333-0.1925-0.2065 (  4422 PWs)   bands (ev):

   -11.6348 -11.2665 -11.2345 -11.1201   0.0570   0.1183   0.2114   0.2215
     0.2939   0.2941   0.3807   0.3979   0.5082   0.5692   0.6966   0.7241
     0.9300   0.9525   0.9602   1.0361   1.0970   1.1434   1.1438   1.2885
     1.8091   1.8226   2.2973   2.9837   3.3390   3.8049   4.0799   4.1981
     4.3570   4.4043   5.0045   5.0768

          k = 0.3333-0.1925-0.4130 (  4436 PWs)   bands (ev):

   -11.5516 -11.3204 -11.2332 -11.1485   0.0195   0.0851   0.1193   0.1833
     0.2466   0.2594   0.3377   0.3461   0.3871   0.5419   0.6203   0.6286
     0.9809   0.9935   1.0071   1.0554   1.0728   1.0933   1.1551   1.2458
     1.8858   2.1768   2.4522   3.2642   3.5440   3.7658   3.9935   4.1570
     4.4134   4.5496   4.7733   4.9375

          k = 0.6667-0.3849-0.2065 (  4437 PWs)   bands (ev):

   -11.4041 -11.2665 -11.1452 -11.1201   0.0008   0.1183   0.2145   0.2938
     0.3258   0.3978   0.4916   0.5693   0.5941   0.6590   0.6967   0.7240
     0.9328   0.9525   1.0101   1.0361   1.1094   1.1435   1.2249   1.2886
     1.8092   1.9684   2.2974   2.5895   2.9837   3.1998   3.3388   3.8518
     4.1979   4.3569   4.6301   4.7348

          k = 0.6667-0.3849-0.4130 (  4433 PWs)   bands (ev):

   -11.3482 -11.2332 -11.1986 -11.1485  -0.0335   0.0851   0.0875   0.1833
     0.3743   0.3870   0.4631   0.5280   0.5284   0.5420   0.6202   0.6287
     0.9956   1.0072   1.0289   1.0554   1.0851   1.1495   1.1551   1.2459
     1.8859   2.1769   2.1918   2.5882   3.2641   3.5602   3.7657   3.9934
     4.0467   4.4134   4.5160   4.5543

          k = 0.1667 0.0962-0.2065 (  4444 PWs)   bands (ev):

   -11.7117 -11.3043 -11.2716 -11.1246   0.0226   0.1087   0.1750   0.1836
     0.2335   0.2805   0.3123   0.3528   0.4316   0.6259   0.6542   0.6821
     0.9520   0.9591   0.9985   1.0529   1.0927   1.1060   1.1173   1.2439
     1.7487   1.7728   2.2719   3.0909   3.6399   4.3974   4.4064   4.4976
     4.6028   4.6050   5.1392   5.1953

          k = 0.1667 0.0962-0.4130 (  4417 PWs)   bands (ev):

   -11.6211 -11.3670 -11.2642 -11.1603  -0.0205   0.0650   0.0878   0.1498
     0.1953   0.1999   0.2740   0.2805   0.4127   0.5876   0.6023   0.6040
     0.9910   0.9940   1.0553   1.0622   1.0717   1.0770   1.0972   1.1830
     1.8510   2.1630   2.4122   3.6074   3.8090   3.8554   4.4080   4.4127
     4.6018   4.7321   4.9917   5.0729

          k = 0.5000-0.0962-0.2065 (  4423 PWs)   bands (ev):

   -11.5657 -11.3581 -11.2036 -11.1326   0.0425   0.1100   0.2070   0.2071
     0.2570   0.3233   0.3603   0.4501   0.4707   0.5675   0.6468   0.6693
     0.9076   0.9166   0.9663   1.0240   1.0995   1.1194   1.1738   1.2631
     1.8966   1.9739   2.6338   3.1274   3.4287   3.4592   3.6883   4.2186
     4.4178   4.5715   4.9091   4.9326

          k = 0.5000-0.0962-0.4130 (  4423 PWs)   bands (ev):

   -11.4898 -11.3088 -11.2806 -11.1785   0.0046   0.0585   0.1096   0.1344
     0.2736   0.3005   0.3737   0.3989   0.4066   0.4399   0.5192   0.5730
     0.9769   0.9862   0.9981   1.0487   1.0742   1.1072   1.1109   1.1871
     2.1675   2.4584   2.5342   3.2866   3.5512   3.6736   3.8811   4.2040
     4.3417   4.5241   4.6885   4.7738

          k =-0.8333 0.6736-0.2065 (  4438 PWs)   bands (ev):

   -11.2636 -11.2635 -11.1216 -11.1216   0.0587   0.0587   0.2863   0.2863
     0.3513   0.3513   0.6435   0.6435   0.6694   0.6694   0.7268   0.7268
     1.0144   1.0144   1.0563   1.0563   1.1356   1.1356   1.2254   1.2254
     1.7306   1.7306   2.1730   2.1730   3.0933   3.0934   3.4845   3.4845
     4.2824   4.2824   4.4658   4.4658

          k =-0.8333 0.6736-0.4130 (  4438 PWs)   bands (ev):

   -11.2311 -11.2311 -11.1490 -11.1490   0.0154   0.0154   0.1230   0.1230
     0.4085   0.4085   0.6147   0.6147   0.6260   0.6260   0.6424   0.6424
     1.0536   1.0536   1.0692   1.0692   1.1427   1.1427   1.2069   1.2069
     1.7607   1.7607   2.0251   2.0251   3.5206   3.5206   3.8046   3.8046
     4.2016   4.2016   4.4005   4.4005

          k =-0.5000 0.4811-0.2065 (  4428 PWs)   bands (ev):

   -11.4499 -11.2013 -11.1591 -11.1262   0.0265   0.1635   0.2153   0.3010
     0.3503   0.4229   0.4636   0.5584   0.6408   0.6532   0.7499   0.7924
     0.9098   0.9482   0.9953   1.0107   1.1066   1.1774   1.2149   1.2679
     1.8503   1.9900   2.1474   2.5173   2.8545   3.3108   3.5408   3.8771
     3.8974   4.1179   4.7092   4.7495

          k =-0.5000 0.4811-0.4130 (  4433 PWs)   bands (ev):

   -11.3878 -11.2198 -11.1826 -11.1391  -0.0101   0.1034   0.1846   0.2650
     0.3357   0.3552   0.3990   0.4778   0.5027   0.5510   0.6943   0.7217
     0.9804   0.9826   1.0162   1.0201   1.0829   1.1413   1.2299   1.2997
     1.8546   2.0366   2.3345   2.8150   2.8167   3.5928   3.6097   3.9754
     4.0500   4.2949   4.5212   4.6045

          k = 0.3333 0.1925-0.2065 (  4429 PWs)   bands (ev):

   -11.6348 -11.4041 -11.2345 -11.1452   0.0007   0.0569   0.2113   0.2145
     0.2217   0.2940   0.3260   0.3808   0.4915   0.5082   0.5942   0.6590
     0.9300   0.9328   0.9602   1.0101   1.0970   1.1094   1.1438   1.2249
     1.8226   1.9683   2.5893   3.1996   3.8047   3.8521   4.0797   4.4046
     4.6301   4.7351   5.0045   5.0771

          k = 0.3333 0.1925-0.4130 (  4439 PWs)   bands (ev):

   -11.5516 -11.3482 -11.3204 -11.1986  -0.0336   0.0195   0.0875   0.1193
     0.2467   0.2593   0.3379   0.3461   0.3744   0.4631   0.5280   0.5286
     0.9809   0.9934   0.9955   1.0289   1.0728   1.0851   1.0933   1.1495
     2.1917   2.4522   2.5880   3.5439   3.5600   4.0470   4.1567   4.5159
     4.5499   4.5547   4.7731   4.9378

          k =-0.6667 0.7698-0.2065 (  4430 PWs)   bands (ev):

   -11.2665 -11.2665 -11.1201 -11.1201   0.1183   0.1183   0.2939   0.2939
     0.3979   0.3979   0.5693   0.5693   0.6967   0.6967   0.7239   0.7239
     0.9525   0.9525   1.0361   1.0361   1.1435   1.1435   1.2886   1.2886
     1.8092   1.8092   2.2975   2.2975   2.9835   2.9835   3.3389   3.3389
     4.1978   4.1979   4.3569   4.3569

          k =-0.6667 0.7698-0.4130 (  4430 PWs)   bands (ev):

   -11.2332 -11.2332 -11.1485 -11.1485   0.0851   0.0851   0.1833   0.1833
     0.3870   0.3870   0.5420   0.5420   0.6202   0.6202   0.6286   0.6286
     1.0071   1.0071   1.0554   1.0554   1.1552   1.1552   1.2459   1.2459
     1.8859   1.8859   2.1769   2.1769   3.2640   3.2640   3.7657   3.7657
     3.9933   3.9933   4.4134   4.4134

     highest occupied level (ev):     5.2795

!    total energy              =    -723.24289533 Ry
     estimated scf accuracy    <          1.3E-09 Ry

     The total energy is the sum of the following terms:
     one-electron contribution =    -335.63087333 Ry
     hartree contribution      =     246.13422808 Ry
     xc contribution           =    -218.64132370 Ry
     ewald contribution        =    -415.10492638 Ry

     convergence has been achieved in  28 iterations

     Forces acting on atoms (cartesian axes, Ry/au):

     atom    1 type  1   force =    -0.00000171   -0.00000099    0.00094448
     atom    2 type  2   force =    -0.00000205   -0.00000118   -0.00094547
     atom    3 type  1   force =     0.00000203    0.00000117    0.00094774
     atom    4 type  2   force =     0.00000187    0.00000108   -0.00094589
     atom    5 type  1   force =    -0.00000087   -0.00000050    0.00094306
     atom    6 type  2   force =    -0.00000196   -0.00000113   -0.00094421
     atom    7 type  1   force =    -0.00000060   -0.00000035    0.00094655
     atom    8 type  2   force =     0.00000328    0.00000189   -0.00094626
     The non-local contrib.  to forces
     atom    1 type  1   force =     0.00000625    0.00000361    0.01019335
     atom    2 type  2   force =    -0.00018917   -0.00010922   -0.00059786
     atom    3 type  1   force =    -0.00000480   -0.00000277    0.01019405
     atom    4 type  2   force =     0.00018814    0.00010862   -0.00059866
     atom    5 type  1   force =     0.00000329    0.00000190    0.01019229
     atom    6 type  2   force =    -0.00018909   -0.00010917   -0.00059500
     atom    7 type  1   force =    -0.00000682   -0.00000394    0.01019419
     atom    8 type  2   force =     0.00019161    0.00011063   -0.00059860
     The ionic contribution  to forces
     atom    1 type  1   force =     0.00000000    0.00000000   -0.01920981
     atom    2 type  2   force =    -0.00000000   -0.00000000    0.01920981
     atom    3 type  1   force =    -0.00000000   -0.00000000   -0.01920981
     atom    4 type  2   force =     0.00000000    0.00000000    0.01920981
     atom    5 type  1   force =     0.00000000    0.00000000   -0.01920981
     atom    6 type  2   force =    -0.00000000   -0.00000000    0.01920981
     atom    7 type  1   force =    -0.00000000   -0.00000000   -0.01920981
     atom    8 type  2   force =     0.00000000    0.00000000    0.01920981
     The local contribution  to forces
     atom    1 type  1   force =    -0.00001478   -0.00000854    0.01074635
     atom    2 type  2   force =     0.00018342    0.00010590   -0.01957849
     atom    3 type  1   force =     0.00001148    0.00000663    0.01074402
     atom    4 type  2   force =    -0.00018596   -0.00010736   -0.01957801
     atom    5 type  1   force =    -0.00001055   -0.00000609    0.01074851
     atom    6 type  2   force =     0.00018573    0.00010723   -0.01958142
     atom    7 type  1   force =     0.00001583    0.00000914    0.01074415
     atom    8 type  2   force =    -0.00018597   -0.00010737   -0.01957928
     The core correction contribution to forces
     atom    1 type  1   force =     0.00000526    0.00000304   -0.00078678
     atom    2 type  2   force =     0.00000213    0.00000124    0.00002304
     atom    3 type  1   force =    -0.00000542   -0.00000309   -0.00078678
     atom    4 type  2   force =    -0.00000213   -0.00000123    0.00002304
     atom    5 type  1   force =     0.00000546    0.00000311   -0.00078674
     atom    6 type  2   force =     0.00000214    0.00000124    0.00002298
     atom    7 type  1   force =    -0.00000528   -0.00000305   -0.00078675
     atom    8 type  2   force =    -0.00000218   -0.00000126    0.00002306
     The Hubbard contrib.    to forces
     atom    1 type  1   force =     0.00000000    0.00000000    0.00000000
     atom    2 type  2   force =     0.00000000    0.00000000    0.00000000
     atom    3 type  1   force =     0.00000000    0.00000000    0.00000000
     atom    4 type  2   force =     0.00000000    0.00000000    0.00000000
     atom    5 type  1   force =     0.00000000    0.00000000    0.00000000
     atom    6 type  2   force =     0.00000000    0.00000000    0.00000000
     atom    7 type  1   force =     0.00000000    0.00000000    0.00000000
     atom    8 type  2   force =     0.00000000    0.00000000    0.00000000
     The SCF correction term to forces
     atom    1 type  1   force =     0.00000152    0.00000088    0.00000235
     atom    2 type  2   force =     0.00000153    0.00000089   -0.00000098
     atom    3 type  1   force =     0.00000072    0.00000042    0.00000725
     atom    4 type  2   force =     0.00000178    0.00000103   -0.00000109
     atom    5 type  1   force =     0.00000092    0.00000053   -0.00000020
     atom    6 type  2   force =    -0.00000078   -0.00000045    0.00000041
     atom    7 type  1   force =    -0.00000436   -0.00000252    0.00000576
     atom    8 type  2   force =    -0.00000022   -0.00000012   -0.00000026

     Total force =     0.002674     Total SCF correction =     0.000011

     Writing all to output data dir ./ZnO-3.40-1.61-211.in.save/

     init_run     :      4.50s CPU      4.06s WALL (       1 calls)
     electrons    :    307.06s CPU    248.95s WALL (       1 calls)
     forces       :      1.42s CPU      1.16s WALL (       1 calls)

     Called by init_run:
     wfcinit      :      3.00s CPU      2.53s WALL (       1 calls)
     potinit      :      0.60s CPU      0.60s WALL (       1 calls)
     hinit0       :      0.67s CPU      0.68s WALL (       1 calls)

     Called by electrons:
     c_bands      :    276.88s CPU    222.72s WALL (      28 calls)
     sum_band     :     26.72s CPU     23.34s WALL (      28 calls)
     v_of_rho     :      1.17s CPU      1.07s WALL (      29 calls)
     newd         :      2.11s CPU      1.67s WALL (      29 calls)
     mix_rho      :      0.18s CPU      0.16s WALL (      28 calls)

     Called by c_bands:
     init_us_2    :      1.72s CPU      1.44s WALL (    2320 calls)
     init_us_2:cp :      1.71s CPU      1.43s WALL (    2320 calls)
     cegterg      :    260.74s CPU    209.27s WALL (    1120 calls)

     Called by *egterg:
     cdiaghg      :     38.62s CPU     30.17s WALL (    7463 calls)
     h_psi        :    169.44s CPU    150.48s WALL (    7503 calls)
     s_psi        :     11.88s CPU      6.39s WALL (    7503 calls)
     g_psi        :      0.98s CPU      0.68s WALL (    6343 calls)

     Called by h_psi:
     h_psi:calbec :     12.20s CPU      7.32s WALL (    7503 calls)
     vloc_psi     :    144.69s CPU    136.19s WALL (    7503 calls)
     add_vuspsi   :     12.02s CPU      6.58s WALL (    7503 calls)

     General routines
     calbec       :     15.54s CPU      9.24s WALL (    8783 calls)
     fft          :      0.84s CPU      0.83s WALL (     386 calls)
     ffts         :      0.23s CPU      0.24s WALL (      57 calls)
     fftw         :    143.44s CPU    136.34s WALL (  352706 calls)
     interpolate  :      0.27s CPU      0.27s WALL (      29 calls)

     Parallel routines

     PWSCF        :   5m13.54s CPU   4m15.02s WALL


   This run was terminated on:  16:28:19  12Jul2025            

=------------------------------------------------------------------------------=
   JOB DONE.
=------------------------------------------------------------------------------=
Note: The following floating-point exceptions are signalling: IEEE_INVALID_FLAG
Note: The following floating-point exceptions are signalling: IEEE_INVALID_FLAG
